                         Program Version 4.1.2  - RELEASE  -
|  1> #Run DFT-D3 single point of the dimer
|  2> ! wB97X-D3 def2-TZVP TIGHTSCF CHELPG PMODEL PAL8
|  3>
|  4> %base "11-43_DFT_AB"
|  5>
|  6> %scf
|  7> MaxIter 1000
|  8> end
|  9>
| 10> * xyz 0 1
| 11>   C                      -6.809828            -7.466043            3.576054
| 12>   O                      -7.899568            -7.122431            2.761647
| 13>   H                      -8.485116            -6.571884            3.300043
| 14>   H                      -6.140757            -8.235801            3.211368
| 15>   H                      -6.195975            -6.624707            3.804071
| 16>   H                      -7.153628            -7.872314            4.553636
| 17>   C                      -5.760055            -8.513829            -0.368279
| 18>   O                      -4.328419            -8.570165            -0.232964
| 19>   H                      -3.882338            -8.895393            -1.060434
| 20>   H                      -6.142381            -9.490656            -0.599843
| 21>   H                      -6.286830            -8.176719            0.543374
| 22>   H                      -6.157992            -7.898399            -1.183509
| 23> *
| 24>
| 25> #Run DFT-D3 single point of the molecule with dimer basis set
| 26> $new_job
| 27> %base "11-43_DFT_A"
| 28> ! wB97X-D3 def2-TZVP TIGHTSCF CHELPG PMODEL
| 29>
| 30> %scf
| 31> MaxIter 1000
| 32> end
| 33>
| 34> * xyz 0 1
| 35>   C                      -6.809828            -7.466043            3.576054
| 36>   O                      -7.899568            -7.122431            2.761647
| 37>   H                      -8.485116            -6.571884            3.300043
| 38>   H                      -6.140757            -8.235801            3.211368
| 39>   H                      -6.195975            -6.624707            3.804071
| 40>   H                      -7.153628            -7.872314            4.553636
| 41>   C                    : -5.760055            -8.513829            -0.368279
| 42>   O                    : -4.328419            -8.570165            -0.232964
| 43>   H                    : -3.882338            -8.895393            -1.060434
| 44>   H                    : -6.142381            -9.490656            -0.599843
| 45>   H                    : -6.286830            -8.176719            0.543374
| 46>   H                    : -6.157992            -7.898399            -1.183509
| 47> *
| 48>
| 49> #Run DFT-D3 single point of the particle with dimer basis set
| 50> $new_job
| 51> %base "11-43_DFT_B"
| 52> ! wB97X-D3 def2-TZVP TIGHTSCF CHELPG PMODEL
| 53>
| 54> %scf
| 55> MaxIter 1000
| 56> end
| 57>
| 58> * xyz 0 1
| 59>   C                    : -6.809828            -7.466043            3.576054
| 60>   O                    : -7.899568            -7.122431            2.761647
| 61>   H                    : -8.485116            -6.571884            3.300043
| 62>   H                    : -6.140757            -8.235801            3.211368
| 63>   H                    : -6.195975            -6.624707            3.804071
| 64>   H                    : -7.153628            -7.872314            4.553636
| 65>   C                      -5.760055            -8.513829            -0.368279
| 66>   O                      -4.328419            -8.570165            -0.232964
| 67>   H                      -3.882338            -8.895393            -1.060434
| 68>   H                      -6.142381            -9.490656            -0.599843
| 69>   H                      -6.286830            -8.176719            0.543374
| 70>   H                      -6.157992            -7.898399            -1.183509
| 71> *
| 72>
| 73>                          ****END OF INPUT****
 Total Charge           Charge          ....    0
 Multiplicity           Mult            ....    1
 Number of Electrons    NEL             ....   36
Dispersion correction           -0.001371863
FINAL SINGLE POINT ENERGY      -231.466405310135
Dispersion correction           -0.000234372
FINAL SINGLE POINT ENERGY      -115.733315829056

CARTESIAN COORDINATES (ANGSTROEM)
---------------------------------
  C     -6.809828   -7.466043    3.576054
  O     -7.899568   -7.122431    2.761647
  H     -8.485116   -6.571884    3.300043
  H     -6.140757   -8.235801    3.211368
  H     -6.195975   -6.624707    3.804071
  H     -7.153628   -7.872314    4.553636
  C     -5.760055   -8.513829   -0.368279
  O     -4.328419   -8.570165   -0.232964
  H     -3.882338   -8.895393   -1.060434
  H     -6.142381   -9.490656   -0.599843
  H     -6.286830   -8.176719    0.543374
  H     -6.157992   -7.898399   -1.183509

 Multiplicity           Mult            ....    1
 Number of Electrons    NEL             ....   18
 Basis Dimension        Dim             ....  172

ORBITAL ENERGIES
----------------

  NO   OCC          E(Eh)            E(eV)
   0   2.0000     -19.233690      -523.3753
   1   2.0000     -10.314903      -280.6828
   2   2.0000      -1.120031       -30.4776
   3   2.0000      -0.797773       -21.7085
   4   2.0000      -0.606886       -16.5142
   5   2.0000      -0.532971       -14.5029
   6   2.0000      -0.524432       -14.2705
   7   2.0000      -0.430803       -11.7227
   8   2.0000      -0.372619       -10.1395
   9   0.0000       0.087856         2.3907
  10   0.0000       0.112790         3.0692
  11   0.0000       0.149942         4.0801
  12   0.0000       0.168035         4.5725
  13   0.0000       0.189914         5.1678

MULLIKEN ATOMIC CHARGES
-----------------------
   0 C :   -0.000055
   1 O :   -0.000060
   2 H :   -0.000021
   3 H :    0.001178
   4 H :   -0.000200
   5 H :    0.000123
   6 C :   -0.166412
   7 O :   -0.488678
   8 H :    0.320818
   9 H :    0.104492
  10 H :    0.123851
  11 H :    0.104963
Sum of atomic charges:   -0.0000000

LOEWDIN ATOMIC CHARGES
----------------------
   0 C :   -0.003200
   1 O :   -0.001063
   2 H :   -0.000052
   3 H :   -0.001201
   4 H :   -0.000065
   5 H :   -0.000021
   6 C :   -0.371956
   7 O :   -0.109714
   8 H :    0.187302
   9 H :    0.090850
  10 H :    0.114259
  11 H :    0.094862

  Mayer bond orders larger than 0.1
B(  6-C ,  7-O ) :   1.0019 B(  6-C ,  9-H ) :   0.9844 B(  6-C , 10-H ) :   0.9717
B(  6-C , 11-H ) :   0.9725 B(  7-O ,  8-H ) :   0.8881

Dispersion correction           -0.000276317
FINAL SINGLE POINT ENERGY      -115.731127069569

DIPOLE MOMENT
-------------
                                X             Y             Z
Electronic contribution:      1.88096       0.03229       0.34701
Nuclear contribution   :     -2.20420      -0.22751      -0.93065
                        -----------------------------------------
Total Dipole Moment    :     -0.32325      -0.19522      -0.58363
                        -----------------------------------------
Magnitude (a.u.)       :      0.69515
Magnitude (Debye)      :      1.76693

Rotational constants in cm-1:     4.451196     0.792735     0.760428
Rotational constants in MHz : 133443.497501 23765.609877 22797.051153

                             ****ORCA TERMINATED NORMALLY****
TOTAL RUN TIME: 0 days 0 hours 1 minutes 8 seconds 624 msec
