                         Program Version 4.1.2  - RELEASE  -
|  1> #Run DFT-D3 single point of the dimer
|  2> ! wB97X-D3 def2-TZVP TIGHTSCF CHELPG PMODEL PAL8
|  3>
|  4> %base "17-9_DFT_AB"
|  5>
|  6> %scf
|  7> MaxIter 1000
|  8> end
|  9>
| 10> * xyz 0 1
| 11>   C                      -4.021581            2.799748             -3.951247
| 12>   O                      -3.968984            3.408857             -2.693875
| 13>   H                      -3.428997            4.133400             -2.976944
| 14>   H                      -4.837682            2.116741             -4.115847
| 15>   H                      -4.388551            3.544017             -4.698766
| 16>   H                      -3.031499            2.512948             -4.232440
| 17>   C                      -1.143472            3.251015             -8.383428
| 18>   O                      -1.942154            2.903486             -9.464382
| 19>   H                      -1.698939            3.509440             -10.183064
| 20>   H                      -1.426148            2.504044             -7.571571
| 21>   H                      -0.084644            3.152513             -8.594473
| 22>   H                      -1.392792            4.268874             -8.070492
| 23> *
| 24>
| 25> #Run DFT-D3 single point of the molecule with dimer basis set
| 26> $new_job
| 27> %base "17-9_DFT_A"
| 28> ! wB97X-D3 def2-TZVP TIGHTSCF CHELPG PMODEL
| 29>
| 30> %scf
| 31> MaxIter 1000
| 32> end
| 33>
| 34> * xyz 0 1
| 35>   C                      -4.021581            2.799748             -3.951247
| 36>   O                      -3.968984            3.408857             -2.693875
| 37>   H                      -3.428997            4.133400             -2.976944
| 38>   H                      -4.837682            2.116741             -4.115847
| 39>   H                      -4.388551            3.544017             -4.698766
| 40>   H                      -3.031499            2.512948             -4.232440
| 41>   C                    : -1.143472            3.251015             -8.383428
| 42>   O                    : -1.942154            2.903486             -9.464382
| 43>   H                    : -1.698939            3.509440             -10.183064
| 44>   H                    : -1.426148            2.504044             -7.571571
| 45>   H                    : -0.084644            3.152513             -8.594473
| 46>   H                    : -1.392792            4.268874             -8.070492
| 47> *
| 48>
| 49> #Run DFT-D3 single point of the particle with dimer basis set
| 50> $new_job
| 51> %base "17-9_DFT_B"
| 52> ! wB97X-D3 def2-TZVP TIGHTSCF CHELPG PMODEL
| 53>
| 54> %scf
| 55> MaxIter 1000
| 56> end
| 57>
| 58> * xyz 0 1
| 59>   C                    : -4.021581            2.799748             -3.951247
| 60>   O                    : -3.968984            3.408857             -2.693875
| 61>   H                    : -3.428997            4.133400             -2.976944
| 62>   H                    : -4.837682            2.116741             -4.115847
| 63>   H                    : -4.388551            3.544017             -4.698766
| 64>   H                    : -3.031499            2.512948             -4.232440
| 65>   C                      -1.143472            3.251015             -8.383428
| 66>   O                      -1.942154            2.903486             -9.464382
| 67>   H                      -1.698939            3.509440             -10.183064
| 68>   H                      -1.426148            2.504044             -7.571571
| 69>   H                      -0.084644            3.152513             -8.594473
| 70>   H                      -1.392792            4.268874             -8.070492
| 71> *
| 72>
| 73>                          ****END OF INPUT****
 Total Charge           Charge          ....    0
 Multiplicity           Mult            ....    1
 Number of Electrons    NEL             ....   36
Dispersion correction           -0.000642830
FINAL SINGLE POINT ENERGY      -231.456219940999
Dispersion correction           -0.000191094
FINAL SINGLE POINT ENERGY      -115.721564703528

CARTESIAN COORDINATES (ANGSTROEM)
---------------------------------
  C     -4.021581    2.799748   -3.951247
  O     -3.968984    3.408857   -2.693875
  H     -3.428997    4.133400   -2.976944
  H     -4.837682    2.116741   -4.115847
  H     -4.388551    3.544017   -4.698766
  H     -3.031499    2.512948   -4.232440
  C     -1.143472    3.251015   -8.383428
  O     -1.942154    2.903486   -9.464382
  H     -1.698939    3.509440  -10.183064
  H     -1.426148    2.504044   -7.571571
  H     -0.084644    3.152513   -8.594473
  H     -1.392792    4.268874   -8.070492

 Multiplicity           Mult            ....    1
 Number of Electrons    NEL             ....   18
 Basis Dimension        Dim             ....  172

ORBITAL ENERGIES
----------------

  NO   OCC          E(Eh)            E(eV)
   0   2.0000     -19.229225      -523.2538
   1   2.0000     -10.313626      -280.6480
   2   2.0000      -1.143401       -31.1135
   3   2.0000      -0.787791       -21.4369
   4   2.0000      -0.613774       -16.7016
   5   2.0000      -0.550303       -14.9745
   6   2.0000      -0.521039       -14.1782
   7   2.0000      -0.431085       -11.7304
   8   2.0000      -0.372233       -10.1290
   9   0.0000       0.086681         2.3587
  10   0.0000       0.114037         3.1031
  11   0.0000       0.151234         4.1153
  12   0.0000       0.170494         4.6394
  13   0.0000       0.185032         5.0350

MULLIKEN ATOMIC CHARGES
-----------------------
   0 C :    0.000099
   1 O :    0.000000
   2 H :   -0.000003
   3 H :   -0.000006
   4 H :   -0.000021
   5 H :   -0.000222
   6 C :   -0.156040
   7 O :   -0.467242
   8 H :    0.311377
   9 H :    0.114271
  10 H :    0.101645
  11 H :    0.096142
Sum of atomic charges:    0.0000000

LOEWDIN ATOMIC CHARGES
----------------------
   0 C :   -0.000090
   1 O :   -0.000001
   2 H :   -0.000001
   3 H :   -0.000001
   4 H :   -0.000013
   5 H :   -0.000149
   6 C :   -0.409660
   7 O :   -0.066660
   8 H :    0.175740
   9 H :    0.118837
  10 H :    0.089806
  11 H :    0.092194

  Mayer bond orders larger than 0.1
B(  6-C ,  7-O ) :   0.9987 B(  6-C ,  9-H ) :   0.9736 B(  6-C , 10-H ) :   0.9720
B(  6-C , 11-H ) :   0.9795 B(  7-O ,  8-H ) :   0.8999

Dispersion correction           -0.000216689
FINAL SINGLE POINT ENERGY      -115.734396725125

DIPOLE MOMENT
-------------
                                X             Y             Z
Electronic contribution:     -1.01458      -0.49806      -1.34348
Nuclear contribution   :      1.46717       1.00173       1.29134
                        -----------------------------------------
Total Dipole Moment    :      0.45258       0.50368      -0.05214
                        -----------------------------------------
Magnitude (a.u.)       :      0.67915
Magnitude (Debye)      :      1.72626

Rotational constants in cm-1:     4.098392     0.867802     0.831122
Rotational constants in MHz : 122866.699019 26016.051474 24916.424354

                             ****ORCA TERMINATED NORMALLY****
TOTAL RUN TIME: 0 days 0 hours 1 minutes 4 seconds 402 msec
