                         Program Version 4.1.2  - RELEASE  -
|  1> #Run DFT-D3 single point of the dimer
|  2> ! wB97X-D3 def2-TZVP TIGHTSCF CHELPG PMODEL PAL8
|  3>
|  4> %base "2-35_DFT_AB"
|  5>
|  6> %scf
|  7> MaxIter 1000
|  8> end
|  9>
| 10> * xyz 0 1
| 11>   C                      5.916145             7.599752             -3.115480
| 12>   O                      6.303187             6.405109             -3.797141
| 13>   H                      6.313995             5.742929             -3.113214
| 14>   H                      6.562852             7.866482             -2.246742
| 15>   H                      5.963492             8.428625             -3.817606
| 16>   H                      4.933177             7.588969             -2.693862
| 17>   C                      0.830158             6.375515             -3.351954
| 18>   O                      0.940551             5.032398             -3.766488
| 19>   H                      0.052664             4.669566             -3.840227
| 20>   H                      1.780243             6.766716             -3.040105
| 21>   H                      0.538714             6.865251             -4.300395
| 22>   H                      -0.102038            6.622866             -2.764643
| 23> *
| 24>
| 25> #Run DFT-D3 single point of the molecule with dimer basis set
| 26> $new_job
| 27> %base "2-35_DFT_A"
| 28> ! wB97X-D3 def2-TZVP TIGHTSCF CHELPG PMODEL
| 29>
| 30> %scf
| 31> MaxIter 1000
| 32> end
| 33>
| 34> * xyz 0 1
| 35>   C                      5.916145             7.599752             -3.115480
| 36>   O                      6.303187             6.405109             -3.797141
| 37>   H                      6.313995             5.742929             -3.113214
| 38>   H                      6.562852             7.866482             -2.246742
| 39>   H                      5.963492             8.428625             -3.817606
| 40>   H                      4.933177             7.588969             -2.693862
| 41>   C                    : 0.830158             6.375515             -3.351954
| 42>   O                    : 0.940551             5.032398             -3.766488
| 43>   H                    : 0.052664             4.669566             -3.840227
| 44>   H                    : 1.780243             6.766716             -3.040105
| 45>   H                    : 0.538714             6.865251             -4.300395
| 46>   H                    : -0.102038            6.622866             -2.764643
| 47> *
| 48>
| 49> #Run DFT-D3 single point of the particle with dimer basis set
| 50> $new_job
| 51> %base "2-35_DFT_B"
| 52> ! wB97X-D3 def2-TZVP TIGHTSCF CHELPG PMODEL
| 53>
| 54> %scf
| 55> MaxIter 1000
| 56> end
| 57>
| 58> * xyz 0 1
| 59>   C                    : 5.916145             7.599752             -3.115480
| 60>   O                    : 6.303187             6.405109             -3.797141
| 61>   H                    : 6.313995             5.742929             -3.113214
| 62>   H                    : 6.562852             7.866482             -2.246742
| 63>   H                    : 5.963492             8.428625             -3.817606
| 64>   H                    : 4.933177             7.588969             -2.693862
| 65>   C                      0.830158             6.375515             -3.351954
| 66>   O                      0.940551             5.032398             -3.766488
| 67>   H                      0.052664             4.669566             -3.840227
| 68>   H                      1.780243             6.766716             -3.040105
| 69>   H                      0.538714             6.865251             -4.300395
| 70>   H                      -0.102038            6.622866             -2.764643
| 71> *
| 72>
| 73>                          ****END OF INPUT****
 Total Charge           Charge          ....    0
 Multiplicity           Mult            ....    1
 Number of Electrons    NEL             ....   36
Dispersion correction           -0.000761448
FINAL SINGLE POINT ENERGY      -231.460277298942
Dispersion correction           -0.000247121
FINAL SINGLE POINT ENERGY      -115.735036615827

CARTESIAN COORDINATES (ANGSTROEM)
---------------------------------
  C      5.916145    7.599752   -3.115480
  O      6.303187    6.405109   -3.797141
  H      6.313995    5.742929   -3.113214
  H      6.562852    7.866482   -2.246742
  H      5.963492    8.428625   -3.817606
  H      4.933177    7.588969   -2.693862
  C      0.830158    6.375515   -3.351954
  O      0.940551    5.032398   -3.766488
  H      0.052664    4.669566   -3.840227
  H      1.780243    6.766716   -3.040105
  H      0.538714    6.865251   -4.300395
  H     -0.102038    6.622866   -2.764643

 Multiplicity           Mult            ....    1
 Number of Electrons    NEL             ....   18
 Basis Dimension        Dim             ....  172

ORBITAL ENERGIES
----------------

  NO   OCC          E(Eh)            E(eV)
   0   2.0000     -19.227286      -523.2011
   1   2.0000     -10.315863      -280.7089
   2   2.0000      -1.136897       -30.9366
   3   2.0000      -0.792983       -21.5782
   4   2.0000      -0.614341       -16.7171
   5   2.0000      -0.539621       -14.6838
   6   2.0000      -0.523286       -14.2393
   7   2.0000      -0.442458       -12.0399
   8   2.0000      -0.359713        -9.7883
   9   0.0000       0.087387         2.3779
  10   0.0000       0.112081         3.0499
  11   0.0000       0.153030         4.1642
  12   0.0000       0.169674         4.6171
  13   0.0000       0.180864         4.9216

MULLIKEN ATOMIC CHARGES
-----------------------
   0 C :    0.000029
   1 O :   -0.000006
   2 H :   -0.000004
   3 H :    0.000004
   4 H :   -0.000005
   5 H :   -0.000113
   6 C :   -0.180040
   7 O :   -0.471392
   8 H :    0.314385
   9 H :    0.130132
  10 H :    0.101118
  11 H :    0.105892
Sum of atomic charges:   -0.0000000

LOEWDIN ATOMIC CHARGES
----------------------
   0 C :   -0.000096
   1 O :   -0.000001
   2 H :   -0.000001
   3 H :   -0.000000
   4 H :   -0.000001
   5 H :   -0.000322
   6 C :   -0.394650
   7 O :   -0.080896
   8 H :    0.170075
   9 H :    0.103674
  10 H :    0.099343
  11 H :    0.102876

  Mayer bond orders larger than 0.1
B(  6-C ,  7-O ) :   0.9919 B(  6-C ,  9-H ) :   0.9689 B(  6-C , 10-H ) :   0.9905
B(  6-C , 11-H ) :   0.9708 B(  7-O ,  8-H ) :   0.8987

Dispersion correction           -0.000224236
FINAL SINGLE POINT ENERGY      -115.725152095468

DIPOLE MOMENT
-------------
                                X             Y             Z
Electronic contribution:      0.45386      -1.73324      -0.24413
Nuclear contribution   :     -1.06753       2.03327       0.33307
                        -----------------------------------------
Total Dipole Moment    :     -0.61367       0.30003       0.08894
                        -----------------------------------------
Magnitude (a.u.)       :      0.68886
Magnitude (Debye)      :      1.75093

Rotational constants in cm-1:     4.192965     0.851095     0.800267
Rotational constants in MHz : 125701.920907 25515.177098 23991.391276

                             ****ORCA TERMINATED NORMALLY****
TOTAL RUN TIME: 0 days 0 hours 5 minutes 39 seconds 268 msec
