                         Program Version 4.1.2  - RELEASE  -
|  1> #Run DFT-D3 single point of the dimer
|  2> ! wB97X-D3 def2-TZVP TIGHTSCF CHELPG PMODEL PAL8
|  3>
|  4> %base "10-64_DFT_AB"
|  5>
|  6> %scf
|  7> MaxIter 1000
|  8> end
|  9>
| 10> * xyz 0 1
| 11>   C                      6.480167             4.850157             8.017725
| 12>   O                      6.846940             3.890680             7.044795
| 13>   H                      7.195709             4.304133             6.297054
| 14>   H                      7.306813             5.169564             8.669647
| 15>   H                      6.202793             5.826223             7.485602
| 16>   H                      5.554086             4.491351             8.572135
| 17>   C                      7.628669             7.630412             5.588731
| 18>   O                      8.218989             6.613648             6.386838
| 19>   H                      8.132977             7.093867             7.249354
| 20>   H                      8.419939             8.255814             5.241938
| 21>   H                      7.138700             7.150735             4.705548
| 22>   H                      6.885957             8.177862             6.120765
| 23> *
| 24>
| 25> #Run DFT-D3 single point of the molecule with dimer basis set
| 26> $new_job
| 27> %base "10-64_DFT_A"
| 28> ! wB97X-D3 def2-TZVP TIGHTSCF CHELPG PMODEL
| 29>
| 30> %scf
| 31> MaxIter 1000
| 32> end
| 33>
| 34> * xyz 0 1
| 35>   C                      6.480167             4.850157             8.017725
| 36>   O                      6.846940             3.890680             7.044795
| 37>   H                      7.195709             4.304133             6.297054
| 38>   H                      7.306813             5.169564             8.669647
| 39>   H                      6.202793             5.826223             7.485602
| 40>   H                      5.554086             4.491351             8.572135
| 41>   C                    : 7.628669             7.630412             5.588731
| 42>   O                    : 8.218989             6.613648             6.386838
| 43>   H                    : 8.132977             7.093867             7.249354
| 44>   H                    : 8.419939             8.255814             5.241938
| 45>   H                    : 7.138700             7.150735             4.705548
| 46>   H                    : 6.885957             8.177862             6.120765
| 47> *
| 48>
| 49> #Run DFT-D3 single point of the particle with dimer basis set
| 50> $new_job
| 51> %base "10-64_DFT_B"
| 52> ! wB97X-D3 def2-TZVP TIGHTSCF CHELPG PMODEL
| 53>
| 54> %scf
| 55> MaxIter 1000
| 56> end
| 57>
| 58> * xyz 0 1
| 59>   C                    : 6.480167             4.850157             8.017725
| 60>   O                    : 6.846940             3.890680             7.044795
| 61>   H                    : 7.195709             4.304133             6.297054
| 62>   H                    : 7.306813             5.169564             8.669647
| 63>   H                    : 6.202793             5.826223             7.485602
| 64>   H                    : 5.554086             4.491351             8.572135
| 65>   C                      7.628669             7.630412             5.588731
| 66>   O                      8.218989             6.613648             6.386838
| 67>   H                      8.132977             7.093867             7.249354
| 68>   H                      8.419939             8.255814             5.241938
| 69>   H                      7.138700             7.150735             4.705548
| 70>   H                      6.885957             8.177862             6.120765
| 71> *
| 72>
| 73>                          ****END OF INPUT****
 Total Charge           Charge          ....    0
 Multiplicity           Mult            ....    1
 Number of Electrons    NEL             ....   36
Dispersion correction           -0.002207331
FINAL SINGLE POINT ENERGY      -231.462833723689
Dispersion correction           -0.000255562
FINAL SINGLE POINT ENERGY      -115.730681870365

CARTESIAN COORDINATES (ANGSTROEM)
---------------------------------
  C      6.480167    4.850157    8.017725
  O      6.846940    3.890680    7.044795
  H      7.195709    4.304133    6.297054
  H      7.306813    5.169564    8.669647
  H      6.202793    5.826223    7.485602
  H      5.554086    4.491351    8.572135
  C      7.628669    7.630412    5.588731
  O      8.218989    6.613648    6.386838
  H      8.132977    7.093867    7.249354
  H      8.419939    8.255814    5.241938
  H      7.138700    7.150735    4.705548
  H      6.885957    8.177862    6.120765

 Multiplicity           Mult            ....    1
 Number of Electrons    NEL             ....   18
 Basis Dimension        Dim             ....  172

ORBITAL ENERGIES
----------------

  NO   OCC          E(Eh)            E(eV)
   0   2.0000     -19.235022      -523.4116
   1   2.0000     -10.310214      -280.5552
   2   2.0000      -1.137043       -30.9405
   3   2.0000      -0.790170       -21.5016
   4   2.0000      -0.608903       -16.5691
   5   2.0000      -0.550819       -14.9886
   6   2.0000      -0.518399       -14.1063
   7   2.0000      -0.445990       -12.1360
   8   2.0000      -0.373999       -10.1770
   9   0.0000       0.088374         2.4048
  10   0.0000       0.132740         3.6120
  11   0.0000       0.152762         4.1569
  12   0.0000       0.171460         4.6657
  13   0.0000       0.202831         5.5193

MULLIKEN ATOMIC CHARGES
-----------------------
   0 C :    0.000260
   1 O :    0.002647
   2 H :   -0.005658
   3 H :   -0.001996
   4 H :   -0.012633
   5 H :   -0.001336
   6 C :   -0.185187
   7 O :   -0.450189
   8 H :    0.316207
   9 H :    0.114927
  10 H :    0.113872
  11 H :    0.109085
Sum of atomic charges:    0.0000000

LOEWDIN ATOMIC CHARGES
----------------------
   0 C :   -0.022841
   1 O :   -0.002504
   2 H :   -0.009908
   3 H :   -0.003407
   4 H :   -0.011656
   5 H :   -0.000305
   6 C :   -0.384113
   7 O :   -0.057844
   8 H :    0.196490
   9 H :    0.093935
  10 H :    0.111826
  11 H :    0.090328

  Mayer bond orders larger than 0.1
B(  6-C ,  7-O ) :   0.9858 B(  6-C ,  9-H ) :   0.9768 B(  6-C , 10-H ) :   0.9784
B(  6-C , 11-H ) :   0.9835 B(  7-O ,  8-H ) :   0.8991

Dispersion correction           -0.000206242
FINAL SINGLE POINT ENERGY      -115.729780057468

DIPOLE MOMENT
-------------
                                X             Y             Z
Electronic contribution:      0.77388      -1.33075       0.90190
Nuclear contribution   :     -1.05020       2.02604      -0.70050
                        -----------------------------------------
Total Dipole Moment    :     -0.27633       0.69530       0.20140
                        -----------------------------------------
Magnitude (a.u.)       :      0.77483
Magnitude (Debye)      :      1.96945

Rotational constants in cm-1:     4.146828     0.847593     0.810932
Rotational constants in MHz : 124318.783199 25410.202154 24311.132205

                             ****ORCA TERMINATED NORMALLY****
TOTAL RUN TIME: 0 days 0 hours 1 minutes 8 seconds 323 msec
