                         Program Version 4.1.2  - RELEASE  -
|  1> #Run DFT-D3 single point of the dimer
|  2> ! wB97X-D3 def2-TZVP TIGHTSCF CHELPG PMODEL PAL8
|  3>
|  4> %base "14-103_DFT_AB"
|  5>
|  6> %scf
|  7> MaxIter 1000
|  8> end
|  9>
| 10> * xyz 0 1
| 11>   C                      -9.038120            -4.940039            -9.359622
| 12>   O                      -8.941771            -4.116648            -10.481134
| 13>   H                      -8.041680            -3.849883            -10.587867
| 14>   H                      -9.704550            -5.762499            -9.452539
| 15>   H                      -8.020437            -5.364017            -9.158092
| 16>   H                      -9.342854            -4.350569            -8.499982
| 17>   C                      -10.087581           -1.212474            -9.669881
| 18>   O                      -9.263157            -0.086489            -9.994473
| 19>   H                      -8.491873            -0.476232            -10.390221
| 20>   H                      -11.102939           -0.924491            -9.323504
| 21>   H                      -10.176577           -1.898669            -10.562449
| 22>   H                      -9.520877            -1.804414            -8.913006
| 23> *
| 24>
| 25> #Run DFT-D3 single point of the molecule with dimer basis set
| 26> $new_job
| 27> %base "14-103_DFT_A"
| 28> ! wB97X-D3 def2-TZVP TIGHTSCF CHELPG PMODEL
| 29>
| 30> %scf
| 31> MaxIter 1000
| 32> end
| 33>
| 34> * xyz 0 1
| 35>   C                      -9.038120            -4.940039            -9.359622
| 36>   O                      -8.941771            -4.116648            -10.481134
| 37>   H                      -8.041680            -3.849883            -10.587867
| 38>   H                      -9.704550            -5.762499            -9.452539
| 39>   H                      -8.020437            -5.364017            -9.158092
| 40>   H                      -9.342854            -4.350569            -8.499982
| 41>   C                    : -10.087581           -1.212474            -9.669881
| 42>   O                    : -9.263157            -0.086489            -9.994473
| 43>   H                    : -8.491873            -0.476232            -10.390221
| 44>   H                    : -11.102939           -0.924491            -9.323504
| 45>   H                    : -10.176577           -1.898669            -10.562449
| 46>   H                    : -9.520877            -1.804414            -8.913006
| 47> *
| 48>
| 49> #Run DFT-D3 single point of the particle with dimer basis set
| 50> $new_job
| 51> %base "14-103_DFT_B"
| 52> ! wB97X-D3 def2-TZVP TIGHTSCF CHELPG PMODEL
| 53>
| 54> %scf
| 55> MaxIter 1000
| 56> end
| 57>
| 58> * xyz 0 1
| 59>   C                    : -9.038120            -4.940039            -9.359622
| 60>   O                    : -8.941771            -4.116648            -10.481134
| 61>   H                    : -8.041680            -3.849883            -10.587867
| 62>   H                    : -9.704550            -5.762499            -9.452539
| 63>   H                    : -8.020437            -5.364017            -9.158092
| 64>   H                    : -9.342854            -4.350569            -8.499982
| 65>   C                      -10.087581           -1.212474            -9.669881
| 66>   O                      -9.263157            -0.086489            -9.994473
| 67>   H                      -8.491873            -0.476232            -10.390221
| 68>   H                      -11.102939           -0.924491            -9.323504
| 69>   H                      -10.176577           -1.898669            -10.562449
| 70>   H                      -9.520877            -1.804414            -8.913006
| 71> *
| 72>
| 73>                          ****END OF INPUT****
 Total Charge           Charge          ....    0
 Multiplicity           Mult            ....    1
 Number of Electrons    NEL             ....   36
Dispersion correction           -0.001954386
FINAL SINGLE POINT ENERGY      -231.466967238663
Dispersion correction           -0.000228417
FINAL SINGLE POINT ENERGY      -115.733446854295

CARTESIAN COORDINATES (ANGSTROEM)
---------------------------------
  C     -9.038120   -4.940039   -9.359622
  O     -8.941771   -4.116648  -10.481134
  H     -8.041680   -3.849883  -10.587867
  H     -9.704550   -5.762499   -9.452539
  H     -8.020437   -5.364017   -9.158092
  H     -9.342854   -4.350569   -8.499982
  C    -10.087581   -1.212474   -9.669881
  O     -9.263157   -0.086489   -9.994473
  H     -8.491873   -0.476232  -10.390221
  H    -11.102939   -0.924491   -9.323504
  H    -10.176577   -1.898669  -10.562449
  H     -9.520877   -1.804414   -8.913006

 Multiplicity           Mult            ....    1
 Number of Electrons    NEL             ....   18
 Basis Dimension        Dim             ....  172

ORBITAL ENERGIES
----------------

  NO   OCC          E(Eh)            E(eV)
   0   2.0000     -19.229387      -523.2582
   1   2.0000     -10.324253      -280.9372
   2   2.0000      -1.135509       -30.8988
   3   2.0000      -0.788735       -21.4626
   4   2.0000      -0.606809       -16.5121
   5   2.0000      -0.537491       -14.6259
   6   2.0000      -0.525269       -14.2933
   7   2.0000      -0.440211       -11.9787
   8   2.0000      -0.370289       -10.0761
   9   0.0000       0.077255         2.1022
  10   0.0000       0.115053         3.1308
  11   0.0000       0.156212         4.2507
  12   0.0000       0.168022         4.5721
  13   0.0000       0.181524         4.9395

MULLIKEN ATOMIC CHARGES
-----------------------
   0 C :    0.000335
   1 O :   -0.001124
   2 H :    0.000158
   3 H :   -0.000033
   4 H :   -0.000066
   5 H :   -0.002702
   6 C :   -0.173023
   7 O :   -0.466839
   8 H :    0.312655
   9 H :    0.123839
  10 H :    0.102599
  11 H :    0.104200
Sum of atomic charges:   -0.0000000

LOEWDIN ATOMIC CHARGES
----------------------
   0 C :   -0.004373
   1 O :   -0.006903
   2 H :   -0.001053
   3 H :   -0.000040
   4 H :   -0.000051
   5 H :   -0.002957
   6 C :   -0.375216
   7 O :   -0.088396
   8 H :    0.162898
   9 H :    0.110818
  10 H :    0.102900
  11 H :    0.102373

  Mayer bond orders larger than 0.1
B(  6-C ,  7-O ) :   0.9878 B(  6-C ,  9-H ) :   0.9654 B(  6-C , 10-H ) :   0.9764
B(  6-C , 11-H ) :   0.9812 B(  7-O ,  8-H ) :   0.9029

Dispersion correction           -0.000229856
FINAL SINGLE POINT ENERGY      -115.732720420512

DIPOLE MOMENT
-------------
                                X             Y             Z
Electronic contribution:      0.82145       1.62896      -0.30754
Nuclear contribution   :     -0.67144      -2.30963       0.18807
                        -----------------------------------------
Total Dipole Moment    :      0.15002      -0.68066      -0.11948
                        -----------------------------------------
Magnitude (a.u.)       :      0.70716
Magnitude (Debye)      :      1.79746

Rotational constants in cm-1:     4.084171     0.821086     0.785349
Rotational constants in MHz : 122440.375437 24615.551980 23544.169103

                             ****ORCA TERMINATED NORMALLY****
TOTAL RUN TIME: 0 days 0 hours 0 minutes 57 seconds 6 msec
