                         Program Version 4.1.2  - RELEASE  -
|  1> #Run DFT-D3 single point of the dimer
|  2> ! wB97X-D3 def2-TZVP TIGHTSCF CHELPG PMODEL PAL8
|  3>
|  4> %base "4-117_DFT_AB"
|  5>
|  6> %scf
|  7> MaxIter 1000
|  8> end
|  9>
| 10> * xyz 0 1
| 11>   C                      3.525039             -9.013006            5.976572
| 12>   O                      4.752287             -9.411188            6.515313
| 13>   H                      4.589304             -9.839890            7.341963
| 14>   H                      2.971183             -8.294431            6.716489
| 15>   H                      3.600566             -8.576698            4.959692
| 16>   H                      2.900982             -9.866116            5.721810
| 17>   C                      2.765020             -4.179074            5.805482
| 18>   O                      3.311683             -5.446056            6.177687
| 19>   H                      3.331339             -5.364676            7.148464
| 20>   H                      2.715584             -4.021929            4.701500
| 21>   H                      1.758848             -4.116859            6.285104
| 22>   H                      3.338024             -3.374553            6.326295
| 23> *
| 24>
| 25> #Run DFT-D3 single point of the molecule with dimer basis set
| 26> $new_job
| 27> %base "4-117_DFT_A"
| 28> ! wB97X-D3 def2-TZVP TIGHTSCF CHELPG PMODEL
| 29>
| 30> %scf
| 31> MaxIter 1000
| 32> end
| 33>
| 34> * xyz 0 1
| 35>   C                      3.525039             -9.013006            5.976572
| 36>   O                      4.752287             -9.411188            6.515313
| 37>   H                      4.589304             -9.839890            7.341963
| 38>   H                      2.971183             -8.294431            6.716489
| 39>   H                      3.600566             -8.576698            4.959692
| 40>   H                      2.900982             -9.866116            5.721810
| 41>   C                    : 2.765020             -4.179074            5.805482
| 42>   O                    : 3.311683             -5.446056            6.177687
| 43>   H                    : 3.331339             -5.364676            7.148464
| 44>   H                    : 2.715584             -4.021929            4.701500
| 45>   H                    : 1.758848             -4.116859            6.285104
| 46>   H                    : 3.338024             -3.374553            6.326295
| 47> *
| 48>
| 49> #Run DFT-D3 single point of the particle with dimer basis set
| 50> $new_job
| 51> %base "4-117_DFT_B"
| 52> ! wB97X-D3 def2-TZVP TIGHTSCF CHELPG PMODEL
| 53>
| 54> %scf
| 55> MaxIter 1000
| 56> end
| 57>
| 58> * xyz 0 1
| 59>   C                    : 3.525039             -9.013006            5.976572
| 60>   O                    : 4.752287             -9.411188            6.515313
| 61>   H                    : 4.589304             -9.839890            7.341963
| 62>   H                    : 2.971183             -8.294431            6.716489
| 63>   H                    : 3.600566             -8.576698            4.959692
| 64>   H                    : 2.900982             -9.866116            5.721810
| 65>   C                      2.765020             -4.179074            5.805482
| 66>   O                      3.311683             -5.446056            6.177687
| 67>   H                      3.331339             -5.364676            7.148464
| 68>   H                      2.715584             -4.021929            4.701500
| 69>   H                      1.758848             -4.116859            6.285104
| 70>   H                      3.338024             -3.374553            6.326295
| 71> *
| 72>
| 73>                          ****END OF INPUT****
 Total Charge           Charge          ....    0
 Multiplicity           Mult            ....    1
 Number of Electrons    NEL             ....   36
Dispersion correction           -0.001244865
FINAL SINGLE POINT ENERGY      -231.461321136829
Dispersion correction           -0.000247679
FINAL SINGLE POINT ENERGY      -115.730005664818

CARTESIAN COORDINATES (ANGSTROEM)
---------------------------------
  C      3.525039   -9.013006    5.976572
  O      4.752287   -9.411188    6.515313
  H      4.589304   -9.839890    7.341963
  H      2.971183   -8.294431    6.716489
  H      3.600566   -8.576698    4.959692
  H      2.900982   -9.866116    5.721810
  C      2.765020   -4.179074    5.805482
  O      3.311683   -5.446056    6.177687
  H      3.331339   -5.364676    7.148464
  H      2.715584   -4.021929    4.701500
  H      1.758848   -4.116859    6.285104
  H      3.338024   -3.374553    6.326295

 Multiplicity           Mult            ....    1
 Number of Electrons    NEL             ....   18
 Basis Dimension        Dim             ....  172

ORBITAL ENERGIES
----------------

  NO   OCC          E(Eh)            E(eV)
   0   2.0000     -19.232563      -523.3447
   1   2.0000     -10.322437      -280.8878
   2   2.0000      -1.134183       -30.8627
   3   2.0000      -0.785689       -21.3797
   4   2.0000      -0.607004       -16.5174
   5   2.0000      -0.533848       -14.5267
   6   2.0000      -0.527520       -14.3546
   7   2.0000      -0.443694       -12.0735
   8   2.0000      -0.368549       -10.0287
   9   0.0000       0.094660         2.5758
  10   0.0000       0.115528         3.1437
  11   0.0000       0.155249         4.2246
  12   0.0000       0.174733         4.7547
  13   0.0000       0.194080         5.2812

MULLIKEN ATOMIC CHARGES
-----------------------
   0 C :    0.003472
   1 O :   -0.000105
   2 H :   -0.000031
   3 H :   -0.006928
   4 H :   -0.002073
   5 H :   -0.000302
   6 C :   -0.182539
   7 O :   -0.457647
   8 H :    0.314649
   9 H :    0.127899
  10 H :    0.102458
  11 H :    0.101148
Sum of atomic charges:   -0.0000000

LOEWDIN ATOMIC CHARGES
----------------------
   0 C :   -0.005438
   1 O :   -0.000023
   2 H :   -0.000005
   3 H :   -0.004602
   4 H :   -0.001149
   5 H :   -0.000039
   6 C :   -0.386371
   7 O :   -0.090884
   8 H :    0.180605
   9 H :    0.112616
  10 H :    0.097906
  11 H :    0.097385

  Mayer bond orders larger than 0.1
B(  6-C ,  7-O ) :   0.9876 B(  6-C ,  9-H ) :   0.9688 B(  6-C , 10-H ) :   0.9792
B(  6-C , 11-H ) :   0.9763 B(  7-O ,  8-H ) :   0.8985

Dispersion correction           -0.000218761
FINAL SINGLE POINT ENERGY      -115.731166095970

DIPOLE MOMENT
-------------
                                X             Y             Z
Electronic contribution:      0.75139      -1.67205       0.12347
Nuclear contribution   :     -0.95166       2.23210       0.32124
                        -----------------------------------------
Total Dipole Moment    :     -0.20027       0.56005       0.44471
                        -----------------------------------------
Magnitude (a.u.)       :      0.74265
Magnitude (Debye)      :      1.88766

Rotational constants in cm-1:     4.030270     0.831414     0.788200
Rotational constants in MHz : 120824.447134 24925.166102 23629.634311

                             ****ORCA TERMINATED NORMALLY****
TOTAL RUN TIME: 0 days 0 hours 1 minutes 21 seconds 141 msec
