                         Program Version 4.1.2  - RELEASE  -
|  1> #Run DFT-D3 single point of the dimer
|  2> ! wB97X-D3 def2-TZVP TIGHTSCF CHELPG PMODEL PAL8
|  3>
|  4> %base "8-130_DFT_AB"
|  5>
|  6> %scf
|  7> MaxIter 1000
|  8> end
|  9>
| 10> * xyz 0 1
| 11>   C                      -5.209357            -7.911210            -7.642439
| 12>   O                      -4.306561            -7.095879            -8.320891
| 13>   H                      -4.088143            -7.384407            -9.210955
| 14>   H                      -6.268734            -7.795851            -7.834305
| 15>   H                      -4.851726            -9.038732            -7.718675
| 16>   H                      -5.098145            -7.774347            -6.550540
| 17>   C                      -0.627074            -9.145021            -9.007416
| 18>   O                      -1.084823            -9.242164            -10.320754
| 19>   H                      -2.077982            -9.159469            -10.369740
| 20>   H                      0.428888             -8.890450            -8.926807
| 21>   H                      -1.131311            -8.277132            -8.558283
| 22>   H                      -0.992400            -9.981680            -8.508619
| 23> *
| 24>
| 25> #Run DFT-D3 single point of the molecule with dimer basis set
| 26> $new_job
| 27> %base "8-130_DFT_A"
| 28> ! wB97X-D3 def2-TZVP TIGHTSCF CHELPG PMODEL
| 29>
| 30> %scf
| 31> MaxIter 1000
| 32> end
| 33>
| 34> * xyz 0 1
| 35>   C                      -5.209357            -7.911210            -7.642439
| 36>   O                      -4.306561            -7.095879            -8.320891
| 37>   H                      -4.088143            -7.384407            -9.210955
| 38>   H                      -6.268734            -7.795851            -7.834305
| 39>   H                      -4.851726            -9.038732            -7.718675
| 40>   H                      -5.098145            -7.774347            -6.550540
| 41>   C                    : -0.627074            -9.145021            -9.007416
| 42>   O                    : -1.084823            -9.242164            -10.320754
| 43>   H                    : -2.077982            -9.159469            -10.369740
| 44>   H                    : 0.428888             -8.890450            -8.926807
| 45>   H                    : -1.131311            -8.277132            -8.558283
| 46>   H                    : -0.992400            -9.981680            -8.508619
| 47> *
| 48>
| 49> #Run DFT-D3 single point of the particle with dimer basis set
| 50> $new_job
| 51> %base "8-130_DFT_B"
| 52> ! wB97X-D3 def2-TZVP TIGHTSCF CHELPG PMODEL
| 53>
| 54> %scf
| 55> MaxIter 1000
| 56> end
| 57>
| 58> * xyz 0 1
| 59>   C                    : -5.209357            -7.911210            -7.642439
| 60>   O                    : -4.306561            -7.095879            -8.320891
| 61>   H                    : -4.088143            -7.384407            -9.210955
| 62>   H                    : -6.268734            -7.795851            -7.834305
| 63>   H                    : -4.851726            -9.038732            -7.718675
| 64>   H                    : -5.098145            -7.774347            -6.550540
| 65>   C                      -0.627074            -9.145021            -9.007416
| 66>   O                      -1.084823            -9.242164            -10.320754
| 67>   H                      -2.077982            -9.159469            -10.369740
| 68>   H                      0.428888             -8.890450            -8.926807
| 69>   H                      -1.131311            -8.277132            -8.558283
| 70>   H                      -0.992400            -9.981680            -8.508619
| 71> *
| 72>
| 73>                          ****END OF INPUT****
 Total Charge           Charge          ....    0
 Multiplicity           Mult            ....    1
 Number of Electrons    NEL             ....   36
Dispersion correction           -0.001315568
FINAL SINGLE POINT ENERGY      -231.454922523335
Dispersion correction           -0.000276838
FINAL SINGLE POINT ENERGY      -115.728425058786

CARTESIAN COORDINATES (ANGSTROEM)
---------------------------------
  C     -5.209357   -7.911210   -7.642439
  O     -4.306561   -7.095879   -8.320891
  H     -4.088143   -7.384407   -9.210955
  H     -6.268734   -7.795851   -7.834305
  H     -4.851726   -9.038732   -7.718675
  H     -5.098145   -7.774347   -6.550540
  C     -0.627074   -9.145021   -9.007416
  O     -1.084823   -9.242164  -10.320754
  H     -2.077982   -9.159469  -10.369740
  H      0.428888   -8.890450   -8.926807
  H     -1.131311   -8.277132   -8.558283
  H     -0.992400   -9.981680   -8.508619

 Multiplicity           Mult            ....    1
 Number of Electrons    NEL             ....   18
 Basis Dimension        Dim             ....  172

ORBITAL ENERGIES
----------------

  NO   OCC          E(Eh)            E(eV)
   0   2.0000     -19.225462      -523.1514
   1   2.0000     -10.305022      -280.4139
   2   2.0000      -1.131311       -30.7845
   3   2.0000      -0.794321       -21.6146
   4   2.0000      -0.608598       -16.5608
   5   2.0000      -0.558911       -15.2087
   6   2.0000      -0.525748       -14.3063
   7   2.0000      -0.422224       -11.4893
   8   2.0000      -0.365995        -9.9592
   9   0.0000       0.069175         1.8824
  10   0.0000       0.117184         3.1887
  11   0.0000       0.153869         4.1870
  12   0.0000       0.165803         4.5117
  13   0.0000       0.192327         5.2335

MULLIKEN ATOMIC CHARGES
-----------------------
   0 C :   -0.000158
   1 O :    0.000141
   2 H :   -0.000876
   3 H :    0.000000
   4 H :   -0.000005
   5 H :   -0.000019
   6 C :   -0.151785
   7 O :   -0.490020
   8 H :    0.319440
   9 H :    0.123951
  10 H :    0.091246
  11 H :    0.108085
Sum of atomic charges:    0.0000000

LOEWDIN ATOMIC CHARGES
----------------------
   0 C :   -0.000227
   1 O :   -0.000365
   2 H :   -0.001068
   3 H :   -0.000003
   4 H :   -0.000045
   5 H :   -0.000012
   6 C :   -0.391529
   7 O :   -0.087943
   8 H :    0.190518
   9 H :    0.109860
  10 H :    0.095448
  11 H :    0.085366

  Mayer bond orders larger than 0.1
B(  6-C ,  7-O ) :   0.9853 B(  6-C ,  9-H ) :   0.9663 B(  6-C , 10-H ) :   0.9882
B(  6-C , 11-H ) :   0.9845 B(  7-O ,  8-H ) :   0.8902

Dispersion correction           -0.000209842
FINAL SINGLE POINT ENERGY      -115.726684362378

DIPOLE MOMENT
-------------
                                X             Y             Z
Electronic contribution:     -0.26565      -0.29398      -1.67557
Nuclear contribution   :     -0.18213       0.40372       2.17759
                        -----------------------------------------
Total Dipole Moment    :     -0.44779       0.10974       0.50202
                        -----------------------------------------
Magnitude (a.u.)       :      0.68160
Magnitude (Debye)      :      1.73249

Rotational constants in cm-1:     4.329913     0.858000     0.822710
Rotational constants in MHz : 129807.519701 25722.192879 24664.229439

                             ****ORCA TERMINATED NORMALLY****
TOTAL RUN TIME: 0 days 0 hours 0 minutes 43 seconds 121 msec
