                         Program Version 4.1.2  - RELEASE  -
|  1> #Run DFT-D3 single point of the dimer
|  2> ! wB97X-D3 def2-TZVP TIGHTSCF CHELPG PMODEL PAL8
|  3>
|  4> %base "9-176_DFT_AB"
|  5>
|  6> %scf
|  7> MaxIter 1000
|  8> end
|  9>
| 10> * xyz 0 1
| 11>   C                      0.662464             5.760091             -2.092293
| 12>   O                      -0.353807            5.728340             -1.234507
| 13>   H                      -1.200621            5.808599             -1.696995
| 14>   H                      1.466526             5.126160             -1.819299
| 15>   H                      0.339278             5.312765             -3.046957
| 16>   H                      1.071507             6.785773             -2.309820
| 17>   C                      -3.561589            5.623391             -3.331351
| 18>   O                      -3.120860            5.579767             -2.011548
| 19>   H                      -3.818249            5.950726             -1.462350
| 20>   H                      -3.094282            4.848925             -3.971790
| 21>   H                      -4.606795            5.456275             -3.438757
| 22>   H                      -3.368484            6.524600             -3.853765
| 23> *
| 24>
| 25> #Run DFT-D3 single point of the molecule with dimer basis set
| 26> $new_job
| 27> %base "9-176_DFT_A"
| 28> ! wB97X-D3 def2-TZVP TIGHTSCF CHELPG PMODEL
| 29>
| 30> %scf
| 31> MaxIter 1000
| 32> end
| 33>
| 34> * xyz 0 1
| 35>   C                      0.662464             5.760091             -2.092293
| 36>   O                      -0.353807            5.728340             -1.234507
| 37>   H                      -1.200621            5.808599             -1.696995
| 38>   H                      1.466526             5.126160             -1.819299
| 39>   H                      0.339278             5.312765             -3.046957
| 40>   H                      1.071507             6.785773             -2.309820
| 41>   C                    : -3.561589            5.623391             -3.331351
| 42>   O                    : -3.120860            5.579767             -2.011548
| 43>   H                    : -3.818249            5.950726             -1.462350
| 44>   H                    : -3.094282            4.848925             -3.971790
| 45>   H                    : -4.606795            5.456275             -3.438757
| 46>   H                    : -3.368484            6.524600             -3.853765
| 47> *
| 48>
| 49> #Run DFT-D3 single point of the particle with dimer basis set
| 50> $new_job
| 51> %base "9-176_DFT_B"
| 52> ! wB97X-D3 def2-TZVP TIGHTSCF CHELPG PMODEL
| 53>
| 54> %scf
| 55> MaxIter 1000
| 56> end
| 57>
| 58> * xyz 0 1
| 59>   C                    : 0.662464             5.760091             -2.092293
| 60>   O                    : -0.353807            5.728340             -1.234507
| 61>   H                    : -1.200621            5.808599             -1.696995
| 62>   H                    : 1.466526             5.126160             -1.819299
| 63>   H                    : 0.339278             5.312765             -3.046957
| 64>   H                    : 1.071507             6.785773             -2.309820
| 65>   C                      -3.561589            5.623391             -3.331351
| 66>   O                      -3.120860            5.579767             -2.011548
| 67>   H                      -3.818249            5.950726             -1.462350
| 68>   H                      -3.094282            4.848925             -3.971790
| 69>   H                      -4.606795            5.456275             -3.438757
| 70>   H                      -3.368484            6.524600             -3.853765
| 71> *
| 72>
| 73>                          ****END OF INPUT****
 Total Charge           Charge          ....    0
 Multiplicity           Mult            ....    1
 Number of Electrons    NEL             ....   36
Dispersion correction           -0.001624287
FINAL SINGLE POINT ENERGY      -231.470051235681
Dispersion correction           -0.000222591
FINAL SINGLE POINT ENERGY      -115.728846064745

CARTESIAN COORDINATES (ANGSTROEM)
---------------------------------
  C      0.662464    5.760091   -2.092293
  O     -0.353807    5.728340   -1.234507
  H     -1.200621    5.808599   -1.696995
  H      1.466526    5.126160   -1.819299
  H      0.339278    5.312765   -3.046957
  H      1.071507    6.785773   -2.309820
  C     -3.561589    5.623391   -3.331351
  O     -3.120860    5.579767   -2.011548
  H     -3.818249    5.950726   -1.462350
  H     -3.094282    4.848925   -3.971790
  H     -4.606795    5.456275   -3.438757
  H     -3.368484    6.524600   -3.853765

 Multiplicity           Mult            ....    1
 Number of Electrons    NEL             ....   18
 Basis Dimension        Dim             ....  172

ORBITAL ENERGIES
----------------

  NO   OCC          E(Eh)            E(eV)
   0   2.0000     -19.233935      -523.3820
   1   2.0000     -10.305457      -280.4257
   2   2.0000      -1.144479       -31.1429
   3   2.0000      -0.800912       -21.7939
   4   2.0000      -0.620941       -16.8967
   5   2.0000      -0.544422       -14.8145
   6   2.0000      -0.530342       -14.4314
   7   2.0000      -0.433326       -11.7914
   8   2.0000      -0.375463       -10.2169
   9   0.0000       0.098222         2.6728
  10   0.0000       0.122251         3.3266
  11   0.0000       0.150549         4.0967
  12   0.0000       0.193186         5.2569
  13   0.0000       0.200088         5.4447

MULLIKEN ATOMIC CHARGES
-----------------------
   0 C :    0.000637
   1 O :    0.000738
   2 H :   -0.011585
   3 H :   -0.000021
   4 H :    0.000184
   5 H :   -0.000021
   6 C :   -0.164378
   7 O :   -0.466377
   8 H :    0.317343
   9 H :    0.113011
  10 H :    0.105672
  11 H :    0.104796
Sum of atomic charges:    0.0000000

LOEWDIN ATOMIC CHARGES
----------------------
   0 C :   -0.000926
   1 O :   -0.005896
   2 H :   -0.041258
   3 H :   -0.000017
   4 H :   -0.000098
   5 H :   -0.000013
   6 C :   -0.400035
   7 O :   -0.017790
   8 H :    0.174953
   9 H :    0.111398
  10 H :    0.091946
  11 H :    0.087734

  Mayer bond orders larger than 0.1
B(  6-C ,  7-O ) :   0.9928 B(  6-C ,  9-H ) :   0.9782 B(  6-C , 10-H ) :   0.9773
B(  6-C , 11-H ) :   0.9751 B(  7-O ,  8-H ) :   0.8956

Dispersion correction           -0.000240042
FINAL SINGLE POINT ENERGY      -115.733345622233

DIPOLE MOMENT
-------------
                                X             Y             Z
Electronic contribution:      0.70531      -0.07040       1.80502
Nuclear contribution   :     -1.34834       0.31663      -1.97248
                        -----------------------------------------
Total Dipole Moment    :     -0.64303       0.24623      -0.16746
                        -----------------------------------------
Magnitude (a.u.)       :      0.70863
Magnitude (Debye)      :      1.80120

Rotational constants in cm-1:     4.572842     0.844866     0.811597
Rotational constants in MHz : 137090.347688 25328.443783 24331.051004

                             ****ORCA TERMINATED NORMALLY****
TOTAL RUN TIME: 0 days 0 hours 0 minutes 47 seconds 972 msec
