                         Program Version 4.1.2  - RELEASE  -
|  1> #Run DFT-D3 single point of the dimer
|  2> ! wB97X-D3 def2-TZVP TIGHTSCF CHELPG PMODEL PAL8
|  3>
|  4> %base "7-212_DFT_AB"
|  5>
|  6> %scf
|  7> MaxIter 1000
|  8> end
|  9>
| 10> * xyz 0 1
| 11>   C                      -5.975192            -6.182444            -5.476440
| 12>   O                      -6.530866            -7.490303            -5.501899
| 13>   H                      -6.134978            -7.865174            -6.339371
| 14>   H                      -6.314522            -5.523298            -4.687969
| 15>   H                      -4.854872            -6.273809            -5.430052
| 16>   H                      -6.189006            -5.749936            -6.435882
| 17>   C                      -6.077716            -9.421946            -2.967837
| 18>   O                      -6.450177            -10.038575           -4.205301
| 19>   H                      -7.046259            -9.445821            -4.686895
| 20>   H                      -6.669234            -9.761680            -2.184673
| 21>   H                      -5.055385            -9.563559            -2.656064
| 22>   H                      -6.316235            -8.326180            -3.115929
| 23> *
| 24>
| 25> #Run DFT-D3 single point of the molecule with dimer basis set
| 26> $new_job
| 27> %base "7-212_DFT_A"
| 28> ! wB97X-D3 def2-TZVP TIGHTSCF CHELPG PMODEL
| 29>
| 30> %scf
| 31> MaxIter 1000
| 32> end
| 33>
| 34> * xyz 0 1
| 35>   C                      -5.975192            -6.182444            -5.476440
| 36>   O                      -6.530866            -7.490303            -5.501899
| 37>   H                      -6.134978            -7.865174            -6.339371
| 38>   H                      -6.314522            -5.523298            -4.687969
| 39>   H                      -4.854872            -6.273809            -5.430052
| 40>   H                      -6.189006            -5.749936            -6.435882
| 41>   C                    : -6.077716            -9.421946            -2.967837
| 42>   O                    : -6.450177            -10.038575           -4.205301
| 43>   H                    : -7.046259            -9.445821            -4.686895
| 44>   H                    : -6.669234            -9.761680            -2.184673
| 45>   H                    : -5.055385            -9.563559            -2.656064
| 46>   H                    : -6.316235            -8.326180            -3.115929
| 47> *
| 48>
| 49> #Run DFT-D3 single point of the particle with dimer basis set
| 50> $new_job
| 51> %base "7-212_DFT_B"
| 52> ! wB97X-D3 def2-TZVP TIGHTSCF CHELPG PMODEL
| 53>
| 54> %scf
| 55> MaxIter 1000
| 56> end
| 57>
| 58> * xyz 0 1
| 59>   C                    : -5.975192            -6.182444            -5.476440
| 60>   O                    : -6.530866            -7.490303            -5.501899
| 61>   H                    : -6.134978            -7.865174            -6.339371
| 62>   H                    : -6.314522            -5.523298            -4.687969
| 63>   H                    : -4.854872            -6.273809            -5.430052
| 64>   H                    : -6.189006            -5.749936            -6.435882
| 65>   C                      -6.077716            -9.421946            -2.967837
| 66>   O                      -6.450177            -10.038575           -4.205301
| 67>   H                      -7.046259            -9.445821            -4.686895
| 68>   H                      -6.669234            -9.761680            -2.184673
| 69>   H                      -5.055385            -9.563559            -2.656064
| 70>   H                      -6.316235            -8.326180            -3.115929
| 71> *
| 72>
| 73>                          ****END OF INPUT****
 Total Charge           Charge          ....    0
 Multiplicity           Mult            ....    1
 Number of Electrons    NEL             ....   36
Dispersion correction           -0.001897085
FINAL SINGLE POINT ENERGY      -231.464943205953
Dispersion correction           -0.000213263
FINAL SINGLE POINT ENERGY      -115.730192807888

CARTESIAN COORDINATES (ANGSTROEM)
---------------------------------
  C     -5.975192   -6.182444   -5.476440
  O     -6.530866   -7.490303   -5.501899
  H     -6.134978   -7.865174   -6.339371
  H     -6.314522   -5.523298   -4.687969
  H     -4.854872   -6.273809   -5.430052
  H     -6.189006   -5.749936   -6.435882
  C     -6.077716   -9.421946   -2.967837
  O     -6.450177  -10.038575   -4.205301
  H     -7.046259   -9.445821   -4.686895
  H     -6.669234   -9.761680   -2.184673
  H     -5.055385   -9.563559   -2.656064
  H     -6.316235   -8.326180   -3.115929

 Multiplicity           Mult            ....    1
 Number of Electrons    NEL             ....   18
 Basis Dimension        Dim             ....  172

ORBITAL ENERGIES
----------------

  NO   OCC          E(Eh)            E(eV)
   0   2.0000     -19.229316      -523.2563
   1   2.0000     -10.311943      -280.6022
   2   2.0000      -1.128267       -30.7017
   3   2.0000      -0.799361       -21.7517
   4   2.0000      -0.604571       -16.4512
   5   2.0000      -0.541819       -14.7436
   6   2.0000      -0.538329       -14.6487
   7   2.0000      -0.426353       -11.6017
   8   2.0000      -0.374298       -10.1852
   9   0.0000       0.073233         1.9928
  10   0.0000       0.125970         3.4278
  11   0.0000       0.146804         3.9947
  12   0.0000       0.172975         4.7069
  13   0.0000       0.194262         5.2861

MULLIKEN ATOMIC CHARGES
-----------------------
   0 C :    0.001532
   1 O :   -0.007211
   2 H :   -0.003063
   3 H :   -0.000559
   4 H :   -0.000420
   5 H :    0.000062
   6 C :   -0.161629
   7 O :   -0.477837
   8 H :    0.320774
   9 H :    0.115314
  10 H :    0.118299
  11 H :    0.094737
Sum of atomic charges:   -0.0000000

LOEWDIN ATOMIC CHARGES
----------------------
   0 C :   -0.003121
   1 O :   -0.016869
   2 H :   -0.003624
   3 H :   -0.000337
   4 H :   -0.000135
   5 H :   -0.000037
   6 C :   -0.358889
   7 O :   -0.086339
   8 H :    0.175646
   9 H :    0.084316
  10 H :    0.101509
  11 H :    0.107880

  Mayer bond orders larger than 0.1
B(  6-C ,  7-O ) :   0.9924 B(  6-C ,  9-H ) :   0.9786 B(  6-C , 10-H ) :   0.9702
B(  6-C , 11-H ) :   0.9946 B(  7-O ,  8-H ) :   0.8986

Dispersion correction           -0.000239773
FINAL SINGLE POINT ENERGY      -115.729596521086

DIPOLE MOMENT
-------------
                                X             Y             Z
Electronic contribution:     -0.28570      -1.02336      -1.44934
Nuclear contribution   :      0.05889       1.63490       1.67662
                        -----------------------------------------
Total Dipole Moment    :     -0.22681       0.61154       0.22728
                        -----------------------------------------
Magnitude (a.u.)       :      0.69071
Magnitude (Debye)      :      1.75565

Rotational constants in cm-1:     4.372028     0.821382     0.782453
Rotational constants in MHz : 131070.109152 24624.409262 23457.348342

                             ****ORCA TERMINATED NORMALLY****
TOTAL RUN TIME: 0 days 0 hours 1 minutes 6 seconds 645 msec
