                         Program Version 4.1.2  - RELEASE  -
|  1> #Run DFT-D3 single point of the dimer
|  2> ! wB97X-D3 def2-TZVP TIGHTSCF CHELPG PMODEL PAL8
|  3>
|  4> %base "7-185_DFT_AB"
|  5>
|  6> %scf
|  7> MaxIter 1000
|  8> end
|  9>
| 10> * xyz 0 1
| 11>   C                      -10.366333           9.400364             4.873024
| 12>   O                      -9.797859            8.155894             5.312416
| 13>   H                      -9.687546            8.081210             6.256478
| 14>   H                      -9.800704            10.228057            5.250804
| 15>   H                      -10.356732           9.413983             3.799430
| 16>   H                      -11.441551           9.558626             5.335335
| 17>   C                      -11.295443           9.223032             8.700884
| 18>   O                      -9.892847            9.093159             8.688448
| 19>   H                      -9.680646            8.187656             8.839787
| 20>   H                      -11.743624           9.018829             7.762429
| 21>   H                      -11.616767           8.333848             9.275435
| 22>   H                      -11.685365           10.165059            9.078397
| 23> *
| 24>
| 25> #Run DFT-D3 single point of the molecule with dimer basis set
| 26> $new_job
| 27> %base "7-185_DFT_A"
| 28> ! wB97X-D3 def2-TZVP TIGHTSCF CHELPG PMODEL
| 29>
| 30> %scf
| 31> MaxIter 1000
| 32> end
| 33>
| 34> * xyz 0 1
| 35>   C                      -10.366333           9.400364             4.873024
| 36>   O                      -9.797859            8.155894             5.312416
| 37>   H                      -9.687546            8.081210             6.256478
| 38>   H                      -9.800704            10.228057            5.250804
| 39>   H                      -10.356732           9.413983             3.799430
| 40>   H                      -11.441551           9.558626             5.335335
| 41>   C                    : -11.295443           9.223032             8.700884
| 42>   O                    : -9.892847            9.093159             8.688448
| 43>   H                    : -9.680646            8.187656             8.839787
| 44>   H                    : -11.743624           9.018829             7.762429
| 45>   H                    : -11.616767           8.333848             9.275435
| 46>   H                    : -11.685365           10.165059            9.078397
| 47> *
| 48>
| 49> #Run DFT-D3 single point of the particle with dimer basis set
| 50> $new_job
| 51> %base "7-185_DFT_B"
| 52> ! wB97X-D3 def2-TZVP TIGHTSCF CHELPG PMODEL
| 53>
| 54> %scf
| 55> MaxIter 1000
| 56> end
| 57>
| 58> * xyz 0 1
| 59>   C                    : -10.366333           9.400364             4.873024
| 60>   O                    : -9.797859            8.155894             5.312416
| 61>   H                    : -9.687546            8.081210             6.256478
| 62>   H                    : -9.800704            10.228057            5.250804
| 63>   H                    : -10.356732           9.413983             3.799430
| 64>   H                    : -11.441551           9.558626             5.335335
| 65>   C                      -11.295443           9.223032             8.700884
| 66>   O                      -9.892847            9.093159             8.688448
| 67>   H                      -9.680646            8.187656             8.839787
| 68>   H                      -11.743624           9.018829             7.762429
| 69>   H                      -11.616767           8.333848             9.275435
| 70>   H                      -11.685365           10.165059            9.078397
| 71> *
| 72>
| 73>                          ****END OF INPUT****
 Total Charge           Charge          ....    0
 Multiplicity           Mult            ....    1
 Number of Electrons    NEL             ....   36
Dispersion correction           -0.002093149
FINAL SINGLE POINT ENERGY      -231.462974511507
Dispersion correction           -0.000267349
FINAL SINGLE POINT ENERGY      -115.731024219701

CARTESIAN COORDINATES (ANGSTROEM)
---------------------------------
  C    -10.366333    9.400364    4.873024
  O     -9.797859    8.155894    5.312416
  H     -9.687546    8.081210    6.256478
  H     -9.800704   10.228057    5.250804
  H    -10.356732    9.413983    3.799430
  H    -11.441551    9.558626    5.335335
  C    -11.295443    9.223032    8.700884
  O     -9.892847    9.093159    8.688448
  H     -9.680646    8.187656    8.839787
  H    -11.743624    9.018829    7.762429
  H    -11.616767    8.333848    9.275435
  H    -11.685365   10.165059    9.078397

 Multiplicity           Mult            ....    1
 Number of Electrons    NEL             ....   18
 Basis Dimension        Dim             ....  172

ORBITAL ENERGIES
----------------

  NO   OCC          E(Eh)            E(eV)
   0   2.0000     -19.227861      -523.2167
   1   2.0000     -10.311392      -280.5872
   2   2.0000      -1.142374       -31.0856
   3   2.0000      -0.799538       -21.7565
   4   2.0000      -0.617582       -16.8053
   5   2.0000      -0.543030       -14.7766
   6   2.0000      -0.537804       -14.6344
   7   2.0000      -0.430785       -11.7223
   8   2.0000      -0.371301       -10.1036
   9   0.0000       0.089961         2.4480
  10   0.0000       0.121092         3.2951
  11   0.0000       0.155256         4.2247
  12   0.0000       0.176543         4.8040
  13   0.0000       0.196736         5.3535

MULLIKEN ATOMIC CHARGES
-----------------------
   0 C :    0.004743
   1 O :    0.001326
   2 H :   -0.012808
   3 H :   -0.001734
   4 H :    0.000109
   5 H :    0.000260
   6 C :   -0.168623
   7 O :   -0.464059
   8 H :    0.315963
   9 H :    0.105362
  10 H :    0.097843
  11 H :    0.121618
Sum of atomic charges:   -0.0000000

LOEWDIN ATOMIC CHARGES
----------------------
   0 C :   -0.002972
   1 O :   -0.000757
   2 H :   -0.010281
   3 H :   -0.000545
   4 H :   -0.000015
   5 H :   -0.002945
   6 C :   -0.379148
   7 O :   -0.058488
   8 H :    0.159818
   9 H :    0.088519
  10 H :    0.101819
  11 H :    0.104995

  Mayer bond orders larger than 0.1
B(  6-C ,  7-O ) :   1.0006 B(  6-C ,  9-H ) :   0.9689 B(  6-C , 10-H ) :   1.0024
B(  6-C , 11-H ) :   0.9721 B(  7-O ,  8-H ) :   0.9011

Dispersion correction           -0.000223462
FINAL SINGLE POINT ENERGY      -115.728543053962

DIPOLE MOMENT
-------------
                                X             Y             Z
Electronic contribution:      1.81451       0.18922      -0.04298
Nuclear contribution   :     -2.24452      -0.73032       0.14822
                        -----------------------------------------
Total Dipole Moment    :     -0.43001      -0.54110       0.10524
                        -----------------------------------------
Magnitude (a.u.)       :      0.69912
Magnitude (Debye)      :      1.77702

Rotational constants in cm-1:     4.419878     0.847161     0.804548
Rotational constants in MHz : 132504.613994 25397.256306 24119.753272

                             ****ORCA TERMINATED NORMALLY****
TOTAL RUN TIME: 0 days 0 hours 1 minutes 11 seconds 777 msec
