                         Program Version 4.1.2  - RELEASE  -
|  1> #Run DFT-D3 single point of the dimer
|  2> ! wB97X-D3 def2-TZVP TIGHTSCF CHELPG PMODEL PAL8
|  3>
|  4> %base "8-49_DFT_AB"
|  5>
|  6> %scf
|  7> MaxIter 1000
|  8> end
|  9>
| 10> * xyz 0 1
| 11>   C                      10.151555            8.697992             -2.113844
| 12>   O                      8.907114             8.041381             -1.854696
| 13>   H                      8.176294             8.540252             -2.215552
| 14>   H                      10.937525            7.939530             -1.949895
| 15>   H                      10.135819            9.106653             -3.162596
| 16>   H                      10.323929            9.538655             -1.477755
| 17>   C                      9.208006             6.704164             1.585416
| 18>   O                      10.551471            7.123146             1.486354
| 19>   H                      11.019895            6.273951             1.568083
| 20>   H                      8.903538             7.129145             2.464059
| 21>   H                      8.576085             6.965224             0.737514
| 22>   H                      9.120026             5.587219             1.723918
| 23> *
| 24>
| 25> #Run DFT-D3 single point of the molecule with dimer basis set
| 26> $new_job
| 27> %base "8-49_DFT_A"
| 28> ! wB97X-D3 def2-TZVP TIGHTSCF CHELPG PMODEL
| 29>
| 30> %scf
| 31> MaxIter 1000
| 32> end
| 33>
| 34> * xyz 0 1
| 35>   C                      10.151555            8.697992             -2.113844
| 36>   O                      8.907114             8.041381             -1.854696
| 37>   H                      8.176294             8.540252             -2.215552
| 38>   H                      10.937525            7.939530             -1.949895
| 39>   H                      10.135819            9.106653             -3.162596
| 40>   H                      10.323929            9.538655             -1.477755
| 41>   C                    : 9.208006             6.704164             1.585416
| 42>   O                    : 10.551471            7.123146             1.486354
| 43>   H                    : 11.019895            6.273951             1.568083
| 44>   H                    : 8.903538             7.129145             2.464059
| 45>   H                    : 8.576085             6.965224             0.737514
| 46>   H                    : 9.120026             5.587219             1.723918
| 47> *
| 48>
| 49> #Run DFT-D3 single point of the particle with dimer basis set
| 50> $new_job
| 51> %base "8-49_DFT_B"
| 52> ! wB97X-D3 def2-TZVP TIGHTSCF CHELPG PMODEL
| 53>
| 54> %scf
| 55> MaxIter 1000
| 56> end
| 57>
| 58> * xyz 0 1
| 59>   C                    : 10.151555            8.697992             -2.113844
| 60>   O                    : 8.907114             8.041381             -1.854696
| 61>   H                    : 8.176294             8.540252             -2.215552
| 62>   H                    : 10.937525            7.939530             -1.949895
| 63>   H                    : 10.135819            9.106653             -3.162596
| 64>   H                    : 10.323929            9.538655             -1.477755
| 65>   C                      9.208006             6.704164             1.585416
| 66>   O                      10.551471            7.123146             1.486354
| 67>   H                      11.019895            6.273951             1.568083
| 68>   H                      8.903538             7.129145             2.464059
| 69>   H                      8.576085             6.965224             0.737514
| 70>   H                      9.120026             5.587219             1.723918
| 71> *
| 72>
| 73>                          ****END OF INPUT****
 Total Charge           Charge          ....    0
 Multiplicity           Mult            ....    1
 Number of Electrons    NEL             ....   36
Dispersion correction           -0.001534081
FINAL SINGLE POINT ENERGY      -231.463514110288
Dispersion correction           -0.000247146
FINAL SINGLE POINT ENERGY      -115.734959369186

CARTESIAN COORDINATES (ANGSTROEM)
---------------------------------
  C     10.151555    8.697992   -2.113844
  O      8.907114    8.041381   -1.854696
  H      8.176294    8.540252   -2.215552
  H     10.937525    7.939530   -1.949895
  H     10.135819    9.106653   -3.162596
  H     10.323929    9.538655   -1.477755
  C      9.208006    6.704164    1.585416
  O     10.551471    7.123146    1.486354
  H     11.019895    6.273951    1.568083
  H      8.903538    7.129145    2.464059
  H      8.576085    6.965224    0.737514
  H      9.120026    5.587219    1.723918

 Multiplicity           Mult            ....    1
 Number of Electrons    NEL             ....   18
 Basis Dimension        Dim             ....  172

ORBITAL ENERGIES
----------------

  NO   OCC          E(Eh)            E(eV)
   0   2.0000     -19.230892      -523.2992
   1   2.0000     -10.307549      -280.4827
   2   2.0000      -1.139332       -31.0028
   3   2.0000      -0.794333       -21.6149
   4   2.0000      -0.609254       -16.5786
   5   2.0000      -0.555284       -15.1101
   6   2.0000      -0.521747       -14.1975
   7   2.0000      -0.436575       -11.8798
   8   2.0000      -0.374372       -10.1872
   9   0.0000       0.089185         2.4268
  10   0.0000       0.114682         3.1207
  11   0.0000       0.150781         4.1030
  12   0.0000       0.178677         4.8621
  13   0.0000       0.188702         5.1348

MULLIKEN ATOMIC CHARGES
-----------------------
   0 C :    0.001489
   1 O :    0.000115
   2 H :   -0.000089
   3 H :   -0.002672
   4 H :   -0.000115
   5 H :   -0.000614
   6 C :   -0.174921
   7 O :   -0.465621
   8 H :    0.318387
   9 H :    0.116750
  10 H :    0.112137
  11 H :    0.095154
Sum of atomic charges:   -0.0000000

LOEWDIN ATOMIC CHARGES
----------------------
   0 C :   -0.002289
   1 O :   -0.001735
   2 H :   -0.000217
   3 H :   -0.001264
   4 H :   -0.000031
   5 H :   -0.000250
   6 C :   -0.384403
   7 O :   -0.079154
   8 H :    0.181750
   9 H :    0.085412
  10 H :    0.099576
  11 H :    0.102605

  Mayer bond orders larger than 0.1
B(  6-C ,  7-O ) :   1.0013 B(  6-C ,  9-H ) :   0.9853 B(  6-C , 10-H ) :   0.9676
B(  6-C , 11-H ) :   0.9897 B(  7-O ,  8-H ) :   0.9012

Dispersion correction           -0.000219677
FINAL SINGLE POINT ENERGY      -115.726553627082

DIPOLE MOMENT
-------------
                                X             Y             Z
Electronic contribution:      1.63820       0.79212      -0.19433
Nuclear contribution   :     -1.86191      -1.48780       0.30940
                        -----------------------------------------
Total Dipole Moment    :     -0.22371      -0.69568       0.11507
                        -----------------------------------------
Magnitude (a.u.)       :      0.73977
Magnitude (Debye)      :      1.88034

Rotational constants in cm-1:     4.280793     0.849840     0.813940
Rotational constants in MHz : 128334.952188 25477.576263 24401.320414

                             ****ORCA TERMINATED NORMALLY****
TOTAL RUN TIME: 0 days 0 hours 0 minutes 46 seconds 991 msec
