                         Program Version 4.1.2  - RELEASE  -
|  1> #Run DFT-D3 single point of the dimer
|  2> ! wB97X-D3 def2-TZVP TIGHTSCF  CHELPG PAL8
|  3>
|  4> %base "163_charges"
|  5>
|  6> %scf
|  7> MaxIter 1000
|  8> end
|  9> %output
| 10>   Print[ P_Mayer ] 1
| 11>   Print[ P_NatPop ] 1
| 12>   Print[ P_Hirshfeld ] 1
| 13>   Print[ P_Mulliken ] 1
| 14>   Print [ P_Loewdin ] 1
| 15> end
| 16>
| 17> * xyz 0 1
| 18>   C                      -8.529481            3.647370             -0.400500
| 19>   O                      -8.312321            2.931254             -1.592540
| 20>   H                      -8.247862            2.035745             -1.330550
| 21>   H                      -9.565273            3.846659             -0.263133
| 22>   H                      -8.190595            3.009083             0.366628
| 23>   H                      -8.045980            4.647079             -0.430023
| 24> *
| 25>
| 26>                          ****END OF INPUT****

CARTESIAN COORDINATES (ANGSTROEM)
---------------------------------
  C     -8.529481    3.647370   -0.400500
  O     -8.312321    2.931254   -1.592540
  H     -8.247862    2.035745   -1.330550
  H     -9.565273    3.846659   -0.263133
  H     -8.190595    3.009083    0.366628
  H     -8.045980    4.647079   -0.430023

 Total Charge           Charge          ....    0
 Multiplicity           Mult            ....    1
 Number of Electrons    NEL             ....   18
 Basis Dimension        Dim             ....   86

ORBITAL ENERGIES
----------------

  NO   OCC          E(Eh)            E(eV)
   0   2.0000     -19.224162      -523.1161
   1   2.0000     -10.306508      -280.4543
   2   2.0000      -1.144224       -31.1359
   3   2.0000      -0.798026       -21.7154
   4   2.0000      -0.616813       -16.7843
   5   2.0000      -0.547071       -14.8866
   6   2.0000      -0.532092       -14.4790
   7   2.0000      -0.436765       -11.8850
   8   2.0000      -0.370696       -10.0871
   9   0.0000       0.115110         3.1323
  10   0.0000       0.160626         4.3708
  11   0.0000       0.201438         5.4814
  12   0.0000       0.210383         5.7248
  13   0.0000       0.234001         6.3675

MULLIKEN ATOMIC CHARGES
-----------------------
   0 C :   -0.156050
   1 O :   -0.467103
   2 H :    0.309095
   3 H :    0.102293
   4 H :    0.100520
   5 H :    0.111244
Sum of atomic charges:   -0.0000000

LOEWDIN ATOMIC CHARGES
----------------------
   0 C :   -0.377566
   1 O :   -0.064654
   2 H :    0.153861
   3 H :    0.089268
   4 H :    0.089943
   5 H :    0.109147

  Mayer bond orders larger than 0.1
B(  0-C ,  1-O ) :   1.0076 B(  0-C ,  3-H ) :   0.9741 B(  0-C ,  4-H ) :   0.9968
B(  0-C ,  5-H ) :   0.9744 B(  1-O ,  2-H ) :   0.9092

Dispersion correction           -0.000214159
FINAL SINGLE POINT ENERGY      -115.730466279697

DIPOLE MOMENT
-------------
                                X             Y             Z
Electronic contribution:      0.30192      -0.77559      -1.52877
Nuclear contribution   :     -0.34939       0.47515       2.17964
                        -----------------------------------------
Total Dipole Moment    :     -0.04747      -0.30044       0.65087
                        -----------------------------------------
Magnitude (a.u.)       :      0.71844
Magnitude (Debye)      :      1.82613

Rotational constants in cm-1:     4.379165     0.857278     0.817406
Rotational constants in MHz : 131284.068075 25700.545562 24505.221350

                             ****ORCA TERMINATED NORMALLY****
TOTAL RUN TIME: 0 days 0 hours 0 minutes 41 seconds 651 msec
