                         Program Version 4.1.2  - RELEASE  -
|  1> #Run DFT-D3 single point of the dimer
|  2> ! wB97X-D3 def2-TZVP TIGHTSCF CHELPG PMODEL PAL8
|  3>
|  4> %base "13-47_DFT_AB"
|  5>
|  6> %scf
|  7> MaxIter 1000
|  8> end
|  9>
| 10> * xyz 0 1
| 11>   C                      8.962663             8.231957             5.425827
| 12>   O                      9.949730             9.224172             5.452284
| 13>   H                      10.724420            8.779643             5.024574
| 14>   H                      9.107767             7.617741             6.368248
| 15>   H                      7.926964             8.624352             5.397204
| 16>   H                      9.010763             7.567590             4.507931
| 17>   C                      6.917700             10.839953            3.191765
| 18>   O                      8.271262             10.653788            2.776351
| 19>   H                      8.399532             9.792571             2.456028
| 20>   H                      6.803520             11.005091            4.247233
| 21>   H                      6.668160             11.836343            2.849223
| 22>   H                      6.233742             10.158601            2.671462
| 23> *
| 24>
| 25> #Run DFT-D3 single point of the molecule with dimer basis set
| 26> $new_job
| 27> %base "13-47_DFT_A"
| 28> ! wB97X-D3 def2-TZVP TIGHTSCF CHELPG PMODEL
| 29>
| 30> %scf
| 31> MaxIter 1000
| 32> end
| 33>
| 34> * xyz 0 1
| 35>   C                      8.962663             8.231957             5.425827
| 36>   O                      9.949730             9.224172             5.452284
| 37>   H                      10.724420            8.779643             5.024574
| 38>   H                      9.107767             7.617741             6.368248
| 39>   H                      7.926964             8.624352             5.397204
| 40>   H                      9.010763             7.567590             4.507931
| 41>   C                    : 6.917700             10.839953            3.191765
| 42>   O                    : 8.271262             10.653788            2.776351
| 43>   H                    : 8.399532             9.792571             2.456028
| 44>   H                    : 6.803520             11.005091            4.247233
| 45>   H                    : 6.668160             11.836343            2.849223
| 46>   H                    : 6.233742             10.158601            2.671462
| 47> *
| 48>
| 49> #Run DFT-D3 single point of the particle with dimer basis set
| 50> $new_job
| 51> %base "13-47_DFT_B"
| 52> ! wB97X-D3 def2-TZVP TIGHTSCF CHELPG PMODEL
| 53>
| 54> %scf
| 55> MaxIter 1000
| 56> end
| 57>
| 58> * xyz 0 1
| 59>   C                    : 8.962663             8.231957             5.425827
| 60>   O                    : 9.949730             9.224172             5.452284
| 61>   H                    : 10.724420            8.779643             5.024574
| 62>   H                    : 9.107767             7.617741             6.368248
| 63>   H                    : 7.926964             8.624352             5.397204
| 64>   H                    : 9.010763             7.567590             4.507931
| 65>   C                      6.917700             10.839953            3.191765
| 66>   O                      8.271262             10.653788            2.776351
| 67>   H                      8.399532             9.792571             2.456028
| 68>   H                      6.803520             11.005091            4.247233
| 69>   H                      6.668160             11.836343            2.849223
| 70>   H                      6.233742             10.158601            2.671462
| 71> *
| 72>
| 73>                          ****END OF INPUT****
 Total Charge           Charge          ....    0
 Multiplicity           Mult            ....    1
 Number of Electrons    NEL             ....   36
Dispersion correction           -0.001886831
FINAL SINGLE POINT ENERGY      -231.459018522807
Dispersion correction           -0.000239272
FINAL SINGLE POINT ENERGY      -115.730789798140

CARTESIAN COORDINATES (ANGSTROEM)
---------------------------------
  C      8.962663    8.231957    5.425827
  O      9.949730    9.224172    5.452284
  H     10.724420    8.779643    5.024574
  H      9.107767    7.617741    6.368248
  H      7.926964    8.624352    5.397204
  H      9.010763    7.567590    4.507931
  C      6.917700   10.839953    3.191765
  O      8.271262   10.653788    2.776351
  H      8.399532    9.792571    2.456028
  H      6.803520   11.005091    4.247233
  H      6.668160   11.836343    2.849223
  H      6.233742   10.158601    2.671462

 Multiplicity           Mult            ....    1
 Number of Electrons    NEL             ....   18
 Basis Dimension        Dim             ....  172

ORBITAL ENERGIES
----------------

  NO   OCC          E(Eh)            E(eV)
   0   2.0000     -19.225991      -523.1658
   1   2.0000     -10.311437      -280.5885
   2   2.0000      -1.136542       -30.9269
   3   2.0000      -0.804300       -21.8861
   4   2.0000      -0.610602       -16.6153
   5   2.0000      -0.549977       -14.9656
   6   2.0000      -0.522471       -14.2172
   7   2.0000      -0.434494       -11.8232
   8   2.0000      -0.371593       -10.1116
   9   0.0000       0.082329         2.2403
  10   0.0000       0.131328         3.5736
  11   0.0000       0.148360         4.0371
  12   0.0000       0.175354         4.7716
  13   0.0000       0.187163         5.0930

MULLIKEN ATOMIC CHARGES
-----------------------
   0 C :   -0.009316
   1 O :    0.001231
   2 H :   -0.000043
   3 H :   -0.000290
   4 H :    0.001428
   5 H :    0.000110
   6 C :   -0.169387
   7 O :   -0.473365
   8 H :    0.310121
   9 H :    0.115366
  10 H :    0.113370
  11 H :    0.110775
Sum of atomic charges:    0.0000000

LOEWDIN ATOMIC CHARGES
----------------------
   0 C :   -0.005777
   1 O :   -0.001826
   2 H :   -0.000450
   3 H :   -0.000153
   4 H :   -0.001391
   5 H :   -0.000738
   6 C :   -0.371530
   7 O :   -0.066073
   8 H :    0.144008
   9 H :    0.097525
  10 H :    0.104983
  11 H :    0.101421

  Mayer bond orders larger than 0.1
B(  6-C ,  7-O ) :   1.0020 B(  6-C ,  9-H ) :   0.9743 B(  6-C , 10-H ) :   0.9829
B(  6-C , 11-H ) :   0.9796 B(  7-O ,  8-H ) :   0.9073

Dispersion correction           -0.000253021
FINAL SINGLE POINT ENERGY      -115.729141008745

DIPOLE MOMENT
-------------
                                X             Y             Z
Electronic contribution:      1.68164      -0.32973      -0.39659
Nuclear contribution   :     -2.17039      -0.11746       0.33015
                        -----------------------------------------
Total Dipole Moment    :     -0.48875      -0.44719      -0.06644
                        -----------------------------------------
Magnitude (a.u.)       :      0.66579
Magnitude (Debye)      :      1.69229

Rotational constants in cm-1:     4.439620     0.825633     0.787681
Rotational constants in MHz : 133096.455908 24751.840072 23614.080334

                             ****ORCA TERMINATED NORMALLY****
TOTAL RUN TIME: 0 days 0 hours 1 minutes 10 seconds 627 msec
