                         Program Version 4.1.2  - RELEASE  -
|  1> #Run DFT-D3 single point of the dimer
|  2> ! wB97X-D3 def2-TZVP TIGHTSCF CHELPG PMODEL PAL8
|  3>
|  4> %base "14-25_DFT_AB"
|  5>
|  6> %scf
|  7> MaxIter 1000
|  8> end
|  9>
| 10> * xyz 0 1
| 11>   C                      -0.612086            2.931693             -2.166030
| 12>   O                      -1.917891            3.394526             -2.096503
| 13>   H                      -2.283379            3.362468             -1.200627
| 14>   H                      -0.456620            1.838111             -2.061463
| 15>   H                      -0.083063            3.269453             -3.069938
| 16>   H                      -0.006313            3.238354             -1.311755
| 17>   C                      -2.126665            -0.208685            0.998271
| 18>   O                      -1.430245            -0.154038            2.216547
| 19>   H                      -0.941628            -0.970664            2.317989
| 20>   H                      -2.670236            -1.145597            0.868063
| 21>   H                      -2.929450            0.476689             0.924558
| 22>   H                      -1.504944            -0.030401            0.068087
| 23> *
| 24>
| 25> #Run DFT-D3 single point of the molecule with dimer basis set
| 26> $new_job
| 27> %base "14-25_DFT_A"
| 28> ! wB97X-D3 def2-TZVP TIGHTSCF CHELPG PMODEL
| 29>
| 30> %scf
| 31> MaxIter 1000
| 32> end
| 33>
| 34> * xyz 0 1
| 35>   C                      -0.612086            2.931693             -2.166030
| 36>   O                      -1.917891            3.394526             -2.096503
| 37>   H                      -2.283379            3.362468             -1.200627
| 38>   H                      -0.456620            1.838111             -2.061463
| 39>   H                      -0.083063            3.269453             -3.069938
| 40>   H                      -0.006313            3.238354             -1.311755
| 41>   C                    : -2.126665            -0.208685            0.998271
| 42>   O                    : -1.430245            -0.154038            2.216547
| 43>   H                    : -0.941628            -0.970664            2.317989
| 44>   H                    : -2.670236            -1.145597            0.868063
| 45>   H                    : -2.929450            0.476689             0.924558
| 46>   H                    : -1.504944            -0.030401            0.068087
| 47> *
| 48>
| 49> #Run DFT-D3 single point of the particle with dimer basis set
| 50> $new_job
| 51> %base "14-25_DFT_B"
| 52> ! wB97X-D3 def2-TZVP TIGHTSCF CHELPG PMODEL
| 53>
| 54> %scf
| 55> MaxIter 1000
| 56> end
| 57>
| 58> * xyz 0 1
| 59>   C                    : -0.612086            2.931693             -2.166030
| 60>   O                    : -1.917891            3.394526             -2.096503
| 61>   H                    : -2.283379            3.362468             -1.200627
| 62>   H                    : -0.456620            1.838111             -2.061463
| 63>   H                    : -0.083063            3.269453             -3.069938
| 64>   H                    : -0.006313            3.238354             -1.311755
| 65>   C                      -2.126665            -0.208685            0.998271
| 66>   O                      -1.430245            -0.154038            2.216547
| 67>   H                      -0.941628            -0.970664            2.317989
| 68>   H                      -2.670236            -1.145597            0.868063
| 69>   H                      -2.929450            0.476689             0.924558
| 70>   H                      -1.504944            -0.030401            0.068087
| 71> *
| 72>
| 73>                          ****END OF INPUT****
 Total Charge           Charge          ....    0
 Multiplicity           Mult            ....    1
 Number of Electrons    NEL             ....   36
Dispersion correction           -0.001107038
FINAL SINGLE POINT ENERGY      -231.465726440837
Dispersion correction           -0.000258881
FINAL SINGLE POINT ENERGY      -115.732120184483

CARTESIAN COORDINATES (ANGSTROEM)
---------------------------------
  C     -0.612086    2.931693   -2.166030
  O     -1.917891    3.394526   -2.096503
  H     -2.283379    3.362468   -1.200627
  H     -0.456620    1.838111   -2.061463
  H     -0.083063    3.269453   -3.069938
  H     -0.006313    3.238354   -1.311755
  C     -2.126665   -0.208685    0.998271
  O     -1.430245   -0.154038    2.216547
  H     -0.941628   -0.970664    2.317989
  H     -2.670236   -1.145597    0.868063
  H     -2.929450    0.476689    0.924558
  H     -1.504944   -0.030401    0.068087

 Multiplicity           Mult            ....    1
 Number of Electrons    NEL             ....   18
 Basis Dimension        Dim             ....  172

ORBITAL ENERGIES
----------------

  NO   OCC          E(Eh)            E(eV)
   0   2.0000     -19.234057      -523.3853
   1   2.0000     -10.312337      -280.6129
   2   2.0000      -1.141285       -31.0559
   3   2.0000      -0.799494       -21.7553
   4   2.0000      -0.614582       -16.7236
   5   2.0000      -0.539532       -14.6814
   6   2.0000      -0.532597       -14.4927
   7   2.0000      -0.429891       -11.6979
   8   2.0000      -0.376457       -10.2439
   9   0.0000       0.084597         2.3020
  10   0.0000       0.118910         3.2357
  11   0.0000       0.148235         4.0337
  12   0.0000       0.164071         4.4646
  13   0.0000       0.189524         5.1572

MULLIKEN ATOMIC CHARGES
-----------------------
   0 C :    0.000323
   1 O :   -0.000034
   2 H :   -0.000153
   3 H :   -0.000244
   4 H :    0.000031
   5 H :   -0.000033
   6 C :   -0.169701
   7 O :   -0.469567
   8 H :    0.319314
   9 H :    0.103078
  10 H :    0.120126
  11 H :    0.096860
Sum of atomic charges:    0.0000000

LOEWDIN ATOMIC CHARGES
----------------------
   0 C :   -0.000635
   1 O :   -0.000013
   2 H :   -0.000166
   3 H :   -0.001111
   4 H :   -0.000002
   5 H :   -0.000029
   6 C :   -0.400102
   7 O :   -0.063967
   8 H :    0.170389
   9 H :    0.095165
  10 H :    0.099309
  11 H :    0.101163

  Mayer bond orders larger than 0.1
B(  6-C ,  7-O ) :   1.0088 B(  6-C ,  9-H ) :   0.9798 B(  6-C , 10-H ) :   0.9729
B(  6-C , 11-H ) :   0.9709 B(  7-O ,  8-H ) :   0.8973

Dispersion correction           -0.000257649
FINAL SINGLE POINT ENERGY      -115.732678310387

DIPOLE MOMENT
-------------
                                X             Y             Z
Electronic contribution:      0.92138       0.24179       1.73220
Nuclear contribution   :     -0.92241      -0.78660      -2.12162
                        -----------------------------------------
Total Dipole Moment    :     -0.00102      -0.54481      -0.38942
                        -----------------------------------------
Magnitude (a.u.)       :      0.66967
Magnitude (Debye)      :      1.70218

Rotational constants in cm-1:     4.474060     0.820888     0.803473
Rotational constants in MHz : 134128.933545 24609.609119 24087.521768

                             ****ORCA TERMINATED NORMALLY****
TOTAL RUN TIME: 0 days 0 hours 1 minutes 4 seconds 32 msec
