                         Program Version 4.1.2  - RELEASE  -
|  1> #Run DFT-D3 single point of the dimer
|  2> ! wB97X-D3 def2-TZVP TIGHTSCF CHELPG PMODEL PAL8
|  3>
|  4> %base "9-165_DFT_AB"
|  5>
|  6> %scf
|  7> MaxIter 1000
|  8> end
|  9>
| 10> * xyz 0 1
| 11>   C                      -5.140939            2.584717             -8.729847
| 12>   O                      -6.445005            2.920000             -8.282105
| 13>   H                      -6.808157            2.021269             -8.135481
| 14>   H                      -4.483177            3.504714             -8.792591
| 15>   H                      -4.745012            1.765250             -8.084287
| 16>   H                      -5.108222            2.105289             -9.689092
| 17>   C                      -4.723180            2.478515             -4.752313
| 18>   O                      -5.544233            3.373510             -5.366435
| 19>   H                      -5.971417            2.996121             -6.150473
| 20>   H                      -5.273834            1.547178             -4.698938
| 21>   H                      -3.747039            2.419369             -5.248474
| 22>   H                      -4.535337            2.705505             -3.659405
| 23> *
| 24>
| 25> #Run DFT-D3 single point of the molecule with dimer basis set
| 26> $new_job
| 27> %base "9-165_DFT_A"
| 28> ! wB97X-D3 def2-TZVP TIGHTSCF CHELPG PMODEL
| 29>
| 30> %scf
| 31> MaxIter 1000
| 32> end
| 33>
| 34> * xyz 0 1
| 35>   C                      -5.140939            2.584717             -8.729847
| 36>   O                      -6.445005            2.920000             -8.282105
| 37>   H                      -6.808157            2.021269             -8.135481
| 38>   H                      -4.483177            3.504714             -8.792591
| 39>   H                      -4.745012            1.765250             -8.084287
| 40>   H                      -5.108222            2.105289             -9.689092
| 41>   C                    : -4.723180            2.478515             -4.752313
| 42>   O                    : -5.544233            3.373510             -5.366435
| 43>   H                    : -5.971417            2.996121             -6.150473
| 44>   H                    : -5.273834            1.547178             -4.698938
| 45>   H                    : -3.747039            2.419369             -5.248474
| 46>   H                    : -4.535337            2.705505             -3.659405
| 47> *
| 48>
| 49> #Run DFT-D3 single point of the particle with dimer basis set
| 50> $new_job
| 51> %base "9-165_DFT_B"
| 52> ! wB97X-D3 def2-TZVP TIGHTSCF CHELPG PMODEL
| 53>
| 54> %scf
| 55> MaxIter 1000
| 56> end
| 57>
| 58> * xyz 0 1
| 59>   C                    : -5.140939            2.584717             -8.729847
| 60>   O                    : -6.445005            2.920000             -8.282105
| 61>   H                    : -6.808157            2.021269             -8.135481
| 62>   H                    : -4.483177            3.504714             -8.792591
| 63>   H                    : -4.745012            1.765250             -8.084287
| 64>   H                    : -5.108222            2.105289             -9.689092
| 65>   C                      -4.723180            2.478515             -4.752313
| 66>   O                      -5.544233            3.373510             -5.366435
| 67>   H                      -5.971417            2.996121             -6.150473
| 68>   H                      -5.273834            1.547178             -4.698938
| 69>   H                      -3.747039            2.419369             -5.248474
| 70>   H                      -4.535337            2.705505             -3.659405
| 71> *
| 72>
| 73>                          ****END OF INPUT****
 Total Charge           Charge          ....    0
 Multiplicity           Mult            ....    1
 Number of Electrons    NEL             ....   36
Dispersion correction           -0.001973253
FINAL SINGLE POINT ENERGY      -231.465247566248
Dispersion correction           -0.000224168
FINAL SINGLE POINT ENERGY      -115.729962455172

CARTESIAN COORDINATES (ANGSTROEM)
---------------------------------
  C     -5.140939    2.584717   -8.729847
  O     -6.445005    2.920000   -8.282105
  H     -6.808157    2.021269   -8.135481
  H     -4.483177    3.504714   -8.792591
  H     -4.745012    1.765250   -8.084287
  H     -5.108222    2.105289   -9.689092
  C     -4.723180    2.478515   -4.752313
  O     -5.544233    3.373510   -5.366435
  H     -5.971417    2.996121   -6.150473
  H     -5.273834    1.547178   -4.698938
  H     -3.747039    2.419369   -5.248474
  H     -4.535337    2.705505   -3.659405

 Multiplicity           Mult            ....    1
 Number of Electrons    NEL             ....   18
 Basis Dimension        Dim             ....  172

ORBITAL ENERGIES
----------------

  NO   OCC          E(Eh)            E(eV)
   0   2.0000     -19.228792      -523.2420
   1   2.0000     -10.311313      -280.5851
   2   2.0000      -1.149954       -31.2918
   3   2.0000      -0.791536       -21.5388
   4   2.0000      -0.616790       -16.7837
   5   2.0000      -0.557380       -15.1671
   6   2.0000      -0.533262       -14.5108
   7   2.0000      -0.413907       -11.2630
   8   2.0000      -0.372494       -10.1361
   9   0.0000       0.069984         1.9044
  10   0.0000       0.137859         3.7513
  11   0.0000       0.143136         3.8949
  12   0.0000       0.170260         4.6330
  13   0.0000       0.197481         5.3737

MULLIKEN ATOMIC CHARGES
-----------------------
   0 C :   -0.010075
   1 O :    0.001176
   2 H :   -0.000502
   3 H :    0.000799
   4 H :    0.000897
   5 H :   -0.000440
   6 C :   -0.155322
   7 O :   -0.463293
   8 H :    0.319148
   9 H :    0.098979
  10 H :    0.097460
  11 H :    0.111173
Sum of atomic charges:    0.0000000

LOEWDIN ATOMIC CHARGES
----------------------
   0 C :   -0.008816
   1 O :   -0.008924
   2 H :   -0.002038
   3 H :   -0.000575
   4 H :   -0.001283
   5 H :   -0.000196
   6 C :   -0.429201
   7 O :   -0.034622
   8 H :    0.183943
   9 H :    0.094253
  10 H :    0.093735
  11 H :    0.113723

  Mayer bond orders larger than 0.1
B(  6-C ,  7-O ) :   1.0047 B(  6-C ,  9-H ) :   0.9939 B(  6-C , 10-H ) :   0.9721
B(  6-C , 11-H ) :   0.9687 B(  7-O ,  8-H ) :   0.8943

Dispersion correction           -0.000225324
FINAL SINGLE POINT ENERGY      -115.730669801005

DIPOLE MOMENT
-------------
                                X             Y             Z
Electronic contribution:     -1.00198       1.28944      -0.78665
Nuclear contribution   :      1.01198      -1.87194       0.53305
                        -----------------------------------------
Total Dipole Moment    :      0.01001      -0.58250      -0.25361
                        -----------------------------------------
Magnitude (a.u.)       :      0.63539
Magnitude (Debye)      :      1.61503

Rotational constants in cm-1:     4.294087     0.871141     0.851503
Rotational constants in MHz : 128733.475662 26116.144744 25527.423569

                             ****ORCA TERMINATED NORMALLY****
TOTAL RUN TIME: 0 days 0 hours 0 minutes 47 seconds 109 msec
