                         Program Version 4.1.2  - RELEASE  -
|  1> #Run DFT-D3 single point of the dimer
|  2> ! wB97X-D3 def2-TZVP TIGHTSCF CHELPG PMODEL PAL8
|  3>
|  4> %base "20-91_DFT_AB"
|  5>
|  6> %scf
|  7> MaxIter 1000
|  8> end
|  9>
| 10> * xyz 0 1
| 11>   C                      -5.619514            -0.230082            9.710258
| 12>   O                      -5.919557            0.391140             10.949691
| 13>   H                      -5.148180            1.017697             11.036180
| 14>   H                      -6.402927            -0.922974            9.360529
| 15>   H                      -5.635728            0.617874             8.986753
| 16>   H                      -4.641547            -0.829193            9.755749
| 17>   C                      -8.365297            3.245469             7.096217
| 18>   O                      -9.396077            3.852988             6.217413
| 19>   H                      -8.908390            4.402823             5.570243
| 20>   H                      -7.788748            2.473135             6.506338
| 21>   H                      -7.679448            4.000689             7.503324
| 22>   H                      -8.870938            2.759224             7.921900
| 23> *
| 24>
| 25> #Run DFT-D3 single point of the molecule with dimer basis set
| 26> $new_job
| 27> %base "20-91_DFT_A"
| 28> ! wB97X-D3 def2-TZVP TIGHTSCF CHELPG PMODEL
| 29>
| 30> %scf
| 31> MaxIter 1000
| 32> end
| 33>
| 34> * xyz 0 1
| 35>   C                      -5.619514            -0.230082            9.710258
| 36>   O                      -5.919557            0.391140             10.949691
| 37>   H                      -5.148180            1.017697             11.036180
| 38>   H                      -6.402927            -0.922974            9.360529
| 39>   H                      -5.635728            0.617874             8.986753
| 40>   H                      -4.641547            -0.829193            9.755749
| 41>   C                    : -8.365297            3.245469             7.096217
| 42>   O                    : -9.396077            3.852988             6.217413
| 43>   H                    : -8.908390            4.402823             5.570243
| 44>   H                    : -7.788748            2.473135             6.506338
| 45>   H                    : -7.679448            4.000689             7.503324
| 46>   H                    : -8.870938            2.759224             7.921900
| 47> *
| 48>
| 49> #Run DFT-D3 single point of the particle with dimer basis set
| 50> $new_job
| 51> %base "20-91_DFT_B"
| 52> ! wB97X-D3 def2-TZVP TIGHTSCF CHELPG PMODEL
| 53>
| 54> %scf
| 55> MaxIter 1000
| 56> end
| 57>
| 58> * xyz 0 1
| 59>   C                    : -5.619514            -0.230082            9.710258
| 60>   O                    : -5.919557            0.391140             10.949691
| 61>   H                    : -5.148180            1.017697             11.036180
| 62>   H                    : -6.402927            -0.922974            9.360529
| 63>   H                    : -5.635728            0.617874             8.986753
| 64>   H                    : -4.641547            -0.829193            9.755749
| 65>   C                      -8.365297            3.245469             7.096217
| 66>   O                      -9.396077            3.852988             6.217413
| 67>   H                      -8.908390            4.402823             5.570243
| 68>   H                      -7.788748            2.473135             6.506338
| 69>   H                      -7.679448            4.000689             7.503324
| 70>   H                      -8.870938            2.759224             7.921900
| 71> *
| 72>
| 73>                          ****END OF INPUT****
 Total Charge           Charge          ....    0
 Multiplicity           Mult            ....    1
 Number of Electrons    NEL             ....   36
Dispersion correction           -0.000777482
FINAL SINGLE POINT ENERGY      -231.462100277211
Dispersion correction           -0.000228326
FINAL SINGLE POINT ENERGY      -115.728406955777

CARTESIAN COORDINATES (ANGSTROEM)
---------------------------------
  C     -5.619514   -0.230082    9.710258
  O     -5.919557    0.391140   10.949691
  H     -5.148180    1.017697   11.036180
  H     -6.402927   -0.922974    9.360529
  H     -5.635728    0.617874    8.986753
  H     -4.641547   -0.829193    9.755749
  C     -8.365297    3.245469    7.096217
  O     -9.396077    3.852988    6.217413
  H     -8.908390    4.402823    5.570243
  H     -7.788748    2.473135    6.506338
  H     -7.679448    4.000689    7.503324
  H     -8.870938    2.759224    7.921900

 Multiplicity           Mult            ....    1
 Number of Electrons    NEL             ....   18
 Basis Dimension        Dim             ....  172

ORBITAL ENERGIES
----------------

  NO   OCC          E(Eh)            E(eV)
   0   2.0000     -19.230964      -523.3011
   1   2.0000     -10.322524      -280.8902
   2   2.0000      -1.112649       -30.2767
   3   2.0000      -0.793477       -21.5916
   4   2.0000      -0.593444       -16.1484
   5   2.0000      -0.533605       -14.5201
   6   2.0000      -0.518844       -14.1185
   7   2.0000      -0.439521       -11.9600
   8   2.0000      -0.374514       -10.1910
   9   0.0000       0.082130         2.2349
  10   0.0000       0.112900         3.0722
  11   0.0000       0.140327         3.8185
  12   0.0000       0.163917         4.4604
  13   0.0000       0.187994         5.1156

MULLIKEN ATOMIC CHARGES
-----------------------
   0 C :    0.000004
   1 O :   -0.000002
   2 H :   -0.000001
   3 H :   -0.000017
   4 H :   -0.000033
   5 H :   -0.000002
   6 C :   -0.178738
   7 O :   -0.484243
   8 H :    0.312210
   9 H :    0.108293
  10 H :    0.113470
  11 H :    0.129058
Sum of atomic charges:    0.0000000

LOEWDIN ATOMIC CHARGES
----------------------
   0 C :   -0.000052
   1 O :   -0.000003
   2 H :   -0.000001
   3 H :   -0.000006
   4 H :   -0.000136
   5 H :   -0.000000
   6 C :   -0.342321
   7 O :   -0.136947
   8 H :    0.173157
   9 H :    0.103258
  10 H :    0.097037
  11 H :    0.106016

  Mayer bond orders larger than 0.1
B(  6-C ,  7-O ) :   0.9929 B(  6-C ,  9-H ) :   0.9735 B(  6-C , 10-H ) :   0.9712
B(  6-C , 11-H ) :   0.9726 B(  7-O ,  8-H ) :   0.9013

Dispersion correction           -0.000268636
FINAL SINGLE POINT ENERGY      -115.733474166075

DIPOLE MOMENT
-------------
                                X             Y             Z
Electronic contribution:     -1.36439       0.68199      -0.92183
Nuclear contribution   :      2.09895      -0.59781       0.91637
                        -----------------------------------------
Total Dipole Moment    :      0.73456       0.08418      -0.00546
                        -----------------------------------------
Magnitude (a.u.)       :      0.73938
Magnitude (Debye)      :      1.87936

Rotational constants in cm-1:     4.123438     0.768376     0.744437
Rotational constants in MHz : 123617.562340 23035.322570 22317.660175

                             ****ORCA TERMINATED NORMALLY****
TOTAL RUN TIME: 0 days 0 hours 0 minutes 48 seconds 399 msec
