                         Program Version 4.1.2  - RELEASE  -
|  1> #Run DFT-D3 single point of the dimer
|  2> ! wB97X-D3 def2-TZVP TIGHTSCF CHELPG PMODEL PAL8
|  3>
|  4> %base "10-193_DFT_AB"
|  5>
|  6> %scf
|  7> MaxIter 1000
|  8> end
|  9>
| 10> * xyz 0 1
| 11>   C                      3.639988             6.357065             6.076319
| 12>   O                      4.405180             7.512862             5.781901
| 13>   H                      3.861962             8.228284             5.423984
| 14>   H                      2.636027             6.467495             5.668467
| 15>   H                      3.983143             5.472368             5.565540
| 16>   H                      3.713153             6.233174             7.130214
| 17>   C                      5.365714             10.544825            8.839250
| 18>   O                      5.850195             9.276033             8.367077
| 19>   H                      5.317547             8.943548             7.624719
| 20>   H                      4.445987             10.462438            9.312003
| 21>   H                      6.119644             11.192270            9.335644
| 22>   H                      5.045066             11.121017            7.969882
| 23> *
| 24>
| 25> #Run DFT-D3 single point of the molecule with dimer basis set
| 26> $new_job
| 27> %base "10-193_DFT_A"
| 28> ! wB97X-D3 def2-TZVP TIGHTSCF CHELPG PMODEL
| 29>
| 30> %scf
| 31> MaxIter 1000
| 32> end
| 33>
| 34> * xyz 0 1
| 35>   C                      3.639988             6.357065             6.076319
| 36>   O                      4.405180             7.512862             5.781901
| 37>   H                      3.861962             8.228284             5.423984
| 38>   H                      2.636027             6.467495             5.668467
| 39>   H                      3.983143             5.472368             5.565540
| 40>   H                      3.713153             6.233174             7.130214
| 41>   C                    : 5.365714             10.544825            8.839250
| 42>   O                    : 5.850195             9.276033             8.367077
| 43>   H                    : 5.317547             8.943548             7.624719
| 44>   H                    : 4.445987             10.462438            9.312003
| 45>   H                    : 6.119644             11.192270            9.335644
| 46>   H                    : 5.045066             11.121017            7.969882
| 47> *
| 48>
| 49> #Run DFT-D3 single point of the particle with dimer basis set
| 50> $new_job
| 51> %base "10-193_DFT_B"
| 52> ! wB97X-D3 def2-TZVP TIGHTSCF CHELPG PMODEL
| 53>
| 54> %scf
| 55> MaxIter 1000
| 56> end
| 57>
| 58> * xyz 0 1
| 59>   C                    : 3.639988             6.357065             6.076319
| 60>   O                    : 4.405180             7.512862             5.781901
| 61>   H                    : 3.861962             8.228284             5.423984
| 62>   H                    : 2.636027             6.467495             5.668467
| 63>   H                    : 3.983143             5.472368             5.565540
| 64>   H                    : 3.713153             6.233174             7.130214
| 65>   C                      5.365714             10.544825            8.839250
| 66>   O                      5.850195             9.276033             8.367077
| 67>   H                      5.317547             8.943548             7.624719
| 68>   H                      4.445987             10.462438            9.312003
| 69>   H                      6.119644             11.192270            9.335644
| 70>   H                      5.045066             11.121017            7.969882
| 71> *
| 72>
| 73>                          ****END OF INPUT****
 Total Charge           Charge          ....    0
 Multiplicity           Mult            ....    1
 Number of Electrons    NEL             ....   36
Dispersion correction           -0.001329775
FINAL SINGLE POINT ENERGY      -231.462382237910
Dispersion correction           -0.000241313
FINAL SINGLE POINT ENERGY      -115.731824834837

CARTESIAN COORDINATES (ANGSTROEM)
---------------------------------
  C      3.639988    6.357065    6.076319
  O      4.405180    7.512862    5.781901
  H      3.861962    8.228284    5.423984
  H      2.636027    6.467495    5.668467
  H      3.983143    5.472368    5.565540
  H      3.713153    6.233174    7.130214
  C      5.365714   10.544825    8.839250
  O      5.850195    9.276033    8.367077
  H      5.317547    8.943548    7.624719
  H      4.445987   10.462438    9.312003
  H      6.119644   11.192270    9.335644
  H      5.045066   11.121017    7.969882

 Multiplicity           Mult            ....    1
 Number of Electrons    NEL             ....   18
 Basis Dimension        Dim             ....  172

ORBITAL ENERGIES
----------------

  NO   OCC          E(Eh)            E(eV)
   0   2.0000     -19.228763      -523.2413
   1   2.0000     -10.310893      -280.5737
   2   2.0000      -1.123800       -30.5802
   3   2.0000      -0.801851       -21.8195
   4   2.0000      -0.611059       -16.6278
   5   2.0000      -0.544574       -14.8186
   6   2.0000      -0.520556       -14.1650
   7   2.0000      -0.429368       -11.6837
   8   2.0000      -0.371232       -10.1017
   9   0.0000       0.071550         1.9470
  10   0.0000       0.123683         3.3656
  11   0.0000       0.148916         4.0522
  12   0.0000       0.171093         4.6557
  13   0.0000       0.198282         5.3955

MULLIKEN ATOMIC CHARGES
-----------------------
   0 C :    0.000069
   1 O :    0.000009
   2 H :   -0.000393
   3 H :    0.000001
   4 H :   -0.000063
   5 H :   -0.000896
   6 C :   -0.174010
   7 O :   -0.488505
   8 H :    0.316951
   9 H :    0.113826
  10 H :    0.129710
  11 H :    0.103301
Sum of atomic charges:   -0.0000000

LOEWDIN ATOMIC CHARGES
----------------------
   0 C :   -0.000953
   1 O :   -0.003821
   2 H :   -0.000998
   3 H :   -0.000006
   4 H :   -0.000021
   5 H :   -0.000459
   6 C :   -0.365006
   7 O :   -0.100942
   8 H :    0.175490
   9 H :    0.084093
  10 H :    0.114956
  11 H :    0.097666

  Mayer bond orders larger than 0.1
B(  6-C ,  7-O ) :   0.9865 B(  6-C ,  9-H ) :   0.9712 B(  6-C , 10-H ) :   0.9680
B(  6-C , 11-H ) :   0.9892 B(  7-O ,  8-H ) :   0.8979

Dispersion correction           -0.000245249
FINAL SINGLE POINT ENERGY      -115.726179506207

DIPOLE MOMENT
-------------
                                X             Y             Z
Electronic contribution:      0.77553      -1.64355      -0.27461
Nuclear contribution   :     -1.34242       1.99097      -0.03246
                        -----------------------------------------
Total Dipole Moment    :     -0.56689       0.34742      -0.30707
                        -----------------------------------------
Magnitude (a.u.)       :      0.73237
Magnitude (Debye)      :      1.86153

Rotational constants in cm-1:     4.470680     0.807965     0.770813
Rotational constants in MHz : 134027.623290 24222.194913 23108.392341

                             ****ORCA TERMINATED NORMALLY****
TOTAL RUN TIME: 0 days 0 hours 1 minutes 3 seconds 182 msec
