                         Program Version 4.1.2  - RELEASE  -
|  1> #Run DFT-D3 single point of the dimer
|  2> ! wB97X-D3 def2-TZVP TIGHTSCF CHELPG PMODEL PAL8
|  3>
|  4> %base "7-13_DFT_AB"
|  5>
|  6> %scf
|  7> MaxIter 1000
|  8> end
|  9>
| 10> * xyz 0 1
| 11>   C                      0.107441             2.741054             -3.055841
| 12>   O                      0.093632             2.479985             -1.676650
| 13>   H                      -0.116713            3.352322             -1.369150
| 14>   H                      0.781831             3.560905             -3.329535
| 15>   H                      0.429337             1.873700             -3.602147
| 16>   H                      -0.921354            2.900499             -3.482296
| 17>   C                      4.787785             -0.414253            -4.699214
| 18>   O                      4.740598             -0.563497            -6.126738
| 19>   H                      3.893452             -0.895467            -6.441688
| 20>   H                      4.687855             -1.421507            -4.229661
| 21>   H                      5.757657             0.014001             -4.400457
| 22>   H                      4.012483             0.228443             -4.255578
| 23> *
| 24>
| 25> #Run DFT-D3 single point of the molecule with dimer basis set
| 26> $new_job
| 27> %base "7-13_DFT_A"
| 28> ! wB97X-D3 def2-TZVP TIGHTSCF CHELPG PMODEL
| 29>
| 30> %scf
| 31> MaxIter 1000
| 32> end
| 33>
| 34> * xyz 0 1
| 35>   C                      0.107441             2.741054             -3.055841
| 36>   O                      0.093632             2.479985             -1.676650
| 37>   H                      -0.116713            3.352322             -1.369150
| 38>   H                      0.781831             3.560905             -3.329535
| 39>   H                      0.429337             1.873700             -3.602147
| 40>   H                      -0.921354            2.900499             -3.482296
| 41>   C                    : 4.787785             -0.414253            -4.699214
| 42>   O                    : 4.740598             -0.563497            -6.126738
| 43>   H                    : 3.893452             -0.895467            -6.441688
| 44>   H                    : 4.687855             -1.421507            -4.229661
| 45>   H                    : 5.757657             0.014001             -4.400457
| 46>   H                    : 4.012483             0.228443             -4.255578
| 47> *
| 48>
| 49> #Run DFT-D3 single point of the particle with dimer basis set
| 50> $new_job
| 51> %base "7-13_DFT_B"
| 52> ! wB97X-D3 def2-TZVP TIGHTSCF CHELPG PMODEL
| 53>
| 54> %scf
| 55> MaxIter 1000
| 56> end
| 57>
| 58> * xyz 0 1
| 59>   C                    : 0.107441             2.741054             -3.055841
| 60>   O                    : 0.093632             2.479985             -1.676650
| 61>   H                    : -0.116713            3.352322             -1.369150
| 62>   H                    : 0.781831             3.560905             -3.329535
| 63>   H                    : 0.429337             1.873700             -3.602147
| 64>   H                    : -0.921354            2.900499             -3.482296
| 65>   C                      4.787785             -0.414253            -4.699214
| 66>   O                      4.740598             -0.563497            -6.126738
| 67>   H                      3.893452             -0.895467            -6.441688
| 68>   H                      4.687855             -1.421507            -4.229661
| 69>   H                      5.757657             0.014001             -4.400457
| 70>   H                      4.012483             0.228443             -4.255578
| 71> *
| 72>
| 73>                          ****END OF INPUT****
 Total Charge           Charge          ....    0
 Multiplicity           Mult            ....    1
 Number of Electrons    NEL             ....   36
Dispersion correction           -0.000630209
FINAL SINGLE POINT ENERGY      -231.467860179827
Dispersion correction           -0.000223019
FINAL SINGLE POINT ENERGY      -115.732548835738

CARTESIAN COORDINATES (ANGSTROEM)
---------------------------------
  C      0.107441    2.741054   -3.055841
  O      0.093632    2.479985   -1.676650
  H     -0.116713    3.352322   -1.369150
  H      0.781831    3.560905   -3.329535
  H      0.429337    1.873700   -3.602147
  H     -0.921354    2.900499   -3.482296
  C      4.787785   -0.414253   -4.699214
  O      4.740598   -0.563497   -6.126738
  H      3.893452   -0.895467   -6.441688
  H      4.687855   -1.421507   -4.229661
  H      5.757657    0.014001   -4.400457
  H      4.012483    0.228443   -4.255578

 Multiplicity           Mult            ....    1
 Number of Electrons    NEL             ....   18
 Basis Dimension        Dim             ....  172

ORBITAL ENERGIES
----------------

  NO   OCC          E(Eh)            E(eV)
   0   2.0000     -19.229248      -523.2544
   1   2.0000     -10.319480      -280.8073
   2   2.0000      -1.125828       -30.6353
   3   2.0000      -0.795803       -21.6549
   4   2.0000      -0.607566       -16.5327
   5   2.0000      -0.535420       -14.5695
   6   2.0000      -0.523680       -14.2501
   7   2.0000      -0.429843       -11.6966
   8   2.0000      -0.373228       -10.1561
   9   0.0000       0.082711         2.2507
  10   0.0000       0.115132         3.1329
  11   0.0000       0.145757         3.9663
  12   0.0000       0.165318         4.4985
  13   0.0000       0.184237         5.0133

MULLIKEN ATOMIC CHARGES
-----------------------
   0 C :   -0.000047
   1 O :    0.000004
   2 H :    0.000000
   3 H :    0.000000
   4 H :   -0.000010
   5 H :   -0.000002
   6 C :   -0.158977
   7 O :   -0.487873
   8 H :    0.316832
   9 H :    0.102079
  10 H :    0.122459
  11 H :    0.105533
Sum of atomic charges:   -0.0000000

LOEWDIN ATOMIC CHARGES
----------------------
   0 C :   -0.000053
   1 O :   -0.000001
   2 H :   -0.000000
   3 H :   -0.000004
   4 H :   -0.000067
   5 H :   -0.000000
   6 C :   -0.373045
   7 O :   -0.096998
   8 H :    0.166504
   9 H :    0.098786
  10 H :    0.110440
  11 H :    0.094439

  Mayer bond orders larger than 0.1
B(  6-C ,  7-O ) :   0.9923 B(  6-C ,  9-H ) :   0.9798 B(  6-C , 10-H ) :   0.9722
B(  6-C , 11-H ) :   0.9683 B(  7-O ,  8-H ) :   0.8947

Dispersion correction           -0.000272320
FINAL SINGLE POINT ENERGY      -115.735037665590

DIPOLE MOMENT
-------------
                                X             Y             Z
Electronic contribution:      0.04340      -0.08226      -1.83681
Nuclear contribution   :     -0.56740      -0.06368       2.22944
                        -----------------------------------------
Total Dipole Moment    :     -0.52400      -0.14594       0.39263
                        -----------------------------------------
Magnitude (a.u.)       :      0.67084
Magnitude (Debye)      :      1.70515

Rotational constants in cm-1:     4.310211     0.798574     0.772517
Rotational constants in MHz : 129216.880926 23940.659953 23159.476322

                             ****ORCA TERMINATED NORMALLY****
TOTAL RUN TIME: 0 days 0 hours 0 minutes 54 seconds 346 msec
