                         Program Version 4.1.2  - RELEASE  -
|  1> #Run DFT-D3 single point of the dimer
|  2> ! wB97X-D3 def2-TZVP TIGHTSCF CHELPG PMODEL PAL8
|  3>
|  4> %base "13-107_DFT_AB"
|  5>
|  6> %scf
|  7> MaxIter 1000
|  8> end
|  9>
| 10> * xyz 0 1
| 11>   C                      -6.030512            6.655904             1.816928
| 12>   O                      -5.728468            6.776601             3.218112
| 13>   H                      -4.798940            6.874311             3.255842
| 14>   H                      -7.104650            6.813739             1.601745
| 15>   H                      -5.444522            7.352368             1.185617
| 16>   H                      -5.877691            5.637061             1.551672
| 17>   C                      -5.438823            2.939611             0.653369
| 18>   O                      -5.878226            2.898767             2.003602
| 19>   H                      -6.781193            3.161789             1.905700
| 20>   H                      -4.325486            2.925350             0.716673
| 21>   H                      -5.760783            2.003888             0.186387
| 22>   H                      -5.762836            3.829153             0.087394
| 23> *
| 24>
| 25> #Run DFT-D3 single point of the molecule with dimer basis set
| 26> $new_job
| 27> %base "13-107_DFT_A"
| 28> ! wB97X-D3 def2-TZVP TIGHTSCF CHELPG PMODEL
| 29>
| 30> %scf
| 31> MaxIter 1000
| 32> end
| 33>
| 34> * xyz 0 1
| 35>   C                      -6.030512            6.655904             1.816928
| 36>   O                      -5.728468            6.776601             3.218112
| 37>   H                      -4.798940            6.874311             3.255842
| 38>   H                      -7.104650            6.813739             1.601745
| 39>   H                      -5.444522            7.352368             1.185617
| 40>   H                      -5.877691            5.637061             1.551672
| 41>   C                    : -5.438823            2.939611             0.653369
| 42>   O                    : -5.878226            2.898767             2.003602
| 43>   H                    : -6.781193            3.161789             1.905700
| 44>   H                    : -4.325486            2.925350             0.716673
| 45>   H                    : -5.760783            2.003888             0.186387
| 46>   H                    : -5.762836            3.829153             0.087394
| 47> *
| 48>
| 49> #Run DFT-D3 single point of the particle with dimer basis set
| 50> $new_job
| 51> %base "13-107_DFT_B"
| 52> ! wB97X-D3 def2-TZVP TIGHTSCF CHELPG PMODEL
| 53>
| 54> %scf
| 55> MaxIter 1000
| 56> end
| 57>
| 58> * xyz 0 1
| 59>   C                    : -6.030512            6.655904             1.816928
| 60>   O                    : -5.728468            6.776601             3.218112
| 61>   H                    : -4.798940            6.874311             3.255842
| 62>   H                    : -7.104650            6.813739             1.601745
| 63>   H                    : -5.444522            7.352368             1.185617
| 64>   H                    : -5.877691            5.637061             1.551672
| 65>   C                      -5.438823            2.939611             0.653369
| 66>   O                      -5.878226            2.898767             2.003602
| 67>   H                      -6.781193            3.161789             1.905700
| 68>   H                      -4.325486            2.925350             0.716673
| 69>   H                      -5.760783            2.003888             0.186387
| 70>   H                      -5.762836            3.829153             0.087394
| 71> *
| 72>
| 73>                          ****END OF INPUT****
 Total Charge           Charge          ....    0
 Multiplicity           Mult            ....    1
 Number of Electrons    NEL             ....   36
Dispersion correction           -0.001684104
FINAL SINGLE POINT ENERGY      -231.467316918342
Dispersion correction           -0.000238998
FINAL SINGLE POINT ENERGY      -115.733027550252

CARTESIAN COORDINATES (ANGSTROEM)
---------------------------------
  C     -6.030512    6.655904    1.816928
  O     -5.728468    6.776601    3.218112
  H     -4.798940    6.874311    3.255842
  H     -7.104650    6.813739    1.601745
  H     -5.444522    7.352368    1.185617
  H     -5.877691    5.637061    1.551672
  C     -5.438823    2.939611    0.653369
  O     -5.878226    2.898767    2.003602
  H     -6.781193    3.161789    1.905700
  H     -4.325486    2.925350    0.716673
  H     -5.760783    2.003888    0.186387
  H     -5.762836    3.829153    0.087394

 Multiplicity           Mult            ....    1
 Number of Electrons    NEL             ....   18
 Basis Dimension        Dim             ....  172

ORBITAL ENERGIES
----------------

  NO   OCC          E(Eh)            E(eV)
   0   2.0000     -19.230099      -523.2776
   1   2.0000     -10.316649      -280.7303
   2   2.0000      -1.142523       -31.0896
   3   2.0000      -0.790253       -21.5039
   4   2.0000      -0.610188       -16.6041
   5   2.0000      -0.546857       -14.8807
   6   2.0000      -0.518285       -14.1033
   7   2.0000      -0.442956       -12.0534
   8   2.0000      -0.374669       -10.1953
   9   0.0000       0.083745         2.2788
  10   0.0000       0.127310         3.4643
  11   0.0000       0.154043         4.1917
  12   0.0000       0.165480         4.5029
  13   0.0000       0.199421         5.4265

MULLIKEN ATOMIC CHARGES
-----------------------
   0 C :    0.002022
   1 O :    0.000007
   2 H :   -0.000165
   3 H :    0.000127
   4 H :   -0.000255
   5 H :   -0.007737
   6 C :   -0.187411
   7 O :   -0.460329
   8 H :    0.309366
   9 H :    0.117878
  10 H :    0.114627
  11 H :    0.111869
Sum of atomic charges:   -0.0000000

LOEWDIN ATOMIC CHARGES
----------------------
   0 C :   -0.004233
   1 O :   -0.000171
   2 H :   -0.000091
   3 H :   -0.000055
   4 H :   -0.000041
   5 H :   -0.007257
   6 C :   -0.385903
   7 O :   -0.071299
   8 H :    0.160610
   9 H :    0.113497
  10 H :    0.096739
  11 H :    0.098203

  Mayer bond orders larger than 0.1
B(  6-C ,  7-O ) :   0.9805 B(  6-C ,  9-H ) :   0.9776 B(  6-C , 10-H ) :   0.9812
B(  6-C , 11-H ) :   0.9719 B(  7-O ,  8-H ) :   0.9087

Dispersion correction           -0.000220712
FINAL SINGLE POINT ENERGY      -115.733843340795

DIPOLE MOMENT
-------------
                                X             Y             Z
Electronic contribution:     -0.48841      -0.03577       1.71353
Nuclear contribution   :      0.10289       0.20880      -2.28834
                        -----------------------------------------
Total Dipole Moment    :     -0.38552       0.17302      -0.57481
                        -----------------------------------------
Magnitude (a.u.)       :      0.71342
Magnitude (Debye)      :      1.81337

Rotational constants in cm-1:     4.118795     0.839984     0.808529
Rotational constants in MHz : 123478.353726 25182.089519 24239.083432

                             ****ORCA TERMINATED NORMALLY****
TOTAL RUN TIME: 0 days 0 hours 1 minutes 10 seconds 843 msec
