                         Program Version 4.1.2  - RELEASE  -
|  1> #Run DFT-D3 single point of the dimer
|  2> ! wB97X-D3 def2-TZVP TIGHTSCF CHELPG PMODEL PAL8
|  3>
|  4> %base "8-136_DFT_AB"
|  5>
|  6> %scf
|  7> MaxIter 1000
|  8> end
|  9>
| 10> * xyz 0 1
| 11>   C                      -3.245610            4.766604             5.925738
| 12>   O                      -2.105204            5.526825             5.753957
| 13>   H                      -2.061038            5.470847             4.812791
| 14>   H                      -3.398093            4.514218             6.964937
| 15>   H                      -4.115643            5.335577             5.674308
| 16>   H                      -3.145554            3.834048             5.296263
| 17>   C                      -0.024007            2.080020             6.984736
| 18>   O                      0.299046             1.756115             5.654286
| 19>   H                      -0.364095            2.158002             5.124709
| 20>   H                      0.695163             2.885084             7.303017
| 21>   H                      -1.035840            2.500410             7.043832
| 22>   H                      -0.006311            1.375831             7.786543
| 23> *
| 24>
| 25> #Run DFT-D3 single point of the molecule with dimer basis set
| 26> $new_job
| 27> %base "8-136_DFT_A"
| 28> ! wB97X-D3 def2-TZVP TIGHTSCF CHELPG PMODEL
| 29>
| 30> %scf
| 31> MaxIter 1000
| 32> end
| 33>
| 34> * xyz 0 1
| 35>   C                      -3.245610            4.766604             5.925738
| 36>   O                      -2.105204            5.526825             5.753957
| 37>   H                      -2.061038            5.470847             4.812791
| 38>   H                      -3.398093            4.514218             6.964937
| 39>   H                      -4.115643            5.335577             5.674308
| 40>   H                      -3.145554            3.834048             5.296263
| 41>   C                    : -0.024007            2.080020             6.984736
| 42>   O                    : 0.299046             1.756115             5.654286
| 43>   H                    : -0.364095            2.158002             5.124709
| 44>   H                    : 0.695163             2.885084             7.303017
| 45>   H                    : -1.035840            2.500410             7.043832
| 46>   H                    : -0.006311            1.375831             7.786543
| 47> *
| 48>
| 49> #Run DFT-D3 single point of the particle with dimer basis set
| 50> $new_job
| 51> %base "8-136_DFT_B"
| 52> ! wB97X-D3 def2-TZVP TIGHTSCF CHELPG PMODEL
| 53>
| 54> %scf
| 55> MaxIter 1000
| 56> end
| 57>
| 58> * xyz 0 1
| 59>   C                    : -3.245610            4.766604             5.925738
| 60>   O                    : -2.105204            5.526825             5.753957
| 61>   H                    : -2.061038            5.470847             4.812791
| 62>   H                    : -3.398093            4.514218             6.964937
| 63>   H                    : -4.115643            5.335577             5.674308
| 64>   H                    : -3.145554            3.834048             5.296263
| 65>   C                      -0.024007            2.080020             6.984736
| 66>   O                      0.299046             1.756115             5.654286
| 67>   H                      -0.364095            2.158002             5.124709
| 68>   H                      0.695163             2.885084             7.303017
| 69>   H                      -1.035840            2.500410             7.043832
| 70>   H                      -0.006311            1.375831             7.786543
| 71> *
| 72>
| 73>                          ****END OF INPUT****
 Total Charge           Charge          ....    0
 Multiplicity           Mult            ....    1
 Number of Electrons    NEL             ....   36
Dispersion correction           -0.001442284
FINAL SINGLE POINT ENERGY      -231.457731016225
Dispersion correction           -0.000191737
FINAL SINGLE POINT ENERGY      -115.729400608978

CARTESIAN COORDINATES (ANGSTROEM)
---------------------------------
  C     -3.245610    4.766604    5.925738
  O     -2.105204    5.526825    5.753957
  H     -2.061038    5.470847    4.812791
  H     -3.398093    4.514218    6.964937
  H     -4.115643    5.335577    5.674308
  H     -3.145554    3.834048    5.296263
  C     -0.024007    2.080020    6.984736
  O      0.299046    1.756115    5.654286
  H     -0.364095    2.158002    5.124709
  H      0.695163    2.885084    7.303017
  H     -1.035840    2.500410    7.043832
  H     -0.006311    1.375831    7.786543

 Multiplicity           Mult            ....    1
 Number of Electrons    NEL             ....   18
 Basis Dimension        Dim             ....  172

ORBITAL ENERGIES
----------------

  NO   OCC          E(Eh)            E(eV)
   0   2.0000     -19.231251      -523.3090
   1   2.0000     -10.314310      -280.6666
   2   2.0000      -1.145813       -31.1792
   3   2.0000      -0.797849       -21.7106
   4   2.0000      -0.618933       -16.8420
   5   2.0000      -0.541036       -14.7223
   6   2.0000      -0.531608       -14.4658
   7   2.0000      -0.433030       -11.7834
   8   2.0000      -0.372626       -10.1397
   9   0.0000       0.070333         1.9139
  10   0.0000       0.126827         3.4511
  11   0.0000       0.145497         3.9592
  12   0.0000       0.162028         4.4090
  13   0.0000       0.187268         5.0958

MULLIKEN ATOMIC CHARGES
-----------------------
   0 C :    0.001421
   1 O :   -0.000054
   2 H :   -0.000079
   3 H :   -0.000629
   4 H :    0.000059
   5 H :   -0.000513
   6 C :   -0.175751
   7 O :   -0.459649
   8 H :    0.317302
   9 H :    0.102575
  10 H :    0.097875
  11 H :    0.117445
Sum of atomic charges:    0.0000000

LOEWDIN ATOMIC CHARGES
----------------------
   0 C :   -0.002284
   1 O :   -0.000105
   2 H :   -0.000069
   3 H :   -0.000631
   4 H :   -0.000015
   5 H :   -0.000512
   6 C :   -0.393886
   7 O :   -0.059918
   8 H :    0.159971
   9 H :    0.104283
  10 H :    0.098019
  11 H :    0.095147

  Mayer bond orders larger than 0.1
B(  6-C ,  7-O ) :   1.0084 B(  6-C ,  9-H ) :   0.9853 B(  6-C , 10-H ) :   0.9875
B(  6-C , 11-H ) :   0.9669 B(  7-O ,  8-H ) :   0.9043

Dispersion correction           -0.000245004
FINAL SINGLE POINT ENERGY      -115.727527674423

DIPOLE MOMENT
-------------
                                X             Y             Z
Electronic contribution:      0.52648      -0.72036      -1.75236
Nuclear contribution   :     -1.10707       1.09570       1.92506
                        -----------------------------------------
Total Dipole Moment    :     -0.58059       0.37534       0.17269
                        -----------------------------------------
Magnitude (a.u.)       :      0.71260
Magnitude (Debye)      :      1.81128

Rotational constants in cm-1:     4.464090     0.830335     0.801926
Rotational constants in MHz : 133830.037649 24892.823146 24041.146571

                             ****ORCA TERMINATED NORMALLY****
TOTAL RUN TIME: 0 days 0 hours 0 minutes 44 seconds 198 msec
