                         Program Version 4.1.2  - RELEASE  -
|  1> #Run DFT-D3 single point of the dimer
|  2> ! wB97X-D3 def2-TZVP TIGHTSCF CHELPG PMODEL PAL8
|  3>
|  4> %base "4-33_DFT_AB"
|  5>
|  6> %scf
|  7> MaxIter 1000
|  8> end
|  9>
| 10> * xyz 0 1
| 11>   C                      -5.192736            -2.225288            6.637700
| 12>   O                      -5.408181            -1.507434            5.386835
| 13>   H                      -4.517370            -1.420161            5.041826
| 14>   H                      -4.838058            -1.544956            7.408872
| 15>   H                      -6.004383            -2.688830            7.117625
| 16>   H                      -4.338427            -2.918640            6.592779
| 17>   C                      -1.810356            0.406828             3.525314
| 18>   O                      -2.676276            -0.656911            3.167925
| 19>   H                      -3.289231            -0.286816            2.498564
| 20>   H                      -2.313226            1.180830             4.158564
| 21>   H                      -1.006154            -0.012581            4.100338
| 22>   H                      -1.447102            0.834586             2.550073
| 23> *
| 24>
| 25> #Run DFT-D3 single point of the molecule with dimer basis set
| 26> $new_job
| 27> %base "4-33_DFT_A"
| 28> ! wB97X-D3 def2-TZVP TIGHTSCF CHELPG PMODEL
| 29>
| 30> %scf
| 31> MaxIter 1000
| 32> end
| 33>
| 34> * xyz 0 1
| 35>   C                      -5.192736            -2.225288            6.637700
| 36>   O                      -5.408181            -1.507434            5.386835
| 37>   H                      -4.517370            -1.420161            5.041826
| 38>   H                      -4.838058            -1.544956            7.408872
| 39>   H                      -6.004383            -2.688830            7.117625
| 40>   H                      -4.338427            -2.918640            6.592779
| 41>   C                    : -1.810356            0.406828             3.525314
| 42>   O                    : -2.676276            -0.656911            3.167925
| 43>   H                    : -3.289231            -0.286816            2.498564
| 44>   H                    : -2.313226            1.180830             4.158564
| 45>   H                    : -1.006154            -0.012581            4.100338
| 46>   H                    : -1.447102            0.834586             2.550073
| 47> *
| 48>
| 49> #Run DFT-D3 single point of the particle with dimer basis set
| 50> $new_job
| 51> %base "4-33_DFT_B"
| 52> ! wB97X-D3 def2-TZVP TIGHTSCF CHELPG PMODEL
| 53>
| 54> %scf
| 55> MaxIter 1000
| 56> end
| 57>
| 58> * xyz 0 1
| 59>   C                    : -5.192736            -2.225288            6.637700
| 60>   O                    : -5.408181            -1.507434            5.386835
| 61>   H                    : -4.517370            -1.420161            5.041826
| 62>   H                    : -4.838058            -1.544956            7.408872
| 63>   H                    : -6.004383            -2.688830            7.117625
| 64>   H                    : -4.338427            -2.918640            6.592779
| 65>   C                      -1.810356            0.406828             3.525314
| 66>   O                      -2.676276            -0.656911            3.167925
| 67>   H                      -3.289231            -0.286816            2.498564
| 68>   H                      -2.313226            1.180830             4.158564
| 69>   H                      -1.006154            -0.012581            4.100338
| 70>   H                      -1.447102            0.834586             2.550073
| 71> *
| 72>
| 73>                          ****END OF INPUT****
 Total Charge           Charge          ....    0
 Multiplicity           Mult            ....    1
 Number of Electrons    NEL             ....   36
Dispersion correction           -0.001231214
FINAL SINGLE POINT ENERGY      -231.466079812082
Dispersion correction           -0.000252548
FINAL SINGLE POINT ENERGY      -115.726969069215

CARTESIAN COORDINATES (ANGSTROEM)
---------------------------------
  C     -5.192736   -2.225288    6.637700
  O     -5.408181   -1.507434    5.386835
  H     -4.517370   -1.420161    5.041826
  H     -4.838058   -1.544956    7.408872
  H     -6.004383   -2.688830    7.117625
  H     -4.338427   -2.918640    6.592779
  C     -1.810356    0.406828    3.525314
  O     -2.676276   -0.656911    3.167925
  H     -3.289231   -0.286816    2.498564
  H     -2.313226    1.180830    4.158564
  H     -1.006154   -0.012581    4.100338
  H     -1.447102    0.834586    2.550073

 Multiplicity           Mult            ....    1
 Number of Electrons    NEL             ....   18
 Basis Dimension        Dim             ....  172

ORBITAL ENERGIES
----------------

  NO   OCC          E(Eh)            E(eV)
   0   2.0000     -19.230922      -523.3000
   1   2.0000     -10.317507      -280.7536
   2   2.0000      -1.133045       -30.8317
   3   2.0000      -0.789147       -21.4738
   4   2.0000      -0.604049       -16.4370
   5   2.0000      -0.543032       -14.7766
   6   2.0000      -0.527628       -14.3575
   7   2.0000      -0.434446       -11.8219
   8   2.0000      -0.371477       -10.1084
   9   0.0000       0.093650         2.5483
  10   0.0000       0.113689         3.0936
  11   0.0000       0.156028         4.2457
  12   0.0000       0.182691         4.9713
  13   0.0000       0.198564         5.4032

MULLIKEN ATOMIC CHARGES
-----------------------
   0 C :    0.000642
   1 O :   -0.000013
   2 H :   -0.007967
   3 H :   -0.000014
   4 H :   -0.000002
   5 H :   -0.000228
   6 C :   -0.158020
   7 O :   -0.470658
   8 H :    0.315236
   9 H :    0.101239
  10 H :    0.122842
  11 H :    0.096943
Sum of atomic charges:   -0.0000000

LOEWDIN ATOMIC CHARGES
----------------------
   0 C :   -0.000122
   1 O :   -0.000777
   2 H :   -0.010796
   3 H :   -0.000001
   4 H :   -0.000001
   5 H :   -0.000028
   6 C :   -0.386865
   7 O :   -0.084507
   8 H :    0.180318
   9 H :    0.097639
  10 H :    0.103231
  11 H :    0.101910

  Mayer bond orders larger than 0.1
B(  6-C ,  7-O ) :   0.9912 B(  6-C ,  9-H ) :   0.9688 B(  6-C , 10-H ) :   0.9751
B(  6-C , 11-H ) :   0.9823 B(  7-O ,  8-H ) :   0.8977

Dispersion correction           -0.000229871
FINAL SINGLE POINT ENERGY      -115.734273274264

DIPOLE MOMENT
-------------
                                X             Y             Z
Electronic contribution:     -0.96692      -1.42741      -0.29558
Nuclear contribution   :      0.94869       2.05804       0.01645
                        -----------------------------------------
Total Dipole Moment    :     -0.01823       0.63063      -0.27913
                        -----------------------------------------
Magnitude (a.u.)       :      0.68988
Magnitude (Debye)      :      1.75354

Rotational constants in cm-1:     4.073499     0.835976     0.806259
Rotational constants in MHz : 122120.439556 25061.935910 24171.033169

                             ****ORCA TERMINATED NORMALLY****
TOTAL RUN TIME: 0 days 0 hours 1 minutes 35 seconds 210 msec
