                         Program Version 4.1.2  - RELEASE  -
|  1> #Run DFT-D3 single point of the dimer
|  2> ! wB97X-D3 def2-TZVP TIGHTSCF CHELPG PMODEL PAL8
|  3>
|  4> %base "11-41_DFT_AB"
|  5>
|  6> %scf
|  7> MaxIter 1000
|  8> end
|  9>
| 10> * xyz 0 1
| 11>   C                      -6.809828            -7.466043            3.576054
| 12>   O                      -7.899568            -7.122431            2.761647
| 13>   H                      -8.485116            -6.571884            3.300043
| 14>   H                      -6.140757            -8.235801            3.211368
| 15>   H                      -6.195975            -6.624707            3.804071
| 16>   H                      -7.153628            -7.872314            4.553636
| 17>   C                      -8.009871            -4.711269            -2.147200
| 18>   O                      -8.298918            -5.552520            -1.027599
| 19>   H                      -8.177552            -5.122342            -0.191332
| 20>   H                      -8.178726            -5.149591            -3.108748
| 21>   H                      -8.576040            -3.788171            -2.055177
| 22>   H                      -7.060665            -4.281000            -2.058181
| 23> *
| 24>
| 25> #Run DFT-D3 single point of the molecule with dimer basis set
| 26> $new_job
| 27> %base "11-41_DFT_A"
| 28> ! wB97X-D3 def2-TZVP TIGHTSCF CHELPG PMODEL
| 29>
| 30> %scf
| 31> MaxIter 1000
| 32> end
| 33>
| 34> * xyz 0 1
| 35>   C                      -6.809828            -7.466043            3.576054
| 36>   O                      -7.899568            -7.122431            2.761647
| 37>   H                      -8.485116            -6.571884            3.300043
| 38>   H                      -6.140757            -8.235801            3.211368
| 39>   H                      -6.195975            -6.624707            3.804071
| 40>   H                      -7.153628            -7.872314            4.553636
| 41>   C                    : -8.009871            -4.711269            -2.147200
| 42>   O                    : -8.298918            -5.552520            -1.027599
| 43>   H                    : -8.177552            -5.122342            -0.191332
| 44>   H                    : -8.178726            -5.149591            -3.108748
| 45>   H                    : -8.576040            -3.788171            -2.055177
| 46>   H                    : -7.060665            -4.281000            -2.058181
| 47> *
| 48>
| 49> #Run DFT-D3 single point of the particle with dimer basis set
| 50> $new_job
| 51> %base "11-41_DFT_B"
| 52> ! wB97X-D3 def2-TZVP TIGHTSCF CHELPG PMODEL
| 53>
| 54> %scf
| 55> MaxIter 1000
| 56> end
| 57>
| 58> * xyz 0 1
| 59>   C                    : -6.809828            -7.466043            3.576054
| 60>   O                    : -7.899568            -7.122431            2.761647
| 61>   H                    : -8.485116            -6.571884            3.300043
| 62>   H                    : -6.140757            -8.235801            3.211368
| 63>   H                    : -6.195975            -6.624707            3.804071
| 64>   H                    : -7.153628            -7.872314            4.553636
| 65>   C                      -8.009871            -4.711269            -2.147200
| 66>   O                      -8.298918            -5.552520            -1.027599
| 67>   H                      -8.177552            -5.122342            -0.191332
| 68>   H                      -8.178726            -5.149591            -3.108748
| 69>   H                      -8.576040            -3.788171            -2.055177
| 70>   H                      -7.060665            -4.281000            -2.058181
| 71> *
| 72>
| 73>                          ****END OF INPUT****
 Total Charge           Charge          ....    0
 Multiplicity           Mult            ....    1
 Number of Electrons    NEL             ....   36
Dispersion correction           -0.000760939
FINAL SINGLE POINT ENERGY      -231.461048186144
Dispersion correction           -0.000234372
FINAL SINGLE POINT ENERGY      -115.733335348765

CARTESIAN COORDINATES (ANGSTROEM)
---------------------------------
  C     -6.809828   -7.466043    3.576054
  O     -7.899568   -7.122431    2.761647
  H     -8.485116   -6.571884    3.300043
  H     -6.140757   -8.235801    3.211368
  H     -6.195975   -6.624707    3.804071
  H     -7.153628   -7.872314    4.553636
  C     -8.009871   -4.711269   -2.147200
  O     -8.298918   -5.552520   -1.027599
  H     -8.177552   -5.122342   -0.191332
  H     -8.178726   -5.149591   -3.108748
  H     -8.576040   -3.788171   -2.055177
  H     -7.060665   -4.281000   -2.058181

 Multiplicity           Mult            ....    1
 Number of Electrons    NEL             ....   18
 Basis Dimension        Dim             ....  172

ORBITAL ENERGIES
----------------

  NO   OCC          E(Eh)            E(eV)
   0   2.0000     -19.224849      -523.1347
   1   2.0000     -10.307087      -280.4701
   2   2.0000      -1.128905       -30.7191
   3   2.0000      -0.806930       -21.9577
   4   2.0000      -0.617218       -16.7954
   5   2.0000      -0.541301       -14.7295
   6   2.0000      -0.527255       -14.3473
   7   2.0000      -0.434444       -11.8218
   8   2.0000      -0.367139        -9.9903
   9   0.0000       0.082424         2.2429
  10   0.0000       0.116895         3.1809
  11   0.0000       0.149546         4.0694
  12   0.0000       0.173094         4.7101
  13   0.0000       0.200302         5.4505

MULLIKEN ATOMIC CHARGES
-----------------------
   0 C :   -0.000160
   1 O :   -0.000079
   2 H :   -0.000006
   3 H :    0.000011
   4 H :    0.000014
   5 H :   -0.000000
   6 C :   -0.157481
   7 O :   -0.491857
   8 H :    0.315126
   9 H :    0.129877
  10 H :    0.098352
  11 H :    0.106204
Sum of atomic charges:    0.0000000

LOEWDIN ATOMIC CHARGES
----------------------
   0 C :   -0.000058
   1 O :   -0.000134
   2 H :   -0.000031
   3 H :   -0.000001
   4 H :   -0.000001
   5 H :   -0.000002
   6 C :   -0.360467
   7 O :   -0.086860
   8 H :    0.158753
   9 H :    0.105972
  10 H :    0.096071
  11 H :    0.086758

  Mayer bond orders larger than 0.1
B(  6-C ,  7-O ) :   0.9868 B(  6-C ,  9-H ) :   0.9705 B(  6-C , 10-H ) :   0.9837
B(  6-C , 11-H ) :   0.9794 B(  7-O ,  8-H ) :   0.8965

Dispersion correction           -0.000237372
FINAL SINGLE POINT ENERGY      -115.727766157609

DIPOLE MOMENT
-------------
                                X             Y             Z
Electronic contribution:     -0.36196      -1.31627       1.19579
Nuclear contribution   :      0.57758       1.98317      -1.12620
                        -----------------------------------------
Total Dipole Moment    :      0.21563       0.66690       0.06959
                        -----------------------------------------
Magnitude (a.u.)       :      0.70434
Magnitude (Debye)      :      1.79029

Rotational constants in cm-1:     4.615945     0.819321     0.778135
Rotational constants in MHz : 138382.543680 24562.616014 23327.904958

                             ****ORCA TERMINATED NORMALLY****
TOTAL RUN TIME: 0 days 0 hours 1 minutes 8 seconds 461 msec
