                         Program Version 4.1.2  - RELEASE  -
|  1> #Run DFT-D3 single point of the dimer
|  2> ! wB97X-D3 def2-TZVP TIGHTSCF CHELPG PMODEL PAL8
|  3>
|  4> %base "11-9_DFT_AB"
|  5>
|  6> %scf
|  7> MaxIter 1000
|  8> end
|  9>
| 10> * xyz 0 1
| 11>   C                      -2.148013            2.129847             1.911966
| 12>   O                      -0.703100            2.202816             2.039990
| 13>   H                      -0.327344            2.930984             1.522731
| 14>   H                      -2.414317            2.238284             0.914172
| 15>   H                      -2.582117            1.155431             2.198879
| 16>   H                      -2.594961            2.946416             2.554262
| 17>   C                      -2.237468            6.649375             3.490973
| 18>   O                      -2.712863            7.911409             3.373980
| 19>   H                      -3.701736            7.908384             3.468759
| 20>   H                      -2.968029            5.901578             3.340408
| 21>   H                      -1.342888            6.517933             2.801996
| 22>   H                      -1.780866            6.463601             4.453862
| 23> *
| 24>
| 25> #Run DFT-D3 single point of the molecule with dimer basis set
| 26> $new_job
| 27> %base "11-9_DFT_A"
| 28> ! wB97X-D3 def2-TZVP TIGHTSCF CHELPG PMODEL
| 29>
| 30> %scf
| 31> MaxIter 1000
| 32> end
| 33>
| 34> * xyz 0 1
| 35>   C                      -2.148013            2.129847             1.911966
| 36>   O                      -0.703100            2.202816             2.039990
| 37>   H                      -0.327344            2.930984             1.522731
| 38>   H                      -2.414317            2.238284             0.914172
| 39>   H                      -2.582117            1.155431             2.198879
| 40>   H                      -2.594961            2.946416             2.554262
| 41>   C                    : -2.237468            6.649375             3.490973
| 42>   O                    : -2.712863            7.911409             3.373980
| 43>   H                    : -3.701736            7.908384             3.468759
| 44>   H                    : -2.968029            5.901578             3.340408
| 45>   H                    : -1.342888            6.517933             2.801996
| 46>   H                    : -1.780866            6.463601             4.453862
| 47> *
| 48>
| 49> #Run DFT-D3 single point of the particle with dimer basis set
| 50> $new_job
| 51> %base "11-9_DFT_B"
| 52> ! wB97X-D3 def2-TZVP TIGHTSCF CHELPG PMODEL
| 53>
| 54> %scf
| 55> MaxIter 1000
| 56> end
| 57>
| 58> * xyz 0 1
| 59>   C                    : -2.148013            2.129847             1.911966
| 60>   O                    : -0.703100            2.202816             2.039990
| 61>   H                    : -0.327344            2.930984             1.522731
| 62>   H                    : -2.414317            2.238284             0.914172
| 63>   H                    : -2.582117            1.155431             2.198879
| 64>   H                    : -2.594961            2.946416             2.554262
| 65>   C                      -2.237468            6.649375             3.490973
| 66>   O                      -2.712863            7.911409             3.373980
| 67>   H                      -3.701736            7.908384             3.468759
| 68>   H                      -2.968029            5.901578             3.340408
| 69>   H                      -1.342888            6.517933             2.801996
| 70>   H                      -1.780866            6.463601             4.453862
| 71> *
| 72>
| 73>                          ****END OF INPUT****
 Total Charge           Charge          ....    0
 Multiplicity           Mult            ....    1
 Number of Electrons    NEL             ....   36
Dispersion correction           -0.000979481
FINAL SINGLE POINT ENERGY      -231.459576239078
Dispersion correction           -0.000260017
FINAL SINGLE POINT ENERGY      -115.729942949007

CARTESIAN COORDINATES (ANGSTROEM)
---------------------------------
  C     -2.148013    2.129847    1.911966
  O     -0.703100    2.202816    2.039990
  H     -0.327344    2.930984    1.522731
  H     -2.414317    2.238284    0.914172
  H     -2.582117    1.155431    2.198879
  H     -2.594961    2.946416    2.554262
  C     -2.237468    6.649375    3.490973
  O     -2.712863    7.911409    3.373980
  H     -3.701736    7.908384    3.468759
  H     -2.968029    5.901578    3.340408
  H     -1.342888    6.517933    2.801996
  H     -1.780866    6.463601    4.453862

 Multiplicity           Mult            ....    1
 Number of Electrons    NEL             ....   18
 Basis Dimension        Dim             ....  172

ORBITAL ENERGIES
----------------

  NO   OCC          E(Eh)            E(eV)
   0   2.0000     -19.232675      -523.3477
   1   2.0000     -10.305779      -280.4345
   2   2.0000      -1.149971       -31.2923
   3   2.0000      -0.791586       -21.5402
   4   2.0000      -0.625034       -17.0081
   5   2.0000      -0.545742       -14.8504
   6   2.0000      -0.530707       -14.4413
   7   2.0000      -0.431902       -11.7526
   8   2.0000      -0.364060        -9.9066
   9   0.0000       0.083290         2.2664
  10   0.0000       0.110700         3.0123
  11   0.0000       0.147733         4.0200
  12   0.0000       0.161676         4.3994
  13   0.0000       0.186361         5.0712

MULLIKEN ATOMIC CHARGES
-----------------------
   0 C :    0.000401
   1 O :    0.000030
   2 H :   -0.000105
   3 H :   -0.000010
   4 H :   -0.000036
   5 H :   -0.001077
   6 C :   -0.148647
   7 O :   -0.462455
   8 H :    0.320431
   9 H :    0.100717
  10 H :    0.099956
  11 H :    0.090793
Sum of atomic charges:   -0.0000000

LOEWDIN ATOMIC CHARGES
----------------------
   0 C :   -0.000254
   1 O :   -0.000010
   2 H :   -0.000104
   3 H :   -0.000005
   4 H :   -0.000003
   5 H :   -0.000923
   6 C :   -0.436942
   7 O :   -0.044151
   8 H :    0.194433
   9 H :    0.086194
  10 H :    0.111373
  11 H :    0.090393

  Mayer bond orders larger than 0.1
B(  6-C ,  7-O ) :   1.0246 B(  6-C ,  9-H ) :   0.9871 B(  6-C , 10-H ) :   0.9763
B(  6-C , 11-H ) :   0.9746 B(  7-O ,  8-H ) :   0.8911

Dispersion correction           -0.000231256
FINAL SINGLE POINT ENERGY      -115.729154066583

DIPOLE MOMENT
-------------
                                X             Y             Z
Electronic contribution:     -0.68715       1.73764      -0.19217
Nuclear contribution   :      0.19576      -2.19641       0.30125
                        -----------------------------------------
Total Dipole Moment    :     -0.49139      -0.45877       0.10907
                        -----------------------------------------
Magnitude (a.u.)       :      0.68105
Magnitude (Debye)      :      1.73110

Rotational constants in cm-1:     4.341231     0.890827     0.844660
Rotational constants in MHz : 130146.816603 26706.313496 25322.260534

                             ****ORCA TERMINATED NORMALLY****
TOTAL RUN TIME: 0 days 0 hours 1 minutes 10 seconds 933 msec
