                         Program Version 4.1.2  - RELEASE  -
|  1> #Run DFT-D3 single point of the dimer
|  2> ! wB97X-D3 def2-TZVP TIGHTSCF CHELPG PMODEL PAL8
|  3>
|  4> %base "5-38_DFT_AB"
|  5>
|  6> %scf
|  7> MaxIter 1000
|  8> end
|  9>
| 10> * xyz 0 1
| 11>   C                      0.049032             -10.783737           -3.547147
| 12>   O                      -1.245113            -10.968864           -2.996254
| 13>   H                      -1.364851            -11.804296           -2.480069
| 14>   H                      0.119904             -9.931125            -4.234255
| 15>   H                      0.661525             -10.373009           -2.824909
| 16>   H                      0.387264             -11.742814           -4.004112
| 17>   C                      -4.350654            -7.487115            -4.809428
| 18>   O                      -3.860675            -8.269056            -3.732070
| 19>   H                      -2.962024            -7.911483            -3.592213
| 20>   H                      -3.912617            -7.782667            -5.798155
| 21>   H                      -5.418089            -7.570817            -4.968837
| 22>   H                      -4.153602            -6.416138            -4.726686
| 23> *
| 24>
| 25> #Run DFT-D3 single point of the molecule with dimer basis set
| 26> $new_job
| 27> %base "5-38_DFT_A"
| 28> ! wB97X-D3 def2-TZVP TIGHTSCF CHELPG PMODEL
| 29>
| 30> %scf
| 31> MaxIter 1000
| 32> end
| 33>
| 34> * xyz 0 1
| 35>   C                      0.049032             -10.783737           -3.547147
| 36>   O                      -1.245113            -10.968864           -2.996254
| 37>   H                      -1.364851            -11.804296           -2.480069
| 38>   H                      0.119904             -9.931125            -4.234255
| 39>   H                      0.661525             -10.373009           -2.824909
| 40>   H                      0.387264             -11.742814           -4.004112
| 41>   C                    : -4.350654            -7.487115            -4.809428
| 42>   O                    : -3.860675            -8.269056            -3.732070
| 43>   H                    : -2.962024            -7.911483            -3.592213
| 44>   H                    : -3.912617            -7.782667            -5.798155
| 45>   H                    : -5.418089            -7.570817            -4.968837
| 46>   H                    : -4.153602            -6.416138            -4.726686
| 47> *
| 48>
| 49> #Run DFT-D3 single point of the particle with dimer basis set
| 50> $new_job
| 51> %base "5-38_DFT_B"
| 52> ! wB97X-D3 def2-TZVP TIGHTSCF CHELPG PMODEL
| 53>
| 54> %scf
| 55> MaxIter 1000
| 56> end
| 57>
| 58> * xyz 0 1
| 59>   C                    : 0.049032             -10.783737           -3.547147
| 60>   O                    : -1.245113            -10.968864           -2.996254
| 61>   H                    : -1.364851            -11.804296           -2.480069
| 62>   H                    : 0.119904             -9.931125            -4.234255
| 63>   H                    : 0.661525             -10.373009           -2.824909
| 64>   H                    : 0.387264             -11.742814           -4.004112
| 65>   C                      -4.350654            -7.487115            -4.809428
| 66>   O                      -3.860675            -8.269056            -3.732070
| 67>   H                      -2.962024            -7.911483            -3.592213
| 68>   H                      -3.912617            -7.782667            -5.798155
| 69>   H                      -5.418089            -7.570817            -4.968837
| 70>   H                      -4.153602            -6.416138            -4.726686
| 71> *
| 72>
| 73>                          ****END OF INPUT****
 Total Charge           Charge          ....    0
 Multiplicity           Mult            ....    1
 Number of Electrons    NEL             ....   36
Dispersion correction           -0.000940766
FINAL SINGLE POINT ENERGY      -231.457500257383
Dispersion correction           -0.000251193
FINAL SINGLE POINT ENERGY      -115.724249475448

CARTESIAN COORDINATES (ANGSTROEM)
---------------------------------
  C      0.049032  -10.783737   -3.547147
  O     -1.245113  -10.968864   -2.996254
  H     -1.364851  -11.804296   -2.480069
  H      0.119904   -9.931125   -4.234255
  H      0.661525  -10.373009   -2.824909
  H      0.387264  -11.742814   -4.004112
  C     -4.350654   -7.487115   -4.809428
  O     -3.860675   -8.269056   -3.732070
  H     -2.962024   -7.911483   -3.592213
  H     -3.912617   -7.782667   -5.798155
  H     -5.418089   -7.570817   -4.968837
  H     -4.153602   -6.416138   -4.726686

 Multiplicity           Mult            ....    1
 Number of Electrons    NEL             ....   18
 Basis Dimension        Dim             ....  172

ORBITAL ENERGIES
----------------

  NO   OCC          E(Eh)            E(eV)
   0   2.0000     -19.238007      -523.4928
   1   2.0000     -10.315332      -280.6945
   2   2.0000      -1.137002       -30.9394
   3   2.0000      -0.794240       -21.6124
   4   2.0000      -0.610145       -16.6029
   5   2.0000      -0.533929       -14.5290
   6   2.0000      -0.530336       -14.4312
   7   2.0000      -0.440892       -11.9973
   8   2.0000      -0.374648       -10.1947
   9   0.0000       0.082889         2.2555
  10   0.0000       0.117020         3.1843
  11   0.0000       0.149056         4.0560
  12   0.0000       0.165668         4.5080
  13   0.0000       0.197129         5.3642

MULLIKEN ATOMIC CHARGES
-----------------------
   0 C :   -0.000688
   1 O :   -0.000293
   2 H :   -0.000011
   3 H :   -0.000213
   4 H :    0.000050
   5 H :    0.000006
   6 C :   -0.182879
   7 O :   -0.462778
   8 H :    0.319805
   9 H :    0.094682
  10 H :    0.123597
  11 H :    0.108724
Sum of atomic charges:    0.0000000

LOEWDIN ATOMIC CHARGES
----------------------
   0 C :   -0.000401
   1 O :   -0.000621
   2 H :   -0.000054
   3 H :   -0.000140
   4 H :   -0.000004
   5 H :   -0.000005
   6 C :   -0.396382
   7 O :   -0.082613
   8 H :    0.183937
   9 H :    0.097404
  10 H :    0.104736
  11 H :    0.094143

  Mayer bond orders larger than 0.1
B(  6-C ,  7-O ) :   1.0069 B(  6-C ,  9-H ) :   0.9742 B(  6-C , 10-H ) :   0.9738
B(  6-C , 11-H ) :   0.9766 B(  7-O ,  8-H ) :   0.8961

Dispersion correction           -0.000249578
FINAL SINGLE POINT ENERGY      -115.733813545995

DIPOLE MOMENT
-------------
                                X             Y             Z
Electronic contribution:      0.47679      -1.14156       1.56398
Nuclear contribution   :     -0.13066       1.67853      -1.88631
                        -----------------------------------------
Total Dipole Moment    :      0.34613       0.53697      -0.32233
                        -----------------------------------------
Magnitude (a.u.)       :      0.71557
Magnitude (Debye)      :      1.81883

Rotational constants in cm-1:     4.337895     0.818666     0.788400
Rotational constants in MHz : 130046.819067 24542.992261 23635.627287

                             ****ORCA TERMINATED NORMALLY****
TOTAL RUN TIME: 0 days 0 hours 0 minutes 51 seconds 992 msec
