                         Program Version 4.1.2  - RELEASE  -
|  1> #Run DFT-D3 single point of the dimer
|  2> ! wB97X-D3 def2-TZVP TIGHTSCF CHELPG PMODEL PAL8
|  3>
|  4> %base "11-189_DFT_AB"
|  5>
|  6> %scf
|  7> MaxIter 1000
|  8> end
|  9>
| 10> * xyz 0 1
| 11>   C                      -9.575196            3.290191             -11.082870
| 12>   O                      -9.392839            4.161555             -9.997850
| 13>   H                      -8.632859            4.743500             -10.328710
| 14>   H                      -8.707762            2.622306             -11.315709
| 15>   H                      -10.555590           2.763396             -10.983793
| 16>   H                      -9.667619            3.920591             -12.010285
| 17>   C                      -8.471510            6.676102             -8.548774
| 18>   O                      -7.695524            6.375627             -9.654351
| 19>   H                      -8.332927            6.645817             -10.345592
| 20>   H                      -7.918044            7.033419             -7.642975
| 21>   H                      -9.113098            7.540617             -8.649670
| 22>   H                      -9.064198            5.845080             -8.224748
| 23> *
| 24>
| 25> #Run DFT-D3 single point of the molecule with dimer basis set
| 26> $new_job
| 27> %base "11-189_DFT_A"
| 28> ! wB97X-D3 def2-TZVP TIGHTSCF CHELPG PMODEL
| 29>
| 30> %scf
| 31> MaxIter 1000
| 32> end
| 33>
| 34> * xyz 0 1
| 35>   C                      -9.575196            3.290191             -11.082870
| 36>   O                      -9.392839            4.161555             -9.997850
| 37>   H                      -8.632859            4.743500             -10.328710
| 38>   H                      -8.707762            2.622306             -11.315709
| 39>   H                      -10.555590           2.763396             -10.983793
| 40>   H                      -9.667619            3.920591             -12.010285
| 41>   C                    : -8.471510            6.676102             -8.548774
| 42>   O                    : -7.695524            6.375627             -9.654351
| 43>   H                    : -8.332927            6.645817             -10.345592
| 44>   H                    : -7.918044            7.033419             -7.642975
| 45>   H                    : -9.113098            7.540617             -8.649670
| 46>   H                    : -9.064198            5.845080             -8.224748
| 47> *
| 48>
| 49> #Run DFT-D3 single point of the particle with dimer basis set
| 50> $new_job
| 51> %base "11-189_DFT_B"
| 52> ! wB97X-D3 def2-TZVP TIGHTSCF CHELPG PMODEL
| 53>
| 54> %scf
| 55> MaxIter 1000
| 56> end
| 57>
| 58> * xyz 0 1
| 59>   C                    : -9.575196            3.290191             -11.082870
| 60>   O                    : -9.392839            4.161555             -9.997850
| 61>   H                    : -8.632859            4.743500             -10.328710
| 62>   H                    : -8.707762            2.622306             -11.315709
| 63>   H                    : -10.555590           2.763396             -10.983793
| 64>   H                    : -9.667619            3.920591             -12.010285
| 65>   C                      -8.471510            6.676102             -8.548774
| 66>   O                      -7.695524            6.375627             -9.654351
| 67>   H                      -8.332927            6.645817             -10.345592
| 68>   H                      -7.918044            7.033419             -7.642975
| 69>   H                      -9.113098            7.540617             -8.649670
| 70>   H                      -9.064198            5.845080             -8.224748
| 71> *
| 72>
| 73>                          ****END OF INPUT****
 Total Charge           Charge          ....    0
 Multiplicity           Mult            ....    1
 Number of Electrons    NEL             ....   36
Dispersion correction           -0.001733156
FINAL SINGLE POINT ENERGY      -231.460598344120
Dispersion correction           -0.000229775
FINAL SINGLE POINT ENERGY      -115.729689761159

CARTESIAN COORDINATES (ANGSTROEM)
---------------------------------
  C     -9.575196    3.290191  -11.082870
  O     -9.392839    4.161555   -9.997850
  H     -8.632859    4.743500  -10.328710
  H     -8.707762    2.622306  -11.315709
  H    -10.555590    2.763396  -10.983793
  H     -9.667619    3.920591  -12.010285
  C     -8.471510    6.676102   -8.548774
  O     -7.695524    6.375627   -9.654351
  H     -8.332927    6.645817  -10.345592
  H     -7.918044    7.033419   -7.642975
  H     -9.113098    7.540617   -8.649670
  H     -9.064198    5.845080   -8.224748

 Multiplicity           Mult            ....    1
 Number of Electrons    NEL             ....   18
 Basis Dimension        Dim             ....  172

ORBITAL ENERGIES
----------------

  NO   OCC          E(Eh)            E(eV)
   0   2.0000     -19.240506      -523.5608
   1   2.0000     -10.309570      -280.5377
   2   2.0000      -1.152920       -31.3726
   3   2.0000      -0.792971       -21.5778
   4   2.0000      -0.617098       -16.7921
   5   2.0000      -0.552597       -15.0369
   6   2.0000      -0.530213       -14.4278
   7   2.0000      -0.431825       -11.7505
   8   2.0000      -0.378783       -10.3072
   9   0.0000       0.085439         2.3249
  10   0.0000       0.123425         3.3586
  11   0.0000       0.149188         4.0596
  12   0.0000       0.181635         4.9425
  13   0.0000       0.197576         5.3763

MULLIKEN ATOMIC CHARGES
-----------------------
   0 C :    0.002679
   1 O :    0.003829
   2 H :   -0.023777
   3 H :   -0.000265
   4 H :    0.000012
   5 H :   -0.000622
   6 C :   -0.195775
   7 O :   -0.431762
   8 H :    0.324688
   9 H :    0.111782
  10 H :    0.104491
  11 H :    0.104721
Sum of atomic charges:   -0.0000000

LOEWDIN ATOMIC CHARGES
----------------------
   0 C :   -0.001004
   1 O :   -0.010848
   2 H :   -0.036895
   3 H :   -0.000038
   4 H :   -0.000014
   5 H :   -0.000153
   6 C :   -0.423847
   7 O :   -0.022646
   8 H :    0.197698
   9 H :    0.110907
  10 H :    0.093929
  11 H :    0.092911

  Mayer bond orders larger than 0.1
B(  6-C ,  7-O ) :   1.0182 B(  6-C ,  9-H ) :   0.9741 B(  6-C , 10-H ) :   0.9835
B(  6-C , 11-H ) :   0.9782 B(  7-O ,  8-H ) :   0.8949

Dispersion correction           -0.000224780
FINAL SINGLE POINT ENERGY      -115.727864779214

DIPOLE MOMENT
-------------
                                X             Y             Z
Electronic contribution:      1.22496      -0.54164      -1.53441
Nuclear contribution   :     -1.89272       0.85630       1.51598
                        -----------------------------------------
Total Dipole Moment    :     -0.66775       0.31466      -0.01843
                        -----------------------------------------
Magnitude (a.u.)       :      0.73841
Magnitude (Debye)      :      1.87688

Rotational constants in cm-1:     4.398183     0.853864     0.827519
Rotational constants in MHz : 131854.215389 25598.188564 24808.388397

                             ****ORCA TERMINATED NORMALLY****
TOTAL RUN TIME: 0 days 0 hours 1 minutes 15 seconds 857 msec
