                         Program Version 4.1.2  - RELEASE  -
|  1> #Run DFT-D3 single point of the dimer
|  2> ! wB97X-D3 def2-TZVP TIGHTSCF CHELPG PMODEL PAL8
|  3>
|  4> %base "11-154_DFT_AB"
|  5>
|  6> %scf
|  7> MaxIter 1000
|  8> end
|  9>
| 10> * xyz 0 1
| 11>   C                      -5.235882            3.625782             3.629223
| 12>   O                      -5.157352            3.575601             2.260142
| 13>   H                      -5.339816            4.474139             1.905838
| 14>   H                      -4.746919            2.763487             4.126884
| 15>   H                      -4.722941            4.481456             4.022618
| 16>   H                      -6.300535            3.639498             3.943306
| 17>   C                      -7.362782            6.392833             -0.031246
| 18>   O                      -6.746706            5.358698             0.595294
| 19>   H                      -7.008309            4.498787             0.148125
| 20>   H                      -7.361403            7.336571             0.467680
| 21>   H                      -7.100800            6.503015             -1.023257
| 22>   H                      -8.394243            6.060086             -0.106421
| 23> *
| 24>
| 25> #Run DFT-D3 single point of the molecule with dimer basis set
| 26> $new_job
| 27> %base "11-154_DFT_A"
| 28> ! wB97X-D3 def2-TZVP TIGHTSCF CHELPG PMODEL
| 29>
| 30> %scf
| 31> MaxIter 1000
| 32> end
| 33>
| 34> * xyz 0 1
| 35>   C                      -5.235882            3.625782             3.629223
| 36>   O                      -5.157352            3.575601             2.260142
| 37>   H                      -5.339816            4.474139             1.905838
| 38>   H                      -4.746919            2.763487             4.126884
| 39>   H                      -4.722941            4.481456             4.022618
| 40>   H                      -6.300535            3.639498             3.943306
| 41>   C                    : -7.362782            6.392833             -0.031246
| 42>   O                    : -6.746706            5.358698             0.595294
| 43>   H                    : -7.008309            4.498787             0.148125
| 44>   H                    : -7.361403            7.336571             0.467680
| 45>   H                    : -7.100800            6.503015             -1.023257
| 46>   H                    : -8.394243            6.060086             -0.106421
| 47> *
| 48>
| 49> #Run DFT-D3 single point of the particle with dimer basis set
| 50> $new_job
| 51> %base "11-154_DFT_B"
| 52> ! wB97X-D3 def2-TZVP TIGHTSCF CHELPG PMODEL
| 53>
| 54> %scf
| 55> MaxIter 1000
| 56> end
| 57>
| 58> * xyz 0 1
| 59>   C                    : -5.235882            3.625782             3.629223
| 60>   O                    : -5.157352            3.575601             2.260142
| 61>   H                    : -5.339816            4.474139             1.905838
| 62>   H                    : -4.746919            2.763487             4.126884
| 63>   H                    : -4.722941            4.481456             4.022618
| 64>   H                    : -6.300535            3.639498             3.943306
| 65>   C                      -7.362782            6.392833             -0.031246
| 66>   O                      -6.746706            5.358698             0.595294
| 67>   H                      -7.008309            4.498787             0.148125
| 68>   H                      -7.361403            7.336571             0.467680
| 69>   H                      -7.100800            6.503015             -1.023257
| 70>   H                      -8.394243            6.060086             -0.106421
| 71> *
| 72>
| 73>                          ****END OF INPUT****
 Total Charge           Charge          ....    0
 Multiplicity           Mult            ....    1
 Number of Electrons    NEL             ....   36
Dispersion correction           -0.001340509
FINAL SINGLE POINT ENERGY      -231.464473084444
Dispersion correction           -0.000224264
FINAL SINGLE POINT ENERGY      -115.734149146766

CARTESIAN COORDINATES (ANGSTROEM)
---------------------------------
  C     -5.235882    3.625782    3.629223
  O     -5.157352    3.575601    2.260142
  H     -5.339816    4.474139    1.905838
  H     -4.746919    2.763487    4.126884
  H     -4.722941    4.481456    4.022618
  H     -6.300535    3.639498    3.943306
  C     -7.362782    6.392833   -0.031246
  O     -6.746706    5.358698    0.595294
  H     -7.008309    4.498787    0.148125
  H     -7.361403    7.336571    0.467680
  H     -7.100800    6.503015   -1.023257
  H     -8.394243    6.060086   -0.106421

 Multiplicity           Mult            ....    1
 Number of Electrons    NEL             ....   18
 Basis Dimension        Dim             ....  172

ORBITAL ENERGIES
----------------

  NO   OCC          E(Eh)            E(eV)
   0   2.0000     -19.230571      -523.2905
   1   2.0000     -10.297135      -280.1993
   2   2.0000      -1.146748       -31.2046
   3   2.0000      -0.796643       -21.6778
   4   2.0000      -0.621474       -16.9112
   5   2.0000      -0.548325       -14.9207
   6   2.0000      -0.545110       -14.8332
   7   2.0000      -0.427439       -11.6312
   8   2.0000      -0.363313        -9.8863
   9   0.0000       0.095085         2.5874
  10   0.0000       0.116234         3.1629
  11   0.0000       0.158161         4.3038
  12   0.0000       0.196889         5.3576
  13   0.0000       0.204877         5.5750

MULLIKEN ATOMIC CHARGES
-----------------------
   0 C :   -0.000036
   1 O :    0.000982
   2 H :   -0.011482
   3 H :   -0.000111
   4 H :   -0.000111
   5 H :   -0.000749
   6 C :   -0.151739
   7 O :   -0.465754
   8 H :    0.323838
   9 H :    0.121129
  10 H :    0.096189
  11 H :    0.087844
Sum of atomic charges:   -0.0000000

LOEWDIN ATOMIC CHARGES
----------------------
   0 C :   -0.001721
   1 O :   -0.004754
   2 H :   -0.028930
   3 H :   -0.000032
   4 H :   -0.000033
   5 H :   -0.000351
   6 C :   -0.419815
   7 O :   -0.029556
   8 H :    0.204246
   9 H :    0.104624
  10 H :    0.079638
  11 H :    0.096683

  Mayer bond orders larger than 0.1
B(  6-C ,  7-O ) :   0.9941 B(  6-C ,  9-H ) :   0.9716 B(  6-C , 10-H ) :   0.9738
B(  6-C , 11-H ) :   0.9986 B(  7-O ,  8-H ) :   0.8827

Dispersion correction           -0.000195874
FINAL SINGLE POINT ENERGY      -115.722599517375

DIPOLE MOMENT
-------------
                                X             Y             Z
Electronic contribution:      1.07580      -1.11133       0.95628
Nuclear contribution   :     -1.48886       0.96873      -1.48811
                        -----------------------------------------
Total Dipole Moment    :     -0.41306      -0.14260      -0.53183
                        -----------------------------------------
Magnitude (a.u.)       :      0.68833
Magnitude (Debye)      :      1.74960

Rotational constants in cm-1:     4.509726     0.896987     0.851418
Rotational constants in MHz : 135198.197172 26891.000693 25524.857635

                             ****ORCA TERMINATED NORMALLY****
TOTAL RUN TIME: 0 days 0 hours 1 minutes 12 seconds 727 msec
