                         Program Version 4.1.2  - RELEASE  -
|  1> #Run DFT-D3 single point of the dimer
|  2> ! wB97X-D3 def2-TZVP TIGHTSCF CHELPG PMODEL PAL8
|  3>
|  4> %base "11-122_DFT_AB"
|  5>
|  6> %scf
|  7> MaxIter 1000
|  8> end
|  9>
| 10> * xyz 0 1
| 11>   C                      -9.077613            5.057390             5.420772
| 12>   O                      -8.869812            6.423419             5.681312
| 13>   H                      -9.673944            6.927638             5.424677
| 14>   H                      -9.769286            4.564212             6.147987
| 15>   H                      -9.462591            4.906891             4.415890
| 16>   H                      -8.125936            4.472946             5.431620
| 17>   C                      -5.918653            5.943443             7.309393
| 18>   O                      -5.397078            5.313272             8.504120
| 19>   H                      -4.765617            4.649269             8.200209
| 20>   H                      -6.454968            6.862204             7.586693
| 21>   H                      -5.096273            6.137884             6.604447
| 22>   H                      -6.605557            5.235356             6.785779
| 23> *
| 24>
| 25> #Run DFT-D3 single point of the molecule with dimer basis set
| 26> $new_job
| 27> %base "11-122_DFT_A"
| 28> ! wB97X-D3 def2-TZVP TIGHTSCF CHELPG PMODEL
| 29>
| 30> %scf
| 31> MaxIter 1000
| 32> end
| 33>
| 34> * xyz 0 1
| 35>   C                      -9.077613            5.057390             5.420772
| 36>   O                      -8.869812            6.423419             5.681312
| 37>   H                      -9.673944            6.927638             5.424677
| 38>   H                      -9.769286            4.564212             6.147987
| 39>   H                      -9.462591            4.906891             4.415890
| 40>   H                      -8.125936            4.472946             5.431620
| 41>   C                    : -5.918653            5.943443             7.309393
| 42>   O                    : -5.397078            5.313272             8.504120
| 43>   H                    : -4.765617            4.649269             8.200209
| 44>   H                    : -6.454968            6.862204             7.586693
| 45>   H                    : -5.096273            6.137884             6.604447
| 46>   H                    : -6.605557            5.235356             6.785779
| 47> *
| 48>
| 49> #Run DFT-D3 single point of the particle with dimer basis set
| 50> $new_job
| 51> %base "11-122_DFT_B"
| 52> ! wB97X-D3 def2-TZVP TIGHTSCF CHELPG PMODEL
| 53>
| 54> %scf
| 55> MaxIter 1000
| 56> end
| 57>
| 58> * xyz 0 1
| 59>   C                    : -9.077613            5.057390             5.420772
| 60>   O                    : -8.869812            6.423419             5.681312
| 61>   H                    : -9.673944            6.927638             5.424677
| 62>   H                    : -9.769286            4.564212             6.147987
| 63>   H                    : -9.462591            4.906891             4.415890
| 64>   H                    : -8.125936            4.472946             5.431620
| 65>   C                      -5.918653            5.943443             7.309393
| 66>   O                      -5.397078            5.313272             8.504120
| 67>   H                      -4.765617            4.649269             8.200209
| 68>   H                      -6.454968            6.862204             7.586693
| 69>   H                      -5.096273            6.137884             6.604447
| 70>   H                      -6.605557            5.235356             6.785779
| 71> *
| 72>
| 73>                          ****END OF INPUT****
 Total Charge           Charge          ....    0
 Multiplicity           Mult            ....    1
 Number of Electrons    NEL             ....   36
Dispersion correction           -0.001707466
FINAL SINGLE POINT ENERGY      -231.471198218352
Dispersion correction           -0.000253096
FINAL SINGLE POINT ENERGY      -115.735053879161

CARTESIAN COORDINATES (ANGSTROEM)
---------------------------------
  C     -9.077613    5.057390    5.420772
  O     -8.869812    6.423419    5.681312
  H     -9.673944    6.927638    5.424677
  H     -9.769286    4.564212    6.147987
  H     -9.462591    4.906891    4.415890
  H     -8.125936    4.472946    5.431620
  C     -5.918653    5.943443    7.309393
  O     -5.397078    5.313272    8.504120
  H     -4.765617    4.649269    8.200209
  H     -6.454968    6.862204    7.586693
  H     -5.096273    6.137884    6.604447
  H     -6.605557    5.235356    6.785779

 Multiplicity           Mult            ....    1
 Number of Electrons    NEL             ....   18
 Basis Dimension        Dim             ....  172

ORBITAL ENERGIES
----------------

  NO   OCC          E(Eh)            E(eV)
   0   2.0000     -19.229350      -523.2572
   1   2.0000     -10.320069      -280.8234
   2   2.0000      -1.125705       -30.6320
   3   2.0000      -0.791718       -21.5437
   4   2.0000      -0.604238       -16.4422
   5   2.0000      -0.532790       -14.4980
   6   2.0000      -0.524687       -14.2775
   7   2.0000      -0.440097       -11.9756
   8   2.0000      -0.371532       -10.1099
   9   0.0000       0.084524         2.3000
  10   0.0000       0.114170         3.1067
  11   0.0000       0.154169         4.1951
  12   0.0000       0.162103         4.4110
  13   0.0000       0.191874         5.2212

MULLIKEN ATOMIC CHARGES
-----------------------
   0 C :    0.001529
   1 O :   -0.001010
   2 H :   -0.000138
   3 H :   -0.000375
   4 H :    0.000081
   5 H :   -0.002333
   6 C :   -0.176047
   7 O :   -0.475223
   8 H :    0.312804
   9 H :    0.124838
  10 H :    0.109578
  11 H :    0.106296
Sum of atomic charges:   -0.0000000

LOEWDIN ATOMIC CHARGES
----------------------
   0 C :   -0.008874
   1 O :   -0.002288
   2 H :   -0.000113
   3 H :   -0.000194
   4 H :   -0.000071
   5 H :   -0.007207
   6 C :   -0.360233
   7 O :   -0.104972
   8 H :    0.168672
   9 H :    0.111055
  10 H :    0.097037
  11 H :    0.107187

  Mayer bond orders larger than 0.1
B(  6-C ,  7-O ) :   0.9846 B(  6-C ,  9-H ) :   0.9685 B(  6-C , 10-H ) :   0.9763
B(  6-C , 11-H ) :   0.9740 B(  7-O ,  8-H ) :   0.9017

Dispersion correction           -0.000242667
FINAL SINGLE POINT ENERGY      -115.735278412974

DIPOLE MOMENT
-------------
                                X             Y             Z
Electronic contribution:      0.54875      -0.59762       1.60285
Nuclear contribution   :     -0.35691       0.44741      -2.27935
                        -----------------------------------------
Total Dipole Moment    :      0.19184      -0.15021      -0.67650
                        -----------------------------------------
Magnitude (a.u.)       :      0.71904
Magnitude (Debye)      :      1.82766

Rotational constants in cm-1:     4.130387     0.807051     0.772933
Rotational constants in MHz : 123825.891666 24194.768878 23171.943275

                             ****ORCA TERMINATED NORMALLY****
TOTAL RUN TIME: 0 days 0 hours 1 minutes 4 seconds 845 msec
