                         Program Version 4.1.2  - RELEASE  -
|  1> #Run DFT-D3 single point of the dimer
|  2> ! wB97X-D3 def2-TZVP TIGHTSCF CHELPG PMODEL PAL8
|  3>
|  4> %base "8-120_DFT_AB"
|  5>
|  6> %scf
|  7> MaxIter 1000
|  8> end
|  9>
| 10> * xyz 0 1
| 11>   C                      -3.085407            1.212228             -6.857028
| 12>   O                      -4.014511            0.679533             -7.754818
| 13>   H                      -3.617017            -0.153410            -8.081807
| 14>   H                      -3.475457            2.195119             -6.416982
| 15>   H                      -2.699295            0.539996             -6.108891
| 16>   H                      -2.225274            1.472159             -7.430988
| 17>   C                      0.454296             1.063015             -5.066884
| 18>   O                      0.027373             1.018387             -6.371034
| 19>   H                      -0.179703            0.128811             -6.695658
| 20>   H                      1.451245             0.704450             -4.844679
| 21>   H                      0.373348             2.132470             -4.849588
| 22>   H                      -0.201784            0.501082             -4.370031
| 23> *
| 24>
| 25> #Run DFT-D3 single point of the molecule with dimer basis set
| 26> $new_job
| 27> %base "8-120_DFT_A"
| 28> ! wB97X-D3 def2-TZVP TIGHTSCF CHELPG PMODEL
| 29>
| 30> %scf
| 31> MaxIter 1000
| 32> end
| 33>
| 34> * xyz 0 1
| 35>   C                      -3.085407            1.212228             -6.857028
| 36>   O                      -4.014511            0.679533             -7.754818
| 37>   H                      -3.617017            -0.153410            -8.081807
| 38>   H                      -3.475457            2.195119             -6.416982
| 39>   H                      -2.699295            0.539996             -6.108891
| 40>   H                      -2.225274            1.472159             -7.430988
| 41>   C                    : 0.454296             1.063015             -5.066884
| 42>   O                    : 0.027373             1.018387             -6.371034
| 43>   H                    : -0.179703            0.128811             -6.695658
| 44>   H                    : 1.451245             0.704450             -4.844679
| 45>   H                    : 0.373348             2.132470             -4.849588
| 46>   H                    : -0.201784            0.501082             -4.370031
| 47> *
| 48>
| 49> #Run DFT-D3 single point of the particle with dimer basis set
| 50> $new_job
| 51> %base "8-120_DFT_B"
| 52> ! wB97X-D3 def2-TZVP TIGHTSCF CHELPG PMODEL
| 53>
| 54> %scf
| 55> MaxIter 1000
| 56> end
| 57>
| 58> * xyz 0 1
| 59>   C                    : -3.085407            1.212228             -6.857028
| 60>   O                    : -4.014511            0.679533             -7.754818
| 61>   H                    : -3.617017            -0.153410            -8.081807
| 62>   H                    : -3.475457            2.195119             -6.416982
| 63>   H                    : -2.699295            0.539996             -6.108891
| 64>   H                    : -2.225274            1.472159             -7.430988
| 65>   C                      0.454296             1.063015             -5.066884
| 66>   O                      0.027373             1.018387             -6.371034
| 67>   H                      -0.179703            0.128811             -6.695658
| 68>   H                      1.451245             0.704450             -4.844679
| 69>   H                      0.373348             2.132470             -4.849588
| 70>   H                      -0.201784            0.501082             -4.370031
| 71> *
| 72>
| 73>                          ****END OF INPUT****
 Total Charge           Charge          ....    0
 Multiplicity           Mult            ....    1
 Number of Electrons    NEL             ....   36
Dispersion correction           -0.001874537
FINAL SINGLE POINT ENERGY      -231.464241835579
Dispersion correction           -0.000222222
FINAL SINGLE POINT ENERGY      -115.730757499917

CARTESIAN COORDINATES (ANGSTROEM)
---------------------------------
  C     -3.085407    1.212228   -6.857028
  O     -4.014511    0.679533   -7.754818
  H     -3.617017   -0.153410   -8.081807
  H     -3.475457    2.195119   -6.416982
  H     -2.699295    0.539996   -6.108891
  H     -2.225274    1.472159   -7.430988
  C      0.454296    1.063015   -5.066884
  O      0.027373    1.018387   -6.371034
  H     -0.179703    0.128811   -6.695658
  H      1.451245    0.704450   -4.844679
  H      0.373348    2.132470   -4.849588
  H     -0.201784    0.501082   -4.370031

 Multiplicity           Mult            ....    1
 Number of Electrons    NEL             ....   18
 Basis Dimension        Dim             ....  172

ORBITAL ENERGIES
----------------

  NO   OCC          E(Eh)            E(eV)
   0   2.0000     -19.231764      -523.3229
   1   2.0000     -10.310097      -280.5520
   2   2.0000      -1.145591       -31.1731
   3   2.0000      -0.796748       -21.6806
   4   2.0000      -0.624549       -16.9949
   5   2.0000      -0.540626       -14.7112
   6   2.0000      -0.529091       -14.3973
   7   2.0000      -0.427064       -11.6210
   8   2.0000      -0.372335       -10.1317
   9   0.0000       0.086938         2.3657
  10   0.0000       0.132674         3.6102
  11   0.0000       0.151172         4.1136
  12   0.0000       0.171942         4.6788
  13   0.0000       0.190559         5.1854

MULLIKEN ATOMIC CHARGES
-----------------------
   0 C :    0.000624
   1 O :    0.000112
   2 H :   -0.000012
   3 H :   -0.001802
   4 H :   -0.006854
   5 H :   -0.004471
   6 C :   -0.133059
   7 O :   -0.472949
   8 H :    0.317967
   9 H :    0.094833
  10 H :    0.117725
  11 H :    0.087884
Sum of atomic charges:   -0.0000000

LOEWDIN ATOMIC CHARGES
----------------------
   0 C :   -0.015124
   1 O :   -0.000054
   2 H :   -0.000044
   3 H :   -0.000362
   4 H :   -0.004740
   5 H :   -0.010251
   6 C :   -0.415892
   7 O :   -0.026330
   8 H :    0.175258
   9 H :    0.089396
  10 H :    0.114259
  11 H :    0.093884

  Mayer bond orders larger than 0.1
B(  6-C ,  7-O ) :   0.9972 B(  6-C ,  9-H ) :   0.9656 B(  6-C , 10-H ) :   0.9811
B(  6-C , 11-H ) :   0.9778 B(  7-O ,  8-H ) :   0.8902

Dispersion correction           -0.000250281
FINAL SINGLE POINT ENERGY      -115.733769042203

DIPOLE MOMENT
-------------
                                X             Y             Z
Electronic contribution:     -0.45263       0.00220      -1.74750
Nuclear contribution   :      0.49018      -0.56034       2.03041
                        -----------------------------------------
Total Dipole Moment    :      0.03755      -0.55814       0.28292
                        -----------------------------------------
Magnitude (a.u.)       :      0.62687
Magnitude (Debye)      :      1.59338

Rotational constants in cm-1:     4.379855     0.865513     0.830252
Rotational constants in MHz : 131304.758920 25947.430697 24890.326569

                             ****ORCA TERMINATED NORMALLY****
TOTAL RUN TIME: 0 days 0 hours 0 minutes 47 seconds 575 msec
