                         Program Version 4.1.2  - RELEASE  -
|  1> #Run DFT-D3 single point of the dimer
|  2> ! wB97X-D3 def2-TZVP TIGHTSCF CHELPG PMODEL PAL8
|  3>
|  4> %base "9-81_DFT_AB"
|  5>
|  6> %scf
|  7> MaxIter 1000
|  8> end
|  9>
| 10> * xyz 0 1
| 11>   C                      -6.988085            5.917320             -1.756806
| 12>   O                      -5.841079            5.346315             -1.198149
| 13>   H                      -6.238028            4.725105             -0.596400
| 14>   H                      -7.469596            5.138823             -2.402609
| 15>   H                      -7.670168            6.304700             -1.043612
| 16>   H                      -6.732474            6.712058             -2.340388
| 17>   C                      -10.313336           4.520347             0.626974
| 18>   O                      -9.051052            3.988374             0.137605
| 19>   H                      -8.457549            3.809732             0.886805
| 20>   H                      -10.652423           3.813549             1.377004
| 21>   H                      -10.257700           5.542568             0.957217
| 22>   H                      -11.085574           4.508454             -0.216268
| 23> *
| 24>
| 25> #Run DFT-D3 single point of the molecule with dimer basis set
| 26> $new_job
| 27> %base "9-81_DFT_A"
| 28> ! wB97X-D3 def2-TZVP TIGHTSCF CHELPG PMODEL
| 29>
| 30> %scf
| 31> MaxIter 1000
| 32> end
| 33>
| 34> * xyz 0 1
| 35>   C                      -6.988085            5.917320             -1.756806
| 36>   O                      -5.841079            5.346315             -1.198149
| 37>   H                      -6.238028            4.725105             -0.596400
| 38>   H                      -7.469596            5.138823             -2.402609
| 39>   H                      -7.670168            6.304700             -1.043612
| 40>   H                      -6.732474            6.712058             -2.340388
| 41>   C                    : -10.313336           4.520347             0.626974
| 42>   O                    : -9.051052            3.988374             0.137605
| 43>   H                    : -8.457549            3.809732             0.886805
| 44>   H                    : -10.652423           3.813549             1.377004
| 45>   H                    : -10.257700           5.542568             0.957217
| 46>   H                    : -11.085574           4.508454             -0.216268
| 47> *
| 48>
| 49> #Run DFT-D3 single point of the particle with dimer basis set
| 50> $new_job
| 51> %base "9-81_DFT_B"
| 52> ! wB97X-D3 def2-TZVP TIGHTSCF CHELPG PMODEL
| 53>
| 54> %scf
| 55> MaxIter 1000
| 56> end
| 57>
| 58> * xyz 0 1
| 59>   C                    : -6.988085            5.917320             -1.756806
| 60>   O                    : -5.841079            5.346315             -1.198149
| 61>   H                    : -6.238028            4.725105             -0.596400
| 62>   H                    : -7.469596            5.138823             -2.402609
| 63>   H                    : -7.670168            6.304700             -1.043612
| 64>   H                    : -6.732474            6.712058             -2.340388
| 65>   C                      -10.313336           4.520347             0.626974
| 66>   O                      -9.051052            3.988374             0.137605
| 67>   H                      -8.457549            3.809732             0.886805
| 68>   H                      -10.652423           3.813549             1.377004
| 69>   H                      -10.257700           5.542568             0.957217
| 70>   H                      -11.085574           4.508454             -0.216268
| 71> *
| 72>
| 73>                          ****END OF INPUT****
 Total Charge           Charge          ....    0
 Multiplicity           Mult            ....    1
 Number of Electrons    NEL             ....   36
Dispersion correction           -0.001770030
FINAL SINGLE POINT ENERGY      -231.463872163839
Dispersion correction           -0.000197776
FINAL SINGLE POINT ENERGY      -115.729216691326

CARTESIAN COORDINATES (ANGSTROEM)
---------------------------------
  C     -6.988085    5.917320   -1.756806
  O     -5.841079    5.346315   -1.198149
  H     -6.238028    4.725105   -0.596400
  H     -7.469596    5.138823   -2.402609
  H     -7.670168    6.304700   -1.043612
  H     -6.732474    6.712058   -2.340388
  C    -10.313336    4.520347    0.626974
  O     -9.051052    3.988374    0.137605
  H     -8.457549    3.809732    0.886805
  H    -10.652423    3.813549    1.377004
  H    -10.257700    5.542568    0.957217
  H    -11.085574    4.508454   -0.216268

 Multiplicity           Mult            ....    1
 Number of Electrons    NEL             ....   18
 Basis Dimension        Dim             ....  172

ORBITAL ENERGIES
----------------

  NO   OCC          E(Eh)            E(eV)
   0   2.0000     -19.229619      -523.2645
   1   2.0000     -10.319414      -280.8055
   2   2.0000      -1.120621       -30.4936
   3   2.0000      -0.794610       -21.6224
   4   2.0000      -0.598589       -16.2884
   5   2.0000      -0.550049       -14.9676
   6   2.0000      -0.517202       -14.0738
   7   2.0000      -0.426776       -11.6132
   8   2.0000      -0.376413       -10.2427
   9   0.0000       0.094478         2.5709
  10   0.0000       0.129016         3.5107
  11   0.0000       0.145195         3.9509
  12   0.0000       0.183768         5.0006
  13   0.0000       0.192826         5.2471

MULLIKEN ATOMIC CHARGES
-----------------------
   0 C :    0.012692
   1 O :   -0.000153
   2 H :   -0.005615
   3 H :   -0.004092
   4 H :   -0.009447
   5 H :   -0.000406
   6 C :   -0.166834
   7 O :   -0.487814
   8 H :    0.316597
   9 H :    0.113230
  10 H :    0.114189
  11 H :    0.117652
Sum of atomic charges:    0.0000000

LOEWDIN ATOMIC CHARGES
----------------------
   0 C :   -0.009866
   1 O :   -0.000190
   2 H :   -0.003411
   3 H :   -0.001968
   4 H :   -0.004229
   5 H :   -0.000111
   6 C :   -0.357777
   7 O :   -0.101227
   8 H :    0.171601
   9 H :    0.097475
  10 H :    0.091499
  11 H :    0.118204

  Mayer bond orders larger than 0.1
B(  6-C ,  7-O ) :   0.9857 B(  6-C ,  9-H ) :   0.9822 B(  6-C , 10-H ) :   0.9677
B(  6-C , 11-H ) :   0.9735 B(  7-O ,  8-H ) :   0.8947

Dispersion correction           -0.000257801
FINAL SINGLE POINT ENERGY      -115.732503799545

DIPOLE MOMENT
-------------
                                X             Y             Z
Electronic contribution:      1.51917      -0.55869      -0.62889
Nuclear contribution   :     -1.70009       0.65919       1.32060
                        -----------------------------------------
Total Dipole Moment    :     -0.18091       0.10050       0.69171
                        -----------------------------------------
Magnitude (a.u.)       :      0.72200
Magnitude (Debye)      :      1.83519

Rotational constants in cm-1:     4.221568     0.791204     0.766585
Rotational constants in MHz : 126559.422006 23719.690145 22981.625874

                             ****ORCA TERMINATED NORMALLY****
TOTAL RUN TIME: 0 days 0 hours 0 minutes 43 seconds 662 msec
