                         Program Version 4.1.2  - RELEASE  -
|  1> #Run DFT-D3 single point of the dimer
|  2> ! wB97X-D3 def2-TZVP TIGHTSCF CHELPG PMODEL PAL8
|  3>
|  4> %base "16-49_DFT_AB"
|  5>
|  6> %scf
|  7> MaxIter 1000
|  8> end
|  9>
| 10> * xyz 0 1
| 11>   C                      3.918612             -5.045741            2.896027
| 12>   O                      4.275113             -3.748419            2.773380
| 13>   H                      5.177996             -3.619790            2.820687
| 14>   H                      3.911424             -5.560728            1.980114
| 15>   H                      4.669848             -5.508734            3.468600
| 16>   H                      2.869578             -5.280809            3.312576
| 17>   C                      3.794266             -8.936856            6.741659
| 18>   O                      4.132634             -9.098652            8.080715
| 19>   H                      4.927049             -9.696112            8.053022
| 20>   H                      4.635598             -8.653033            6.097929
| 21>   H                      3.378870             -9.771579            6.225077
| 22>   H                      3.085883             -8.117320            6.674257
| 23> *
| 24>
| 25> #Run DFT-D3 single point of the molecule with dimer basis set
| 26> $new_job
| 27> %base "16-49_DFT_A"
| 28> ! wB97X-D3 def2-TZVP TIGHTSCF CHELPG PMODEL
| 29>
| 30> %scf
| 31> MaxIter 1000
| 32> end
| 33>
| 34> * xyz 0 1
| 35>   C                      3.918612             -5.045741            2.896027
| 36>   O                      4.275113             -3.748419            2.773380
| 37>   H                      5.177996             -3.619790            2.820687
| 38>   H                      3.911424             -5.560728            1.980114
| 39>   H                      4.669848             -5.508734            3.468600
| 40>   H                      2.869578             -5.280809            3.312576
| 41>   C                    : 3.794266             -8.936856            6.741659
| 42>   O                    : 4.132634             -9.098652            8.080715
| 43>   H                    : 4.927049             -9.696112            8.053022
| 44>   H                    : 4.635598             -8.653033            6.097929
| 45>   H                    : 3.378870             -9.771579            6.225077
| 46>   H                    : 3.085883             -8.117320            6.674257
| 47> *
| 48>
| 49> #Run DFT-D3 single point of the particle with dimer basis set
| 50> $new_job
| 51> %base "16-49_DFT_B"
| 52> ! wB97X-D3 def2-TZVP TIGHTSCF CHELPG PMODEL
| 53>
| 54> %scf
| 55> MaxIter 1000
| 56> end
| 57>
| 58> * xyz 0 1
| 59>   C                    : 3.918612             -5.045741            2.896027
| 60>   O                    : 4.275113             -3.748419            2.773380
| 61>   H                    : 5.177996             -3.619790            2.820687
| 62>   H                    : 3.911424             -5.560728            1.980114
| 63>   H                    : 4.669848             -5.508734            3.468600
| 64>   H                    : 2.869578             -5.280809            3.312576
| 65>   C                      3.794266             -8.936856            6.741659
| 66>   O                      4.132634             -9.098652            8.080715
| 67>   H                      4.927049             -9.696112            8.053022
| 68>   H                      4.635598             -8.653033            6.097929
| 69>   H                      3.378870             -9.771579            6.225077
| 70>   H                      3.085883             -8.117320            6.674257
| 71> *
| 72>
| 73>                          ****END OF INPUT****
 Total Charge           Charge          ....    0
 Multiplicity           Mult            ....    1
 Number of Electrons    NEL             ....   36
Dispersion correction           -0.000629163
FINAL SINGLE POINT ENERGY      -231.454891730020
Dispersion correction           -0.000218031
FINAL SINGLE POINT ENERGY      -115.721941170330

CARTESIAN COORDINATES (ANGSTROEM)
---------------------------------
  C      3.918612   -5.045741    2.896027
  O      4.275113   -3.748419    2.773380
  H      5.177996   -3.619790    2.820687
  H      3.911424   -5.560728    1.980114
  H      4.669848   -5.508734    3.468600
  H      2.869578   -5.280809    3.312576
  C      3.794266   -8.936856    6.741659
  O      4.132634   -9.098652    8.080715
  H      4.927049   -9.696112    8.053022
  H      4.635598   -8.653033    6.097929
  H      3.378870   -9.771579    6.225077
  H      3.085883   -8.117320    6.674257

 Multiplicity           Mult            ....    1
 Number of Electrons    NEL             ....   18
 Basis Dimension        Dim             ....  172

ORBITAL ENERGIES
----------------

  NO   OCC          E(Eh)            E(eV)
   0   2.0000     -19.237721      -523.4850
   1   2.0000     -10.306282      -280.4482
   2   2.0000      -1.141681       -31.0667
   3   2.0000      -0.794441       -21.6178
   4   2.0000      -0.617282       -16.7971
   5   2.0000      -0.539722       -14.6866
   6   2.0000      -0.527788       -14.3618
   7   2.0000      -0.439020       -11.9463
   8   2.0000      -0.373716       -10.1693
   9   0.0000       0.084870         2.3094
  10   0.0000       0.110994         3.0203
  11   0.0000       0.143262         3.8984
  12   0.0000       0.168344         4.5809
  13   0.0000       0.186215         5.0672

MULLIKEN ATOMIC CHARGES
-----------------------
   0 C :    0.000090
   1 O :   -0.000002
   2 H :   -0.000000
   3 H :   -0.000011
   4 H :   -0.000171
   5 H :   -0.000033
   6 C :   -0.167314
   7 O :   -0.459861
   8 H :    0.316275
   9 H :    0.097234
  10 H :    0.100049
  11 H :    0.113743
Sum of atomic charges:    0.0000000

LOEWDIN ATOMIC CHARGES
----------------------
   0 C :   -0.000050
   1 O :   -0.000001
   2 H :   -0.000000
   3 H :   -0.000001
   4 H :   -0.000084
   5 H :   -0.000017
   6 C :   -0.412982
   7 O :   -0.067873
   8 H :    0.193731
   9 H :    0.093844
  10 H :    0.086357
  11 H :    0.107075

  Mayer bond orders larger than 0.1
B(  6-C ,  7-O ) :   1.0117 B(  6-C ,  9-H ) :   0.9795 B(  6-C , 10-H ) :   0.9679
B(  6-C , 11-H ) :   0.9782 B(  7-O ,  8-H ) :   0.8964

Dispersion correction           -0.000232645
FINAL SINGLE POINT ENERGY      -115.732875892537

DIPOLE MOMENT
-------------
                                X             Y             Z
Electronic contribution:      0.29892      -0.20100       1.91298
Nuclear contribution   :      0.06546      -0.10017      -2.43061
                        -----------------------------------------
Total Dipole Moment    :      0.36438      -0.30117      -0.51764
                        -----------------------------------------
Magnitude (a.u.)       :      0.70102
Magnitude (Debye)      :      1.78184

Rotational constants in cm-1:     4.380455     0.854800     0.814739
Rotational constants in MHz : 131322.727843 25626.259583 24425.259614

                             ****ORCA TERMINATED NORMALLY****
TOTAL RUN TIME: 0 days 0 hours 1 minutes 4 seconds 202 msec
