                         Program Version 4.1.2  - RELEASE  -
|  1> #Run DFT-D3 single point of the dimer
|  2> ! wB97X-D3 def2-TZVP TIGHTSCF CHELPG PMODEL PAL8
|  3>
|  4> %base "21-209_DFT_AB"
|  5>
|  6> %scf
|  7> MaxIter 1000
|  8> end
|  9>
| 10> * xyz 0 1
| 11>   C                      -6.289083            5.334921             7.284512
| 12>   O                      -6.725180            4.905632             6.021596
| 13>   H                      -7.137238            5.626637             5.594528
| 14>   H                      -5.715605            4.491401             7.694702
| 15>   H                      -5.550955            6.181531             7.229201
| 16>   H                      -7.097747            5.597236             7.867000
| 17>   C                      -8.330093            7.362695             3.610828
| 18>   O                      -8.066176            7.277533             4.993374
| 19>   H                      -8.186929            8.164020             5.340930
| 20>   H                      -7.432382            7.584020             3.103847
| 21>   H                      -8.562980            6.355931             3.234291
| 22>   H                      -9.152360            8.085369             3.390439
| 23> *
| 24>
| 25> #Run DFT-D3 single point of the molecule with dimer basis set
| 26> $new_job
| 27> %base "21-209_DFT_A"
| 28> ! wB97X-D3 def2-TZVP TIGHTSCF CHELPG PMODEL
| 29>
| 30> %scf
| 31> MaxIter 1000
| 32> end
| 33>
| 34> * xyz 0 1
| 35>   C                      -6.289083            5.334921             7.284512
| 36>   O                      -6.725180            4.905632             6.021596
| 37>   H                      -7.137238            5.626637             5.594528
| 38>   H                      -5.715605            4.491401             7.694702
| 39>   H                      -5.550955            6.181531             7.229201
| 40>   H                      -7.097747            5.597236             7.867000
| 41>   C                    : -8.330093            7.362695             3.610828
| 42>   O                    : -8.066176            7.277533             4.993374
| 43>   H                    : -8.186929            8.164020             5.340930
| 44>   H                    : -7.432382            7.584020             3.103847
| 45>   H                    : -8.562980            6.355931             3.234291
| 46>   H                    : -9.152360            8.085369             3.390439
| 47> *
| 48>
| 49> #Run DFT-D3 single point of the particle with dimer basis set
| 50> $new_job
| 51> %base "21-209_DFT_B"
| 52> ! wB97X-D3 def2-TZVP TIGHTSCF CHELPG PMODEL
| 53>
| 54> %scf
| 55> MaxIter 1000
| 56> end
| 57>
| 58> * xyz 0 1
| 59>   C                    : -6.289083            5.334921             7.284512
| 60>   O                    : -6.725180            4.905632             6.021596
| 61>   H                    : -7.137238            5.626637             5.594528
| 62>   H                    : -5.715605            4.491401             7.694702
| 63>   H                    : -5.550955            6.181531             7.229201
| 64>   H                    : -7.097747            5.597236             7.867000
| 65>   C                      -8.330093            7.362695             3.610828
| 66>   O                      -8.066176            7.277533             4.993374
| 67>   H                      -8.186929            8.164020             5.340930
| 68>   H                      -7.432382            7.584020             3.103847
| 69>   H                      -8.562980            6.355931             3.234291
| 70>   H                      -9.152360            8.085369             3.390439
| 71> *
| 72>
| 73>                          ****END OF INPUT****
 Total Charge           Charge          ....    0
 Multiplicity           Mult            ....    1
 Number of Electrons    NEL             ....   36
Dispersion correction           -0.001677495
FINAL SINGLE POINT ENERGY      -231.474527515922
Dispersion correction           -0.000222753
FINAL SINGLE POINT ENERGY      -115.733123945431

CARTESIAN COORDINATES (ANGSTROEM)
---------------------------------
  C     -6.289083    5.334921    7.284512
  O     -6.725180    4.905632    6.021596
  H     -7.137238    5.626637    5.594528
  H     -5.715605    4.491401    7.694702
  H     -5.550955    6.181531    7.229201
  H     -7.097747    5.597236    7.867000
  C     -8.330093    7.362695    3.610828
  O     -8.066176    7.277533    4.993374
  H     -8.186929    8.164020    5.340930
  H     -7.432382    7.584020    3.103847
  H     -8.562980    6.355931    3.234291
  H     -9.152360    8.085369    3.390439

 Multiplicity           Mult            ....    1
 Number of Electrons    NEL             ....   18
 Basis Dimension        Dim             ....  172

ORBITAL ENERGIES
----------------

  NO   OCC          E(Eh)            E(eV)
   0   2.0000     -19.229181      -523.2526
   1   2.0000     -10.311127      -280.5800
   2   2.0000      -1.138404       -30.9775
   3   2.0000      -0.795542       -21.6478
   4   2.0000      -0.608730       -16.5644
   5   2.0000      -0.548502       -14.9255
   6   2.0000      -0.526604       -14.3296
   7   2.0000      -0.435581       -11.8528
   8   2.0000      -0.372017       -10.1231
   9   0.0000       0.099219         2.6999
  10   0.0000       0.124224         3.3803
  11   0.0000       0.154179         4.1954
  12   0.0000       0.185145         5.0381
  13   0.0000       0.202719         5.5163

MULLIKEN ATOMIC CHARGES
-----------------------
   0 C :    0.002832
   1 O :   -0.000042
   2 H :   -0.007827
   3 H :   -0.000228
   4 H :   -0.001793
   5 H :   -0.001608
   6 C :   -0.160864
   7 O :   -0.466139
   8 H :    0.310507
   9 H :    0.107604
  10 H :    0.113432
  11 H :    0.104124
Sum of atomic charges:   -0.0000000

LOEWDIN ATOMIC CHARGES
----------------------
   0 C :   -0.004720
   1 O :   -0.004269
   2 H :   -0.034604
   3 H :   -0.000064
   4 H :   -0.000622
   5 H :   -0.000541
   6 C :   -0.383376
   7 O :   -0.040518
   8 H :    0.168934
   9 H :    0.087734
  10 H :    0.109191
  11 H :    0.102856

  Mayer bond orders larger than 0.1
B(  6-C ,  7-O ) :   0.9923 B(  6-C ,  9-H ) :   0.9779 B(  6-C , 10-H ) :   0.9803
B(  6-C , 11-H ) :   0.9742 B(  7-O ,  8-H ) :   0.9007

Dispersion correction           -0.000228554
FINAL SINGLE POINT ENERGY      -115.733743475442

DIPOLE MOMENT
-------------
                                X             Y             Z
Electronic contribution:      0.32799      -0.17400       1.73136
Nuclear contribution   :     -0.50427       0.76431      -2.06708
                        -----------------------------------------
Total Dipole Moment    :     -0.17628       0.59031      -0.33572
                        -----------------------------------------
Magnitude (a.u.)       :      0.70160
Magnitude (Debye)      :      1.78333

Rotational constants in cm-1:     4.257891     0.847110     0.806903
Rotational constants in MHz : 127648.359985 25395.721491 24190.350379

                             ****ORCA TERMINATED NORMALLY****
TOTAL RUN TIME: 0 days 0 hours 1 minutes 3 seconds 86 msec
