                         Program Version 4.1.2  - RELEASE  -
|  1> #Run DFT-D3 single point of the dimer
|  2> ! wB97X-D3 def2-TZVP TIGHTSCF CHELPG PMODEL PAL8
|  3>
|  4> %base "1-172_DFT_AB"
|  5>
|  6> %scf
|  7> MaxIter 1000
|  8> end
|  9>
| 10> * xyz 0 1
| 11>   C                      -5.817098            5.117289             0.959725
| 12>   O                      -5.056655            4.313537             0.051820
| 13>   H                      -5.327587            3.399154             0.011948
| 14>   H                      -5.612948            6.226188             0.834569
| 15>   H                      -6.906491            4.974172             0.815594
| 16>   H                      -5.504647            4.884335             1.969630
| 17>   C                      -6.296176            3.776495             -4.725563
| 18>   O                      -5.685976            3.634716             -3.483569
| 19>   H                      -5.576019            4.521717             -3.251364
| 20>   H                      -5.678511            4.378508             -5.439903
| 21>   H                      -6.424762            2.782603             -5.191134
| 22>   H                      -7.243550            4.274723             -4.592986
| 23> *
| 24>
| 25> #Run DFT-D3 single point of the molecule with dimer basis set
| 26> $new_job
| 27> %base "1-172_DFT_A"
| 28> ! wB97X-D3 def2-TZVP TIGHTSCF CHELPG PMODEL
| 29>
| 30> %scf
| 31> MaxIter 1000
| 32> end
| 33>
| 34> * xyz 0 1
| 35>   C                      -5.817098            5.117289             0.959725
| 36>   O                      -5.056655            4.313537             0.051820
| 37>   H                      -5.327587            3.399154             0.011948
| 38>   H                      -5.612948            6.226188             0.834569
| 39>   H                      -6.906491            4.974172             0.815594
| 40>   H                      -5.504647            4.884335             1.969630
| 41>   C                    : -6.296176            3.776495             -4.725563
| 42>   O                    : -5.685976            3.634716             -3.483569
| 43>   H                    : -5.576019            4.521717             -3.251364
| 44>   H                    : -5.678511            4.378508             -5.439903
| 45>   H                    : -6.424762            2.782603             -5.191134
| 46>   H                    : -7.243550            4.274723             -4.592986
| 47> *
| 48>
| 49> #Run DFT-D3 single point of the particle with dimer basis set
| 50> $new_job
| 51> %base "1-172_DFT_B"
| 52> ! wB97X-D3 def2-TZVP TIGHTSCF CHELPG PMODEL
| 53>
| 54> %scf
| 55> MaxIter 1000
| 56> end
| 57>
| 58> * xyz 0 1
| 59>   C                    : -5.817098            5.117289             0.959725
| 60>   O                    : -5.056655            4.313537             0.051820
| 61>   H                    : -5.327587            3.399154             0.011948
| 62>   H                    : -5.612948            6.226188             0.834569
| 63>   H                    : -6.906491            4.974172             0.815594
| 64>   H                    : -5.504647            4.884335             1.969630
| 65>   C                      -6.296176            3.776495             -4.725563
| 66>   O                      -5.685976            3.634716             -3.483569
| 67>   H                      -5.576019            4.521717             -3.251364
| 68>   H                      -5.678511            4.378508             -5.439903
| 69>   H                      -6.424762            2.782603             -5.191134
| 70>   H                      -7.243550            4.274723             -4.592986
| 71> *
| 72>
| 73>                          ****END OF INPUT****
 Total Charge           Charge          ....    0
 Multiplicity           Mult            ....    1
 Number of Electrons    NEL             ....   36
Dispersion correction           -0.000995505
FINAL SINGLE POINT ENERGY      -231.467699468220
Dispersion correction           -0.000265335
FINAL SINGLE POINT ENERGY      -115.733285468060

CARTESIAN COORDINATES (ANGSTROEM)
---------------------------------
  C     -5.817098    5.117289    0.959725
  O     -5.056655    4.313537    0.051820
  H     -5.327587    3.399154    0.011948
  H     -5.612948    6.226188    0.834569
  H     -6.906491    4.974172    0.815594
  H     -5.504647    4.884335    1.969630
  C     -6.296176    3.776495   -4.725563
  O     -5.685976    3.634716   -3.483569
  H     -5.576019    4.521717   -3.251364
  H     -5.678511    4.378508   -5.439903
  H     -6.424762    2.782603   -5.191134
  H     -7.243550    4.274723   -4.592986

 Multiplicity           Mult            ....    1
 Number of Electrons    NEL             ....   18
 Basis Dimension        Dim             ....  172

ORBITAL ENERGIES
----------------

  NO   OCC          E(Eh)            E(eV)
   0   2.0000     -19.228674      -523.2388
   1   2.0000     -10.314000      -280.6582
   2   2.0000      -1.157531       -31.4980
   3   2.0000      -0.791827       -21.5467
   4   2.0000      -0.618813       -16.8387
   5   2.0000      -0.549160       -14.9434
   6   2.0000      -0.527740       -14.3605
   7   2.0000      -0.441533       -12.0147
   8   2.0000      -0.373759       -10.1705
   9   0.0000       0.085414         2.3242
  10   0.0000       0.120022         3.2660
  11   0.0000       0.154780         4.2118
  12   0.0000       0.177654         4.8342
  13   0.0000       0.196770         5.3544

MULLIKEN ATOMIC CHARGES
-----------------------
   0 C :   -0.000160
   1 O :   -0.000199
   2 H :   -0.000973
   3 H :    0.000025
   4 H :   -0.000038
   5 H :   -0.000019
   6 C :   -0.169746
   7 O :   -0.449973
   8 H :    0.308525
   9 H :    0.093546
  10 H :    0.115938
  11 H :    0.103074
Sum of atomic charges:    0.0000000

LOEWDIN ATOMIC CHARGES
----------------------
   0 C :   -0.000200
   1 O :   -0.000537
   2 H :   -0.000962
   3 H :   -0.000005
   4 H :   -0.000025
   5 H :   -0.000007
   6 C :   -0.404869
   7 O :   -0.041732
   8 H :    0.150787
   9 H :    0.096063
  10 H :    0.110577
  11 H :    0.090910

  Mayer bond orders larger than 0.1
B(  6-C ,  7-O ) :   0.9986 B(  6-C ,  9-H ) :   0.9757 B(  6-C , 10-H ) :   0.9746
B(  6-C , 11-H ) :   0.9791 B(  7-O ,  8-H ) :   0.9093

Dispersion correction           -0.000203717
FINAL SINGLE POINT ENERGY      -115.732486368804

DIPOLE MOMENT
-------------
                                X             Y             Z
Electronic contribution:      0.76137      -0.36312       1.65231
Nuclear contribution   :     -0.92422       0.96261      -1.96814
                        -----------------------------------------
Total Dipole Moment    :     -0.16286       0.59949      -0.31583
                        -----------------------------------------
Magnitude (a.u.)       :      0.69690
Magnitude (Debye)      :      1.77137

Rotational constants in cm-1:     4.225464     0.866798     0.833017
Rotational constants in MHz : 126676.214264 25985.940772 24973.215964

                             ****ORCA TERMINATED NORMALLY****
TOTAL RUN TIME: 0 days 0 hours 6 minutes 2 seconds 599 msec
