                         Program Version 4.1.2  - RELEASE  -
|  1> #Run DFT-D3 single point of the dimer
|  2> ! wB97X-D3 def2-TZVP TIGHTSCF CHELPG PMODEL PAL8
|  3>
|  4> %base "5-122_DFT_AB"
|  5>
|  6> %scf
|  7> MaxIter 1000
|  8> end
|  9>
| 10> * xyz 0 1
| 11>   C                      -9.545944            -1.925808            -2.997380
| 12>   O                      -9.264013            -3.170088            -3.475293
| 13>   H                      -8.769437            -3.667740            -2.835042
| 14>   H                      -8.792932            -1.236500            -3.249073
| 15>   H                      -10.372462           -1.460632            -3.328128
| 16>   H                      -9.761016            -1.989993            -1.908970
| 17>   C                      -8.615972            1.750352             -0.385900
| 18>   O                      -8.678538            0.556185             -1.232942
| 19>   H                      -8.926801            0.819722             -2.120699
| 20>   H                      -8.126132            2.672435             -0.806661
| 21>   H                      -9.631979            2.129405             -0.183508
| 22>   H                      -8.165052            1.481727             0.625091
| 23> *
| 24>
| 25> #Run DFT-D3 single point of the molecule with dimer basis set
| 26> $new_job
| 27> %base "5-122_DFT_A"
| 28> ! wB97X-D3 def2-TZVP TIGHTSCF CHELPG PMODEL
| 29>
| 30> %scf
| 31> MaxIter 1000
| 32> end
| 33>
| 34> * xyz 0 1
| 35>   C                      -9.545944            -1.925808            -2.997380
| 36>   O                      -9.264013            -3.170088            -3.475293
| 37>   H                      -8.769437            -3.667740            -2.835042
| 38>   H                      -8.792932            -1.236500            -3.249073
| 39>   H                      -10.372462           -1.460632            -3.328128
| 40>   H                      -9.761016            -1.989993            -1.908970
| 41>   C                    : -8.615972            1.750352             -0.385900
| 42>   O                    : -8.678538            0.556185             -1.232942
| 43>   H                    : -8.926801            0.819722             -2.120699
| 44>   H                    : -8.126132            2.672435             -0.806661
| 45>   H                    : -9.631979            2.129405             -0.183508
| 46>   H                    : -8.165052            1.481727             0.625091
| 47> *
| 48>
| 49> #Run DFT-D3 single point of the particle with dimer basis set
| 50> $new_job
| 51> %base "5-122_DFT_B"
| 52> ! wB97X-D3 def2-TZVP TIGHTSCF CHELPG PMODEL
| 53>
| 54> %scf
| 55> MaxIter 1000
| 56> end
| 57>
| 58> * xyz 0 1
| 59>   C                    : -9.545944            -1.925808            -2.997380
| 60>   O                    : -9.264013            -3.170088            -3.475293
| 61>   H                    : -8.769437            -3.667740            -2.835042
| 62>   H                    : -8.792932            -1.236500            -3.249073
| 63>   H                    : -10.372462           -1.460632            -3.328128
| 64>   H                    : -9.761016            -1.989993            -1.908970
| 65>   C                      -8.615972            1.750352             -0.385900
| 66>   O                      -8.678538            0.556185             -1.232942
| 67>   H                      -8.926801            0.819722             -2.120699
| 68>   H                      -8.126132            2.672435             -0.806661
| 69>   H                      -9.631979            2.129405             -0.183508
| 70>   H                      -8.165052            1.481727             0.625091
| 71> *
| 72>
| 73>                          ****END OF INPUT****
 Total Charge           Charge          ....    0
 Multiplicity           Mult            ....    1
 Number of Electrons    NEL             ....   36
Dispersion correction           -0.001574375
FINAL SINGLE POINT ENERGY      -231.453189157111
Dispersion correction           -0.000216202
FINAL SINGLE POINT ENERGY      -115.722225614111

CARTESIAN COORDINATES (ANGSTROEM)
---------------------------------
  C     -9.545944   -1.925808   -2.997380
  O     -9.264013   -3.170088   -3.475293
  H     -8.769437   -3.667740   -2.835042
  H     -8.792932   -1.236500   -3.249073
  H    -10.372462   -1.460632   -3.328128
  H     -9.761016   -1.989993   -1.908970
  C     -8.615972    1.750352   -0.385900
  O     -8.678538    0.556185   -1.232942
  H     -8.926801    0.819722   -2.120699
  H     -8.126132    2.672435   -0.806661
  H     -9.631979    2.129405   -0.183508
  H     -8.165052    1.481727    0.625091

 Multiplicity           Mult            ....    1
 Number of Electrons    NEL             ....   18
 Basis Dimension        Dim             ....  172

ORBITAL ENERGIES
----------------

  NO   OCC          E(Eh)            E(eV)
   0   2.0000     -19.234837      -523.4065
   1   2.0000     -10.328001      -281.0392
   2   2.0000      -1.123535       -30.5729
   3   2.0000      -0.793485       -21.5918
   4   2.0000      -0.606917       -16.5151
   5   2.0000      -0.523558       -14.2467
   6   2.0000      -0.518359       -14.1053
   7   2.0000      -0.441937       -12.0257
   8   2.0000      -0.374804       -10.1989
   9   0.0000       0.088989         2.4215
  10   0.0000       0.124717         3.3937
  11   0.0000       0.146147         3.9769
  12   0.0000       0.181799         4.9470
  13   0.0000       0.191530         5.2118

MULLIKEN ATOMIC CHARGES
-----------------------
   0 C :    0.000642
   1 O :   -0.000150
   2 H :   -0.000085
   3 H :   -0.004673
   4 H :   -0.000277
   5 H :   -0.003889
   6 C :   -0.185886
   7 O :   -0.465565
   8 H :    0.316388
   9 H :    0.109104
  10 H :    0.106034
  11 H :    0.128359
Sum of atomic charges:   -0.0000000

LOEWDIN ATOMIC CHARGES
----------------------
   0 C :   -0.012302
   1 O :   -0.000065
   2 H :   -0.000011
   3 H :   -0.004458
   4 H :   -0.000622
   5 H :   -0.004514
   6 C :   -0.365262
   7 O :   -0.095157
   8 H :    0.167417
   9 H :    0.100900
  10 H :    0.095268
  11 H :    0.118807

  Mayer bond orders larger than 0.1
B(  6-C ,  7-O ) :   0.9970 B(  6-C ,  9-H ) :   0.9650 B(  6-C , 10-H ) :   0.9741
B(  6-C , 11-H ) :   0.9729 B(  7-O ,  8-H ) :   0.8964

Dispersion correction           -0.000293525
FINAL SINGLE POINT ENERGY      -115.730639319296

DIPOLE MOMENT
-------------
                                X             Y             Z
Electronic contribution:      0.05454      -1.62912      -1.00945
Nuclear contribution   :     -0.19968       2.31227       0.80863
                        -----------------------------------------
Total Dipole Moment    :     -0.14514       0.68314      -0.20081
                        -----------------------------------------
Magnitude (a.u.)       :      0.72669
Magnitude (Debye)      :      1.84709

Rotational constants in cm-1:     4.218183     0.775045     0.738978
Rotational constants in MHz : 126457.954386 23235.263224 22154.016621

                             ****ORCA TERMINATED NORMALLY****
TOTAL RUN TIME: 0 days 0 hours 1 minutes 3 seconds 633 msec
