                         Program Version 4.1.2  - RELEASE  -
|  1> #Run DFT-D3 single point of the dimer
|  2> ! wB97X-D3 def2-TZVP TIGHTSCF CHELPG PMODEL PAL8
|  3>
|  4> %base "13-17_DFT_AB"
|  5>
|  6> %scf
|  7> MaxIter 1000
|  8> end
|  9>
| 10> * xyz 0 1
| 11>   C                      -1.759558            -3.697240            10.473655
| 12>   O                      -1.814703            -2.791501            9.446395
| 13>   H                      -1.493921            -1.963915            9.817831
| 14>   H                      -0.839036            -3.765161            10.942798
| 15>   H                      -2.437705            -3.484567            11.215743
| 16>   H                      -1.906414            -4.658250            10.028213
| 17>   C                      1.483143             -6.670682            7.141050
| 18>   O                      2.279742             -7.741575            6.943652
| 19>   H                      2.653894             -7.988781            7.827667
| 20>   H                      0.787316             -6.515755            6.273544
| 21>   H                      0.770089             -6.797256            7.967102
| 22>   H                      2.020372             -5.751115            7.456566
| 23> *
| 24>
| 25> #Run DFT-D3 single point of the molecule with dimer basis set
| 26> $new_job
| 27> %base "13-17_DFT_A"
| 28> ! wB97X-D3 def2-TZVP TIGHTSCF CHELPG PMODEL
| 29>
| 30> %scf
| 31> MaxIter 1000
| 32> end
| 33>
| 34> * xyz 0 1
| 35>   C                      -1.759558            -3.697240            10.473655
| 36>   O                      -1.814703            -2.791501            9.446395
| 37>   H                      -1.493921            -1.963915            9.817831
| 38>   H                      -0.839036            -3.765161            10.942798
| 39>   H                      -2.437705            -3.484567            11.215743
| 40>   H                      -1.906414            -4.658250            10.028213
| 41>   C                    : 1.483143             -6.670682            7.141050
| 42>   O                    : 2.279742             -7.741575            6.943652
| 43>   H                    : 2.653894             -7.988781            7.827667
| 44>   H                    : 0.787316             -6.515755            6.273544
| 45>   H                    : 0.770089             -6.797256            7.967102
| 46>   H                    : 2.020372             -5.751115            7.456566
| 47> *
| 48>
| 49> #Run DFT-D3 single point of the particle with dimer basis set
| 50> $new_job
| 51> %base "13-17_DFT_B"
| 52> ! wB97X-D3 def2-TZVP TIGHTSCF CHELPG PMODEL
| 53>
| 54> %scf
| 55> MaxIter 1000
| 56> end
| 57>
| 58> * xyz 0 1
| 59>   C                    : -1.759558            -3.697240            10.473655
| 60>   O                    : -1.814703            -2.791501            9.446395
| 61>   H                    : -1.493921            -1.963915            9.817831
| 62>   H                    : -0.839036            -3.765161            10.942798
| 63>   H                    : -2.437705            -3.484567            11.215743
| 64>   H                    : -1.906414            -4.658250            10.028213
| 65>   C                      1.483143             -6.670682            7.141050
| 66>   O                      2.279742             -7.741575            6.943652
| 67>   H                      2.653894             -7.988781            7.827667
| 68>   H                      0.787316             -6.515755            6.273544
| 69>   H                      0.770089             -6.797256            7.967102
| 70>   H                      2.020372             -5.751115            7.456566
| 71> *
| 72>
| 73>                          ****END OF INPUT****
 Total Charge           Charge          ....    0
 Multiplicity           Mult            ....    1
 Number of Electrons    NEL             ....   36
Dispersion correction           -0.000607152
FINAL SINGLE POINT ENERGY      -231.458381714554
Dispersion correction           -0.000194011
FINAL SINGLE POINT ENERGY      -115.728298515634

CARTESIAN COORDINATES (ANGSTROEM)
---------------------------------
  C     -1.759558   -3.697240   10.473655
  O     -1.814703   -2.791501    9.446395
  H     -1.493921   -1.963915    9.817831
  H     -0.839036   -3.765161   10.942798
  H     -2.437705   -3.484567   11.215743
  H     -1.906414   -4.658250   10.028213
  C      1.483143   -6.670682    7.141050
  O      2.279742   -7.741575    6.943652
  H      2.653894   -7.988781    7.827667
  H      0.787316   -6.515755    6.273544
  H      0.770089   -6.797256    7.967102
  H      2.020372   -5.751115    7.456566

 Multiplicity           Mult            ....    1
 Number of Electrons    NEL             ....   18
 Basis Dimension        Dim             ....  172

ORBITAL ENERGIES
----------------

  NO   OCC          E(Eh)            E(eV)
   0   2.0000     -19.236565      -523.4535
   1   2.0000     -10.312362      -280.6136
   2   2.0000      -1.155531       -31.4436
   3   2.0000      -0.786978       -21.4148
   4   2.0000      -0.625100       -17.0098
   5   2.0000      -0.547787       -14.9060
   6   2.0000      -0.528742       -14.3878
   7   2.0000      -0.428692       -11.6653
   8   2.0000      -0.368605       -10.0302
   9   0.0000       0.082674         2.2497
  10   0.0000       0.110238         2.9997
  11   0.0000       0.145133         3.9493
  12   0.0000       0.166741         4.5373
  13   0.0000       0.185499         5.0477

MULLIKEN ATOMIC CHARGES
-----------------------
   0 C :    0.000088
   1 O :   -0.000000
   2 H :   -0.000000
   3 H :   -0.000031
   4 H :   -0.000008
   5 H :   -0.000177
   6 C :   -0.162735
   7 O :   -0.454549
   8 H :    0.321961
   9 H :    0.114409
  10 H :    0.090580
  11 H :    0.090460
Sum of atomic charges:   -0.0000000

LOEWDIN ATOMIC CHARGES
----------------------
   0 C :   -0.000066
   1 O :   -0.000002
   2 H :   -0.000000
   3 H :   -0.000008
   4 H :   -0.000001
   5 H :   -0.000111
   6 C :   -0.454792
   7 O :   -0.037607
   8 H :    0.196196
   9 H :    0.114333
  10 H :    0.089465
  11 H :    0.092594

  Mayer bond orders larger than 0.1
B(  6-C ,  7-O ) :   1.0167 B(  6-C ,  9-H ) :   0.9697 B(  6-C , 10-H ) :   0.9800
B(  6-C , 11-H ) :   0.9725 B(  7-O ,  8-H ) :   0.8884

Dispersion correction           -0.000224977
FINAL SINGLE POINT ENERGY      -115.729893498346

DIPOLE MOMENT
-------------
                                X             Y             Z
Electronic contribution:      1.17969      -1.50504      -0.52013
Nuclear contribution   :     -1.24159       1.69526       1.15584
                        -----------------------------------------
Total Dipole Moment    :     -0.06190       0.19022       0.63571
                        -----------------------------------------
Magnitude (a.u.)       :      0.66644
Magnitude (Debye)      :      1.69397

Rotational constants in cm-1:     4.229948     0.889026     0.846022
Rotational constants in MHz : 126810.643994 26652.338942 25363.098617

                             ****ORCA TERMINATED NORMALLY****
TOTAL RUN TIME: 0 days 0 hours 0 minutes 58 seconds 631 msec
