                         Program Version 4.1.2  - RELEASE  -
|  1> #Run DFT-D3 single point of the dimer
|  2> ! wB97X-D3 def2-TZVP TIGHTSCF CHELPG PMODEL PAL8
|  3>
|  4> %base "14-190_DFT_AB"
|  5>
|  6> %scf
|  7> MaxIter 1000
|  8> end
|  9>
| 10> * xyz 0 1
| 11>   C                      0.056977             -5.274057            -4.767451
| 12>   O                      0.704378             -4.133532            -4.233959
| 13>   H                      1.190929             -3.653032            -4.940093
| 14>   H                      -0.758321            -5.637046            -4.177142
| 15>   H                      -0.247004            -5.116081            -5.771249
| 16>   H                      0.774531             -6.032431            -4.654513
| 17>   C                      3.912600             -3.565840            -6.417021
| 18>   O                      2.525817             -3.440427            -6.302536
| 19>   H                      2.221452             -3.410622            -7.310455
| 20>   H                      4.374043             -2.651804            -6.804052
| 21>   H                      4.332472             -3.682136            -5.406038
| 22>   H                      4.194898             -4.387226            -7.079261
| 23> *
| 24>
| 25> #Run DFT-D3 single point of the molecule with dimer basis set
| 26> $new_job
| 27> %base "14-190_DFT_A"
| 28> ! wB97X-D3 def2-TZVP TIGHTSCF CHELPG PMODEL
| 29>
| 30> %scf
| 31> MaxIter 1000
| 32> end
| 33>
| 34> * xyz 0 1
| 35>   C                      0.056977             -5.274057            -4.767451
| 36>   O                      0.704378             -4.133532            -4.233959
| 37>   H                      1.190929             -3.653032            -4.940093
| 38>   H                      -0.758321            -5.637046            -4.177142
| 39>   H                      -0.247004            -5.116081            -5.771249
| 40>   H                      0.774531             -6.032431            -4.654513
| 41>   C                    : 3.912600             -3.565840            -6.417021
| 42>   O                    : 2.525817             -3.440427            -6.302536
| 43>   H                    : 2.221452             -3.410622            -7.310455
| 44>   H                    : 4.374043             -2.651804            -6.804052
| 45>   H                    : 4.332472             -3.682136            -5.406038
| 46>   H                    : 4.194898             -4.387226            -7.079261
| 47> *
| 48>
| 49> #Run DFT-D3 single point of the particle with dimer basis set
| 50> $new_job
| 51> %base "14-190_DFT_B"
| 52> ! wB97X-D3 def2-TZVP TIGHTSCF CHELPG PMODEL
| 53>
| 54> %scf
| 55> MaxIter 1000
| 56> end
| 57>
| 58> * xyz 0 1
| 59>   C                    : 0.056977             -5.274057            -4.767451
| 60>   O                    : 0.704378             -4.133532            -4.233959
| 61>   H                    : 1.190929             -3.653032            -4.940093
| 62>   H                    : -0.758321            -5.637046            -4.177142
| 63>   H                    : -0.247004            -5.116081            -5.771249
| 64>   H                    : 0.774531             -6.032431            -4.654513
| 65>   C                      3.912600             -3.565840            -6.417021
| 66>   O                      2.525817             -3.440427            -6.302536
| 67>   H                      2.221452             -3.410622            -7.310455
| 68>   H                      4.374043             -2.651804            -6.804052
| 69>   H                      4.332472             -3.682136            -5.406038
| 70>   H                      4.194898             -4.387226            -7.079261
| 71> *
| 72>
| 73>                          ****END OF INPUT****
 Total Charge           Charge          ....    0
 Multiplicity           Mult            ....    1
 Number of Electrons    NEL             ....   36
Dispersion correction           -0.001687620
FINAL SINGLE POINT ENERGY      -231.464941275709
Dispersion correction           -0.000224532
FINAL SINGLE POINT ENERGY      -115.729148914039

CARTESIAN COORDINATES (ANGSTROEM)
---------------------------------
  C      0.056977   -5.274057   -4.767451
  O      0.704378   -4.133532   -4.233959
  H      1.190929   -3.653032   -4.940093
  H     -0.758321   -5.637046   -4.177142
  H     -0.247004   -5.116081   -5.771249
  H      0.774531   -6.032431   -4.654513
  C      3.912600   -3.565840   -6.417021
  O      2.525817   -3.440427   -6.302536
  H      2.221452   -3.410622   -7.310455
  H      4.374043   -2.651804   -6.804052
  H      4.332472   -3.682136   -5.406038
  H      4.194898   -4.387226   -7.079261

 Multiplicity           Mult            ....    1
 Number of Electrons    NEL             ....   18
 Basis Dimension        Dim             ....  172

ORBITAL ENERGIES
----------------

  NO   OCC          E(Eh)            E(eV)
   0   2.0000     -19.240574      -523.5626
   1   2.0000     -10.311145      -280.5805
   2   2.0000      -1.131003       -30.7762
   3   2.0000      -0.784268       -21.3410
   4   2.0000      -0.605398       -16.4737
   5   2.0000      -0.543680       -14.7943
   6   2.0000      -0.523718       -14.2511
   7   2.0000      -0.437132       -11.8950
   8   2.0000      -0.370639       -10.0856
   9   0.0000       0.091434         2.4880
  10   0.0000       0.120028         3.2661
  11   0.0000       0.152495         4.1496
  12   0.0000       0.184904         5.0315
  13   0.0000       0.204510         5.5650

MULLIKEN ATOMIC CHARGES
-----------------------
   0 C :   -0.000207
   1 O :    0.001511
   2 H :   -0.008358
   3 H :   -0.000488
   4 H :   -0.002328
   5 H :   -0.001491
   6 C :   -0.168137
   7 O :   -0.448738
   8 H :    0.312381
   9 H :    0.096353
  10 H :    0.117034
  11 H :    0.102466
Sum of atomic charges:   -0.0000000

LOEWDIN ATOMIC CHARGES
----------------------
   0 C :   -0.006425
   1 O :   -0.005478
   2 H :   -0.041872
   3 H :   -0.000128
   4 H :   -0.001155
   5 H :   -0.000623
   6 C :   -0.411371
   7 O :   -0.051605
   8 H :    0.222242
   9 H :    0.092702
  10 H :    0.110279
  11 H :    0.093433

  Mayer bond orders larger than 0.1
B(  6-C ,  7-O ) :   0.9997 B(  6-C ,  9-H ) :   0.9719 B(  6-C , 10-H ) :   0.9770
B(  6-C , 11-H ) :   0.9748 B(  7-O ,  8-H ) :   0.8892

Dispersion correction           -0.000223023
FINAL SINGLE POINT ENERGY      -115.728873307374

DIPOLE MOMENT
-------------
                                X             Y             Z
Electronic contribution:     -1.80490       0.10400       0.34578
Nuclear contribution   :      2.15585      -0.12622      -0.97736
                        -----------------------------------------
Total Dipole Moment    :      0.35096      -0.02222      -0.63158
                        -----------------------------------------
Magnitude (a.u.)       :      0.72288
Magnitude (Debye)      :      1.83742

Rotational constants in cm-1:     4.054690     0.856307     0.812375
Rotational constants in MHz : 121556.560456 25671.452423 24354.401925

                             ****ORCA TERMINATED NORMALLY****
TOTAL RUN TIME: 0 days 0 hours 1 minutes 7 seconds 298 msec
