                         Program Version 4.1.2  - RELEASE  -
|  1> #Run DFT-D3 single point of the dimer
|  2> ! wB97X-D3 def2-TZVP TIGHTSCF CHELPG PMODEL PAL8
|  3>
|  4> %base "10-42_DFT_AB"
|  5>
|  6> %scf
|  7> MaxIter 1000
|  8> end
|  9>
| 10> * xyz 0 1
| 11>   C                      2.311494             -9.830904            -8.216563
| 12>   O                      3.558891             -10.484770           -8.480704
| 13>   H                      3.941405             -10.762820           -7.664795
| 14>   H                      2.383091             -9.009173            -7.449427
| 15>   H                      1.831679             -9.423599            -9.122781
| 16>   H                      1.578314             -10.570983           -7.892508
| 17>   C                      -1.628526            -10.375005           -9.102687
| 18>   O                      -1.132023            -9.083415            -9.327182
| 19>   H                      -1.163365            -8.582984            -8.526550
| 20>   H                      -2.603047            -10.197544           -8.616572
| 21>   H                      -1.761198            -10.908630           -10.061052
| 22>   H                      -0.896033            -10.918688           -8.564937
| 23> *
| 24>
| 25> #Run DFT-D3 single point of the molecule with dimer basis set
| 26> $new_job
| 27> %base "10-42_DFT_A"
| 28> ! wB97X-D3 def2-TZVP TIGHTSCF CHELPG PMODEL
| 29>
| 30> %scf
| 31> MaxIter 1000
| 32> end
| 33>
| 34> * xyz 0 1
| 35>   C                      2.311494             -9.830904            -8.216563
| 36>   O                      3.558891             -10.484770           -8.480704
| 37>   H                      3.941405             -10.762820           -7.664795
| 38>   H                      2.383091             -9.009173            -7.449427
| 39>   H                      1.831679             -9.423599            -9.122781
| 40>   H                      1.578314             -10.570983           -7.892508
| 41>   C                    : -1.628526            -10.375005           -9.102687
| 42>   O                    : -1.132023            -9.083415            -9.327182
| 43>   H                    : -1.163365            -8.582984            -8.526550
| 44>   H                    : -2.603047            -10.197544           -8.616572
| 45>   H                    : -1.761198            -10.908630           -10.061052
| 46>   H                    : -0.896033            -10.918688           -8.564937
| 47> *
| 48>
| 49> #Run DFT-D3 single point of the particle with dimer basis set
| 50> $new_job
| 51> %base "10-42_DFT_B"
| 52> ! wB97X-D3 def2-TZVP TIGHTSCF CHELPG PMODEL
| 53>
| 54> %scf
| 55> MaxIter 1000
| 56> end
| 57>
| 58> * xyz 0 1
| 59>   C                    : 2.311494             -9.830904            -8.216563
| 60>   O                    : 3.558891             -10.484770           -8.480704
| 61>   H                    : 3.941405             -10.762820           -7.664795
| 62>   H                    : 2.383091             -9.009173            -7.449427
| 63>   H                    : 1.831679             -9.423599            -9.122781
| 64>   H                    : 1.578314             -10.570983           -7.892508
| 65>   C                      -1.628526            -10.375005           -9.102687
| 66>   O                      -1.132023            -9.083415            -9.327182
| 67>   H                      -1.163365            -8.582984            -8.526550
| 68>   H                      -2.603047            -10.197544           -8.616572
| 69>   H                      -1.761198            -10.908630           -10.061052
| 70>   H                      -0.896033            -10.918688           -8.564937
| 71> *
| 72>
| 73>                          ****END OF INPUT****
 Total Charge           Charge          ....    0
 Multiplicity           Mult            ....    1
 Number of Electrons    NEL             ....   36
Dispersion correction           -0.001650718
FINAL SINGLE POINT ENERGY      -231.466961930414
Dispersion correction           -0.000260748
FINAL SINGLE POINT ENERGY      -115.733850864389

CARTESIAN COORDINATES (ANGSTROEM)
---------------------------------
  C      2.311494   -9.830904   -8.216563
  O      3.558891  -10.484770   -8.480704
  H      3.941405  -10.762820   -7.664795
  H      2.383091   -9.009173   -7.449427
  H      1.831679   -9.423599   -9.122781
  H      1.578314  -10.570983   -7.892508
  C     -1.628526  -10.375005   -9.102687
  O     -1.132023   -9.083415   -9.327182
  H     -1.163365   -8.582984   -8.526550
  H     -2.603047  -10.197544   -8.616572
  H     -1.761198  -10.908630  -10.061052
  H     -0.896033  -10.918688   -8.564937

 Multiplicity           Mult            ....    1
 Number of Electrons    NEL             ....   18
 Basis Dimension        Dim             ....  172

ORBITAL ENERGIES
----------------

  NO   OCC          E(Eh)            E(eV)
   0   2.0000     -19.222296      -523.0653
   1   2.0000     -10.310393      -280.5601
   2   2.0000      -1.140237       -31.0274
   3   2.0000      -0.796180       -21.6651
   4   2.0000      -0.606642       -16.5076
   5   2.0000      -0.559502       -15.2248
   6   2.0000      -0.530561       -14.4373
   7   2.0000      -0.422600       -11.4995
   8   2.0000      -0.371396       -10.1062
   9   0.0000       0.086522         2.3544
  10   0.0000       0.123481         3.3601
  11   0.0000       0.156893         4.2693
  12   0.0000       0.177190         4.8216
  13   0.0000       0.194683         5.2976

MULLIKEN ATOMIC CHARGES
-----------------------
   0 C :   -0.002516
   1 O :   -0.000123
   2 H :   -0.000009
   3 H :   -0.000031
   4 H :   -0.003922
   5 H :    0.000628
   6 C :   -0.149298
   7 O :   -0.481581
   8 H :    0.313685
   9 H :    0.104074
  10 H :    0.114211
  11 H :    0.104882
Sum of atomic charges:    0.0000000

LOEWDIN ATOMIC CHARGES
----------------------
   0 C :   -0.004700
   1 O :   -0.000035
   2 H :   -0.000017
   3 H :   -0.000141
   4 H :   -0.004918
   5 H :   -0.001700
   6 C :   -0.383087
   7 O :   -0.064138
   8 H :    0.157913
   9 H :    0.101703
  10 H :    0.111135
  11 H :    0.087986

  Mayer bond orders larger than 0.1
B(  6-C ,  7-O ) :   0.9849 B(  6-C ,  9-H ) :   0.9907 B(  6-C , 10-H ) :   0.9720
B(  6-C , 11-H ) :   0.9768 B(  7-O ,  8-H ) :   0.8998

Dispersion correction           -0.000209502
FINAL SINGLE POINT ENERGY      -115.731609975306

DIPOLE MOMENT
-------------
                                X             Y             Z
Electronic contribution:      0.62576       1.48060      -0.35411
Nuclear contribution   :     -0.85251      -1.67931       0.94491
                        -----------------------------------------
Total Dipole Moment    :     -0.22675      -0.19872       0.59080
                        -----------------------------------------
Magnitude (a.u.)       :      0.66329
Magnitude (Debye)      :      1.68594

Rotational constants in cm-1:     4.255108     0.854519     0.828307
Rotational constants in MHz : 127564.936768 25617.845442 24832.004947

                             ****ORCA TERMINATED NORMALLY****
TOTAL RUN TIME: 0 days 0 hours 1 minutes 6 seconds 152 msec
