                         Program Version 4.1.2  - RELEASE  -
|  1> #Run DFT-D3 single point of the dimer
|  2> ! wB97X-D3 def2-TZVP TIGHTSCF CHELPG PMODEL PAL8
|  3>
|  4> %base "22-64_DFT_AB"
|  5>
|  6> %scf
|  7> MaxIter 1000
|  8> end
|  9>
| 10> * xyz 0 1
| 11>   C                      7.094991             -5.874388            4.295036
| 12>   O                      6.607568             -5.115187            5.413430
| 13>   H                      6.014298             -4.411971            5.145993
| 14>   H                      6.600203             -5.667700            3.315345
| 15>   H                      8.165961             -5.827261            4.147364
| 16>   H                      6.868536             -6.907309            4.499651
| 17>   C                      4.063604             -4.164335            1.522662
| 18>   O                      3.636612             -3.300503            0.440059
| 19>   H                      4.382438             -2.679649            0.364125
| 20>   H                      3.242593             -4.589483            2.142196
| 21>   H                      4.763362             -5.016916            1.216015
| 22>   H                      4.592937             -3.590968            2.334445
| 23> *
| 24>
| 25> #Run DFT-D3 single point of the molecule with dimer basis set
| 26> $new_job
| 27> %base "22-64_DFT_A"
| 28> ! wB97X-D3 def2-TZVP TIGHTSCF CHELPG PMODEL
| 29>
| 30> %scf
| 31> MaxIter 1000
| 32> end
| 33>
| 34> * xyz 0 1
| 35>   C                      7.094991             -5.874388            4.295036
| 36>   O                      6.607568             -5.115187            5.413430
| 37>   H                      6.014298             -4.411971            5.145993
| 38>   H                      6.600203             -5.667700            3.315345
| 39>   H                      8.165961             -5.827261            4.147364
| 40>   H                      6.868536             -6.907309            4.499651
| 41>   C                    : 4.063604             -4.164335            1.522662
| 42>   O                    : 3.636612             -3.300503            0.440059
| 43>   H                    : 4.382438             -2.679649            0.364125
| 44>   H                    : 3.242593             -4.589483            2.142196
| 45>   H                    : 4.763362             -5.016916            1.216015
| 46>   H                    : 4.592937             -3.590968            2.334445
| 47> *
| 48>
| 49> #Run DFT-D3 single point of the particle with dimer basis set
| 50> $new_job
| 51> %base "22-64_DFT_B"
| 52> ! wB97X-D3 def2-TZVP TIGHTSCF CHELPG PMODEL
| 53>
| 54> %scf
| 55> MaxIter 1000
| 56> end
| 57>
| 58> * xyz 0 1
| 59>   C                    : 7.094991             -5.874388            4.295036
| 60>   O                    : 6.607568             -5.115187            5.413430
| 61>   H                    : 6.014298             -4.411971            5.145993
| 62>   H                    : 6.600203             -5.667700            3.315345
| 63>   H                    : 8.165961             -5.827261            4.147364
| 64>   H                    : 6.868536             -6.907309            4.499651
| 65>   C                      4.063604             -4.164335            1.522662
| 66>   O                      3.636612             -3.300503            0.440059
| 67>   H                      4.382438             -2.679649            0.364125
| 68>   H                      3.242593             -4.589483            2.142196
| 69>   H                      4.763362             -5.016916            1.216015
| 70>   H                      4.592937             -3.590968            2.334445
| 71> *
| 72>
| 73>                          ****END OF INPUT****
 Total Charge           Charge          ....    0
 Multiplicity           Mult            ....    1
 Number of Electrons    NEL             ....   36
Dispersion correction           -0.001311393
FINAL SINGLE POINT ENERGY      -231.462077631514
Dispersion correction           -0.000278292
FINAL SINGLE POINT ENERGY      -115.733036175855

CARTESIAN COORDINATES (ANGSTROEM)
---------------------------------
  C      7.094991   -5.874388    4.295036
  O      6.607568   -5.115187    5.413430
  H      6.014298   -4.411971    5.145993
  H      6.600203   -5.667700    3.315345
  H      8.165961   -5.827261    4.147364
  H      6.868536   -6.907309    4.499651
  C      4.063604   -4.164335    1.522662
  O      3.636612   -3.300503    0.440059
  H      4.382438   -2.679649    0.364125
  H      3.242593   -4.589483    2.142196
  H      4.763362   -5.016916    1.216015
  H      4.592937   -3.590968    2.334445

 Multiplicity           Mult            ....    1
 Number of Electrons    NEL             ....   18
 Basis Dimension        Dim             ....  172

ORBITAL ENERGIES
----------------

  NO   OCC          E(Eh)            E(eV)
   0   2.0000     -19.239126      -523.5232
   1   2.0000     -10.327562      -281.0273
   2   2.0000      -1.129801       -30.7434
   3   2.0000      -0.788871       -21.4663
   4   2.0000      -0.602418       -16.3926
   5   2.0000      -0.535066       -14.5599
   6   2.0000      -0.519962       -14.1489
   7   2.0000      -0.434033       -11.8106
   8   2.0000      -0.379426       -10.3247
   9   0.0000       0.079620         2.1666
  10   0.0000       0.113628         3.0920
  11   0.0000       0.142111         3.8670
  12   0.0000       0.155433         4.2295
  13   0.0000       0.193988         5.2787

MULLIKEN ATOMIC CHARGES
-----------------------
   0 C :    0.002035
   1 O :   -0.000009
   2 H :   -0.000367
   3 H :   -0.003806
   4 H :   -0.000068
   5 H :   -0.000121
   6 C :   -0.198286
   7 O :   -0.461465
   8 H :    0.319806
   9 H :    0.124037
  10 H :    0.110225
  11 H :    0.108020
Sum of atomic charges:   -0.0000000

LOEWDIN ATOMIC CHARGES
----------------------
   0 C :   -0.000562
   1 O :   -0.000028
   2 H :   -0.000573
   3 H :   -0.001918
   4 H :   -0.000003
   5 H :   -0.000004
   6 C :   -0.389620
   7 O :   -0.102504
   8 H :    0.179370
   9 H :    0.110123
  10 H :    0.104508
  11 H :    0.101212

  Mayer bond orders larger than 0.1
B(  6-C ,  7-O ) :   1.0083 B(  6-C ,  9-H ) :   0.9681 B(  6-C , 10-H ) :   0.9651
B(  6-C , 11-H ) :   0.9793 B(  7-O ,  8-H ) :   0.8988

Dispersion correction           -0.000281969
FINAL SINGLE POINT ENERGY      -115.728767651655

DIPOLE MOMENT
-------------
                                X             Y             Z
Electronic contribution:     -0.78272       1.04120      -1.58634
Nuclear contribution   :      1.39275      -0.97263       1.99278
                        -----------------------------------------
Total Dipole Moment    :      0.61002       0.06856       0.40644
                        -----------------------------------------
Magnitude (a.u.)       :      0.73622
Magnitude (Debye)      :      1.87132

Rotational constants in cm-1:     4.170377     0.779487     0.760861
Rotational constants in MHz : 125024.764681 23368.440573 22810.030147

                             ****ORCA TERMINATED NORMALLY****
TOTAL RUN TIME: 0 days 0 hours 0 minutes 55 seconds 387 msec
