                         Program Version 4.1.2  - RELEASE  -
|  1> #Run DFT-D3 single point of the dimer
|  2> ! wB97X-D3 def2-TZVP TIGHTSCF CHELPG PMODEL PAL8
|  3>
|  4> %base "18-23_DFT_AB"
|  5>
|  6> %scf
|  7> MaxIter 1000
|  8> end
|  9>
| 10> * xyz 0 1
| 11>   C                      -5.176520            -0.642955            5.468790
| 12>   O                      -4.038877            -1.295501            5.945422
| 13>   H                      -4.126203            -2.205438            5.650035
| 14>   H                      -5.286508            -0.774904            4.375683
| 15>   H                      -6.105946            -0.911018            5.899308
| 16>   H                      -5.090722            0.414521             5.747167
| 17>   C                      -9.049173            0.546703             3.102806
| 18>   O                      -10.235975           1.124229             2.606014
| 19>   H                      -10.908931           0.534335             2.981196
| 20>   H                      -8.216370            1.252927             3.096129
| 21>   H                      -9.064377            0.356556             4.185877
| 22>   H                      -8.778807            -0.417073            2.655949
| 23> *
| 24>
| 25> #Run DFT-D3 single point of the molecule with dimer basis set
| 26> $new_job
| 27> %base "18-23_DFT_A"
| 28> ! wB97X-D3 def2-TZVP TIGHTSCF CHELPG PMODEL
| 29>
| 30> %scf
| 31> MaxIter 1000
| 32> end
| 33>
| 34> * xyz 0 1
| 35>   C                      -5.176520            -0.642955            5.468790
| 36>   O                      -4.038877            -1.295501            5.945422
| 37>   H                      -4.126203            -2.205438            5.650035
| 38>   H                      -5.286508            -0.774904            4.375683
| 39>   H                      -6.105946            -0.911018            5.899308
| 40>   H                      -5.090722            0.414521             5.747167
| 41>   C                    : -9.049173            0.546703             3.102806
| 42>   O                    : -10.235975           1.124229             2.606014
| 43>   H                    : -10.908931           0.534335             2.981196
| 44>   H                    : -8.216370            1.252927             3.096129
| 45>   H                    : -9.064377            0.356556             4.185877
| 46>   H                    : -8.778807            -0.417073            2.655949
| 47> *
| 48>
| 49> #Run DFT-D3 single point of the particle with dimer basis set
| 50> $new_job
| 51> %base "18-23_DFT_B"
| 52> ! wB97X-D3 def2-TZVP TIGHTSCF CHELPG PMODEL
| 53>
| 54> %scf
| 55> MaxIter 1000
| 56> end
| 57>
| 58> * xyz 0 1
| 59>   C                    : -5.176520            -0.642955            5.468790
| 60>   O                    : -4.038877            -1.295501            5.945422
| 61>   H                    : -4.126203            -2.205438            5.650035
| 62>   H                    : -5.286508            -0.774904            4.375683
| 63>   H                    : -6.105946            -0.911018            5.899308
| 64>   H                    : -5.090722            0.414521             5.747167
| 65>   C                      -9.049173            0.546703             3.102806
| 66>   O                      -10.235975           1.124229             2.606014
| 67>   H                      -10.908931           0.534335             2.981196
| 68>   H                      -8.216370            1.252927             3.096129
| 69>   H                      -9.064377            0.356556             4.185877
| 70>   H                      -8.778807            -0.417073            2.655949
| 71> *
| 72>
| 73>                          ****END OF INPUT****
 Total Charge           Charge          ....    0
 Multiplicity           Mult            ....    1
 Number of Electrons    NEL             ....   36
Dispersion correction           -0.000909065
FINAL SINGLE POINT ENERGY      -231.466310071259
Dispersion correction           -0.000229559
FINAL SINGLE POINT ENERGY      -115.734110121009

CARTESIAN COORDINATES (ANGSTROEM)
---------------------------------
  C     -5.176520   -0.642955    5.468790
  O     -4.038877   -1.295501    5.945422
  H     -4.126203   -2.205438    5.650035
  H     -5.286508   -0.774904    4.375683
  H     -6.105946   -0.911018    5.899308
  H     -5.090722    0.414521    5.747167
  C     -9.049173    0.546703    3.102806
  O    -10.235975    1.124229    2.606014
  H    -10.908931    0.534335    2.981196
  H     -8.216370    1.252927    3.096129
  H     -9.064377    0.356556    4.185877
  H     -8.778807   -0.417073    2.655949

 Multiplicity           Mult            ....    1
 Number of Electrons    NEL             ....   18
 Basis Dimension        Dim             ....  172

ORBITAL ENERGIES
----------------

  NO   OCC          E(Eh)            E(eV)
   0   2.0000     -19.237304      -523.4737
   1   2.0000     -10.313205      -280.6366
   2   2.0000      -1.141737       -31.0682
   3   2.0000      -0.794248       -21.6126
   4   2.0000      -0.611988       -16.6530
   5   2.0000      -0.546911       -14.8822
   6   2.0000      -0.522027       -14.2051
   7   2.0000      -0.436573       -11.8798
   8   2.0000      -0.377175       -10.2635
   9   0.0000       0.079039         2.1508
  10   0.0000       0.114331         3.1111
  11   0.0000       0.136886         3.7249
  12   0.0000       0.173036         4.7085
  13   0.0000       0.182640         4.9699

MULLIKEN ATOMIC CHARGES
-----------------------
   0 C :    0.000096
   1 O :   -0.000002
   2 H :   -0.000001
   3 H :   -0.000003
   4 H :   -0.000218
   5 H :   -0.000029
   6 C :   -0.177799
   7 O :   -0.456586
   8 H :    0.317160
   9 H :    0.117216
  10 H :    0.099757
  11 H :    0.100409
Sum of atomic charges:   -0.0000000

LOEWDIN ATOMIC CHARGES
----------------------
   0 C :   -0.000217
   1 O :   -0.000004
   2 H :   -0.000001
   3 H :   -0.000067
   4 H :   -0.000165
   5 H :   -0.000019
   6 C :   -0.405196
   7 O :   -0.072622
   8 H :    0.180916
   9 H :    0.107782
  10 H :    0.095460
  11 H :    0.094132

  Mayer bond orders larger than 0.1
B(  6-C ,  7-O ) :   1.0112 B(  6-C ,  9-H ) :   0.9740 B(  6-C , 10-H ) :   0.9783
B(  6-C , 11-H ) :   0.9706 B(  7-O ,  8-H ) :   0.9001

Dispersion correction           -0.000238599
FINAL SINGLE POINT ENERGY      -115.731917128789

DIPOLE MOMENT
-------------
                                X             Y             Z
Electronic contribution:     -1.54684       0.88775      -0.89287
Nuclear contribution   :      1.58241      -1.45497       1.34352
                        -----------------------------------------
Total Dipole Moment    :      0.03557      -0.56723       0.45065
                        -----------------------------------------
Magnitude (a.u.)       :      0.72533
Magnitude (Debye)      :      1.84364

Rotational constants in cm-1:     4.338686     0.829372     0.800816
Rotational constants in MHz : 130070.531337 24863.945876 24007.873126

                             ****ORCA TERMINATED NORMALLY****
TOTAL RUN TIME: 0 days 0 hours 0 minutes 57 seconds 600 msec
