                         Program Version 4.1.2  - RELEASE  -
|  1> #Run DFT geometry optimization
|  2> ! wB97X-D3 def2-TZVP TIGHTSCF Grid5 FinalGrid6 Opt CHELPG PAL4
|  3>
|  4> %base "3_geo_opt"
|  5> %geom MaxIter 500
|  6> end
|  7>
|  8> %geom
|  9>   Constraints
| 10>     { B 2 1 C }
| 11>   end
| 12> end
| 13>
| 14>
| 15> * xyz 0 1
| 16>   C                    3.011229             -1.181054            0.598588
| 17>   O                    4.394594             -1.128206            0.874404
| 18>   H                    4.772275             -0.378865            0.412397
| 19>   H                    2.806355             -1.319121            -0.469253
| 20>   H                    2.611553             -2.040421            1.135995
| 21>   H                    2.484678             -0.284648            0.945755
| 22> *
| 23>
| 24>                          ****END OF INPUT****
 Total Charge           Charge          ....    0
 Multiplicity           Mult            ....    1
 Number of Electrons    NEL             ....   18
Dispersion correction           -0.000239307
FINAL SINGLE POINT ENERGY      -115.738051184946
Dispersion correction            ... done
                    ***********************HURRAY********************

CARTESIAN COORDINATES (ANGSTROEM)
---------------------------------
  C      3.011283   -1.181082    0.598617
  O      4.394619   -1.128196    0.874388
  H      4.772250   -0.378828    0.412383
  H      2.806366   -1.319128   -0.469223
  H      2.611458   -2.040408    1.135970
  H      2.484707   -0.284672    0.945751

 Multiplicity           Mult            ....    1
 Number of Electrons    NEL             ....   18
 Basis Dimension        Dim             ....   86

ORBITAL ENERGIES
----------------

  NO   OCC          E(Eh)            E(eV)
   0   2.0000     -19.228119      -523.2237
   1   2.0000     -10.315105      -280.6883
   2   2.0000      -1.136733       -30.9321
   3   2.0000      -0.795305       -21.6413
   4   2.0000      -0.611551       -16.6412
   5   2.0000      -0.541764       -14.7421
   6   2.0000      -0.526323       -14.3220
   7   2.0000      -0.433777       -11.8037
   8   2.0000      -0.373591       -10.1659
   9   0.0000       0.116600         3.1728
  10   0.0000       0.156658         4.2629
  11   0.0000       0.202575         5.5124
  12   0.0000       0.205118         5.5816
  13   0.0000       0.226357         6.1595

MULLIKEN ATOMIC CHARGES
-----------------------
   0 C :   -0.150852
   1 O :   -0.477687
   2 H :    0.313070
   3 H :    0.098621
   4 H :    0.118223
   5 H :    0.098625
Sum of atomic charges:    0.0000000

LOEWDIN ATOMIC CHARGES
----------------------
   0 C :   -0.385239
   1 O :   -0.076271
   2 H :    0.166043
   3 H :    0.093392
   4 H :    0.108684
   5 H :    0.093391

  Mayer bond orders larger than 0.1
B(  0-C ,  1-O ) :   0.9987 B(  0-C ,  3-H ) :   0.9755 B(  0-C ,  4-H ) :   0.9749
B(  0-C ,  5-H ) :   0.9755 B(  1-O ,  2-H ) :   0.9001

Dispersion correction           -0.000239302
FINAL SINGLE POINT ENERGY      -115.738051200304

DIPOLE MOMENT
-------------
                                X             Y             Z
Electronic contribution:      1.75601      -0.02844       0.41995
Nuclear contribution   :     -2.06572       0.47611      -0.81763
                        -----------------------------------------
Total Dipole Moment    :     -0.30971       0.44767      -0.39768
                        -----------------------------------------
Magnitude (a.u.)       :      0.67415
Magnitude (Debye)      :      1.71355

Rotational constants in cm-1:     4.292304     0.833806     0.804891
Rotational constants in MHz : 128680.035111 24996.866124 24130.029971

                             ****ORCA TERMINATED NORMALLY****
TOTAL RUN TIME: 0 days 0 hours 0 minutes 36 seconds 310 msec
