                         Program Version 4.1.2  - RELEASE  -
|  1> #Run DFT-D3 single point of the dimer
|  2> ! wB97X-D3 def2-TZVP TIGHTSCF CHELPG PMODEL PAL8
|  3>
|  4> %base "21-208_DFT_AB"
|  5>
|  6> %scf
|  7> MaxIter 1000
|  8> end
|  9>
| 10> * xyz 0 1
| 11>   C                      -6.289083            5.334921             7.284512
| 12>   O                      -6.725180            4.905632             6.021596
| 13>   H                      -7.137238            5.626637             5.594528
| 14>   H                      -5.715605            4.491401             7.694702
| 15>   H                      -5.550955            6.181531             7.229201
| 16>   H                      -7.097747            5.597236             7.867000
| 17>   C                      -7.636382            2.344616             4.192458
| 18>   O                      -6.453534            2.105180             4.947122
| 19>   H                      -6.202331            2.949047             5.289194
| 20>   H                      -8.470495            2.421654             4.892306
| 21>   H                      -7.650019            3.244742             3.613226
| 22>   H                      -7.911625            1.543454             3.565426
| 23> *
| 24>
| 25> #Run DFT-D3 single point of the molecule with dimer basis set
| 26> $new_job
| 27> %base "21-208_DFT_A"
| 28> ! wB97X-D3 def2-TZVP TIGHTSCF CHELPG PMODEL
| 29>
| 30> %scf
| 31> MaxIter 1000
| 32> end
| 33>
| 34> * xyz 0 1
| 35>   C                      -6.289083            5.334921             7.284512
| 36>   O                      -6.725180            4.905632             6.021596
| 37>   H                      -7.137238            5.626637             5.594528
| 38>   H                      -5.715605            4.491401             7.694702
| 39>   H                      -5.550955            6.181531             7.229201
| 40>   H                      -7.097747            5.597236             7.867000
| 41>   C                    : -7.636382            2.344616             4.192458
| 42>   O                    : -6.453534            2.105180             4.947122
| 43>   H                    : -6.202331            2.949047             5.289194
| 44>   H                    : -8.470495            2.421654             4.892306
| 45>   H                    : -7.650019            3.244742             3.613226
| 46>   H                    : -7.911625            1.543454             3.565426
| 47> *
| 48>
| 49> #Run DFT-D3 single point of the particle with dimer basis set
| 50> $new_job
| 51> %base "21-208_DFT_B"
| 52> ! wB97X-D3 def2-TZVP TIGHTSCF CHELPG PMODEL
| 53>
| 54> %scf
| 55> MaxIter 1000
| 56> end
| 57>
| 58> * xyz 0 1
| 59>   C                    : -6.289083            5.334921             7.284512
| 60>   O                    : -6.725180            4.905632             6.021596
| 61>   H                    : -7.137238            5.626637             5.594528
| 62>   H                    : -5.715605            4.491401             7.694702
| 63>   H                    : -5.550955            6.181531             7.229201
| 64>   H                    : -7.097747            5.597236             7.867000
| 65>   C                      -7.636382            2.344616             4.192458
| 66>   O                      -6.453534            2.105180             4.947122
| 67>   H                      -6.202331            2.949047             5.289194
| 68>   H                      -8.470495            2.421654             4.892306
| 69>   H                      -7.650019            3.244742             3.613226
| 70>   H                      -7.911625            1.543454             3.565426
| 71> *
| 72>
| 73>                          ****END OF INPUT****
 Total Charge           Charge          ....    0
 Multiplicity           Mult            ....    1
 Number of Electrons    NEL             ....   36
Dispersion correction           -0.001842152
FINAL SINGLE POINT ENERGY      -231.473477800138
Dispersion correction           -0.000222753
FINAL SINGLE POINT ENERGY      -115.733234043359

CARTESIAN COORDINATES (ANGSTROEM)
---------------------------------
  C     -6.289083    5.334921    7.284512
  O     -6.725180    4.905632    6.021596
  H     -7.137238    5.626637    5.594528
  H     -5.715605    4.491401    7.694702
  H     -5.550955    6.181531    7.229201
  H     -7.097747    5.597236    7.867000
  C     -7.636382    2.344616    4.192458
  O     -6.453534    2.105180    4.947122
  H     -6.202331    2.949047    5.289194
  H     -8.470495    2.421654    4.892306
  H     -7.650019    3.244742    3.613226
  H     -7.911625    1.543454    3.565426

 Multiplicity           Mult            ....    1
 Number of Electrons    NEL             ....   18
 Basis Dimension        Dim             ....  172

ORBITAL ENERGIES
----------------

  NO   OCC          E(Eh)            E(eV)
   0   2.0000     -19.230964      -523.3011
   1   2.0000     -10.306910      -280.4653
   2   2.0000      -1.138645       -30.9841
   3   2.0000      -0.803383       -21.8611
   4   2.0000      -0.613373       -16.6907
   5   2.0000      -0.537832       -14.6352
   6   2.0000      -0.534091       -14.5333
   7   2.0000      -0.443087       -12.0570
   8   2.0000      -0.373127       -10.1533
   9   0.0000       0.070107         1.9077
  10   0.0000       0.131151         3.5688
  11   0.0000       0.147443         4.0121
  12   0.0000       0.171670         4.6714
  13   0.0000       0.190308         5.1785

MULLIKEN ATOMIC CHARGES
-----------------------
   0 C :   -0.002230
   1 O :   -0.002427
   2 H :   -0.000034
   3 H :   -0.000473
   4 H :    0.000031
   5 H :    0.000139
   6 C :   -0.178743
   7 O :   -0.469250
   8 H :    0.312977
   9 H :    0.100232
  10 H :    0.110191
  11 H :    0.129585
Sum of atomic charges:    0.0000000

LOEWDIN ATOMIC CHARGES
----------------------
   0 C :   -0.002384
   1 O :   -0.011698
   2 H :   -0.000749
   3 H :   -0.000594
   4 H :   -0.000034
   5 H :   -0.000042
   6 C :   -0.371614
   7 O :   -0.065887
   8 H :    0.162797
   9 H :    0.097347
  10 H :    0.092633
  11 H :    0.100225

  Mayer bond orders larger than 0.1
B(  6-C ,  7-O ) :   0.9919 B(  6-C ,  9-H ) :   0.9850 B(  6-C , 10-H ) :   0.9769
B(  6-C , 11-H ) :   0.9734 B(  7-O ,  8-H ) :   0.9105

Dispersion correction           -0.000232863
FINAL SINGLE POINT ENERGY      -115.733067433357

DIPOLE MOMENT
-------------
                                X             Y             Z
Electronic contribution:      1.62755      -0.46502       0.82169
Nuclear contribution   :     -1.95267       1.08656      -0.92462
                        -----------------------------------------
Total Dipole Moment    :     -0.32512       0.62155      -0.10293
                        -----------------------------------------
Magnitude (a.u.)       :      0.70895
Magnitude (Debye)      :      1.80202

Rotational constants in cm-1:     4.528845     0.824366     0.794528
Rotational constants in MHz : 135771.360870 24713.872713 23819.350389

                             ****ORCA TERMINATED NORMALLY****
TOTAL RUN TIME: 0 days 0 hours 1 minutes 0 seconds 126 msec
