                         Program Version 4.1.2  - RELEASE  -
|  1> #Run DFT-D3 single point of the dimer
|  2> ! wB97X-D3 def2-TZVP TIGHTSCF CHELPG PMODEL PAL8
|  3>
|  4> %base "5-28_DFT_AB"
|  5>
|  6> %scf
|  7> MaxIter 1000
|  8> end
|  9>
| 10> * xyz 0 1
| 11>   C                      2.739132             -3.942480            -1.008213
| 12>   O                      1.753076             -3.898102            -0.067553
| 13>   H                      2.322324             -4.076974            0.640020
| 14>   H                      3.466281             -4.735064            -0.636827
| 15>   H                      2.402265             -4.144417            -2.020121
| 16>   H                      3.256188             -3.012980            -0.955926
| 17>   C                      2.145759             -7.640377            -5.295091
| 18>   O                      1.602418             -6.643994            -4.406657
| 19>   H                      1.492877             -5.865634            -4.983985
| 20>   H                      2.613263             -8.329677            -4.566801
| 21>   H                      1.370464             -8.215374            -5.818654
| 22>   H                      2.981365             -7.362654            -5.935000
| 23> *
| 24>
| 25> #Run DFT-D3 single point of the molecule with dimer basis set
| 26> $new_job
| 27> %base "5-28_DFT_A"
| 28> ! wB97X-D3 def2-TZVP TIGHTSCF CHELPG PMODEL
| 29>
| 30> %scf
| 31> MaxIter 1000
| 32> end
| 33>
| 34> * xyz 0 1
| 35>   C                      2.739132             -3.942480            -1.008213
| 36>   O                      1.753076             -3.898102            -0.067553
| 37>   H                      2.322324             -4.076974            0.640020
| 38>   H                      3.466281             -4.735064            -0.636827
| 39>   H                      2.402265             -4.144417            -2.020121
| 40>   H                      3.256188             -3.012980            -0.955926
| 41>   C                    : 2.145759             -7.640377            -5.295091
| 42>   O                    : 1.602418             -6.643994            -4.406657
| 43>   H                    : 1.492877             -5.865634            -4.983985
| 44>   H                    : 2.613263             -8.329677            -4.566801
| 45>   H                    : 1.370464             -8.215374            -5.818654
| 46>   H                    : 2.981365             -7.362654            -5.935000
| 47> *
| 48>
| 49> #Run DFT-D3 single point of the particle with dimer basis set
| 50> $new_job
| 51> %base "5-28_DFT_B"
| 52> ! wB97X-D3 def2-TZVP TIGHTSCF CHELPG PMODEL
| 53>
| 54> %scf
| 55> MaxIter 1000
| 56> end
| 57>
| 58> * xyz 0 1
| 59>   C                    : 2.739132             -3.942480            -1.008213
| 60>   O                    : 1.753076             -3.898102            -0.067553
| 61>   H                    : 2.322324             -4.076974            0.640020
| 62>   H                    : 3.466281             -4.735064            -0.636827
| 63>   H                    : 2.402265             -4.144417            -2.020121
| 64>   H                    : 3.256188             -3.012980            -0.955926
| 65>   C                      2.145759             -7.640377            -5.295091
| 66>   O                      1.602418             -6.643994            -4.406657
| 67>   H                      1.492877             -5.865634            -4.983985
| 68>   H                      2.613263             -8.329677            -4.566801
| 69>   H                      1.370464             -8.215374            -5.818654
| 70>   H                      2.981365             -7.362654            -5.935000
| 71> *
| 72>
| 73>                          ****END OF INPUT****
 Total Charge           Charge          ....    0
 Multiplicity           Mult            ....    1
 Number of Electrons    NEL             ....   36
Dispersion correction           -0.000748151
FINAL SINGLE POINT ENERGY      -231.451613678766
Dispersion correction           -0.000170215
FINAL SINGLE POINT ENERGY      -115.719818261934

CARTESIAN COORDINATES (ANGSTROEM)
---------------------------------
  C      2.739132   -3.942480   -1.008213
  O      1.753076   -3.898102   -0.067553
  H      2.322324   -4.076974    0.640020
  H      3.466281   -4.735064   -0.636827
  H      2.402265   -4.144417   -2.020121
  H      3.256188   -3.012980   -0.955926
  C      2.145759   -7.640377   -5.295091
  O      1.602418   -6.643994   -4.406657
  H      1.492877   -5.865634   -4.983985
  H      2.613263   -8.329677   -4.566801
  H      1.370464   -8.215374   -5.818654
  H      2.981365   -7.362654   -5.935000

 Multiplicity           Mult            ....    1
 Number of Electrons    NEL             ....   18
 Basis Dimension        Dim             ....  172

ORBITAL ENERGIES
----------------

  NO   OCC          E(Eh)            E(eV)
   0   2.0000     -19.235585      -523.4269
   1   2.0000     -10.314879      -280.6821
   2   2.0000      -1.129459       -30.7341
   3   2.0000      -0.793613       -21.5953
   4   2.0000      -0.604850       -16.4588
   5   2.0000      -0.544742       -14.8232
   6   2.0000      -0.511592       -13.9211
   7   2.0000      -0.438211       -11.9243
   8   2.0000      -0.378906       -10.3106
   9   0.0000       0.094417         2.5692
  10   0.0000       0.115289         3.1372
  11   0.0000       0.149697         4.0735
  12   0.0000       0.182502         4.9661
  13   0.0000       0.190870         5.1938

MULLIKEN ATOMIC CHARGES
-----------------------
   0 C :    0.001088
   1 O :   -0.000002
   2 H :    0.000004
   3 H :   -0.000018
   4 H :   -0.003448
   5 H :   -0.000097
   6 C :   -0.187496
   7 O :   -0.464793
   8 H :    0.311538
   9 H :    0.119970
  10 H :    0.107960
  11 H :    0.115294
Sum of atomic charges:   -0.0000000

LOEWDIN ATOMIC CHARGES
----------------------
   0 C :   -0.000546
   1 O :   -0.000008
   2 H :   -0.000000
   3 H :   -0.000020
   4 H :   -0.001441
   5 H :   -0.000006
   6 C :   -0.381470
   7 O :   -0.098431
   8 H :    0.175222
   9 H :    0.113947
  10 H :    0.097068
  11 H :    0.095686

  Mayer bond orders larger than 0.1
B(  6-C ,  7-O ) :   1.0028 B(  6-C ,  9-H ) :   0.9814 B(  6-C , 10-H ) :   0.9694
B(  6-C , 11-H ) :   0.9656 B(  7-O ,  8-H ) :   0.9032

Dispersion correction           -0.000261863
FINAL SINGLE POINT ENERGY      -115.731521283620

DIPOLE MOMENT
-------------
                                X             Y             Z
Electronic contribution:     -0.74031       1.29092       1.06514
Nuclear contribution   :      0.91156      -1.21359      -1.75985
                        -----------------------------------------
Total Dipole Moment    :      0.17125       0.07733      -0.69471
                        -----------------------------------------
Magnitude (a.u.)       :      0.71967
Magnitude (Debye)      :      1.82926

Rotational constants in cm-1:     4.230834     0.805623     0.783147
Rotational constants in MHz : 126837.208662 24151.979238 23478.161064

                             ****ORCA TERMINATED NORMALLY****
TOTAL RUN TIME: 0 days 0 hours 0 minutes 50 seconds 801 msec
