                         Program Version 4.1.2  - RELEASE  -
|  1> #Run DFT-D3 single point of the dimer
|  2> ! wB97X-D3 def2-TZVP TIGHTSCF CHELPG PMODEL PAL8
|  3>
|  4> %base "18-82_DFT_AB"
|  5>
|  6> %scf
|  7> MaxIter 1000
|  8> end
|  9>
| 10> * xyz 0 1
| 11>   C                      1.101496             -2.053978            7.307832
| 12>   O                      1.384987             -2.297058            5.969188
| 13>   H                      1.151471             -3.185395            5.702275
| 14>   H                      1.317104             -1.048099            7.698919
| 15>   H                      0.046442             -2.231063            7.406682
| 16>   H                      1.610017             -2.809292            7.907819
| 17>   C                      2.543895             -7.348491            7.449240
| 18>   O                      2.114794             -6.008798            7.767195
| 19>   H                      1.167584             -5.999289            7.725169
| 20>   H                      1.824056             -7.871212            6.835740
| 21>   H                      3.470852             -7.412637            6.832547
| 22>   H                      2.527036             -8.011973            8.287322
| 23> *
| 24>
| 25> #Run DFT-D3 single point of the molecule with dimer basis set
| 26> $new_job
| 27> %base "18-82_DFT_A"
| 28> ! wB97X-D3 def2-TZVP TIGHTSCF CHELPG PMODEL
| 29>
| 30> %scf
| 31> MaxIter 1000
| 32> end
| 33>
| 34> * xyz 0 1
| 35>   C                      1.101496             -2.053978            7.307832
| 36>   O                      1.384987             -2.297058            5.969188
| 37>   H                      1.151471             -3.185395            5.702275
| 38>   H                      1.317104             -1.048099            7.698919
| 39>   H                      0.046442             -2.231063            7.406682
| 40>   H                      1.610017             -2.809292            7.907819
| 41>   C                    : 2.543895             -7.348491            7.449240
| 42>   O                    : 2.114794             -6.008798            7.767195
| 43>   H                    : 1.167584             -5.999289            7.725169
| 44>   H                    : 1.824056             -7.871212            6.835740
| 45>   H                    : 3.470852             -7.412637            6.832547
| 46>   H                    : 2.527036             -8.011973            8.287322
| 47> *
| 48>
| 49> #Run DFT-D3 single point of the particle with dimer basis set
| 50> $new_job
| 51> %base "18-82_DFT_B"
| 52> ! wB97X-D3 def2-TZVP TIGHTSCF CHELPG PMODEL
| 53>
| 54> %scf
| 55> MaxIter 1000
| 56> end
| 57>
| 58> * xyz 0 1
| 59>   C                    : 1.101496             -2.053978            7.307832
| 60>   O                    : 1.384987             -2.297058            5.969188
| 61>   H                    : 1.151471             -3.185395            5.702275
| 62>   H                    : 1.317104             -1.048099            7.698919
| 63>   H                    : 0.046442             -2.231063            7.406682
| 64>   H                    : 1.610017             -2.809292            7.907819
| 65>   C                      2.543895             -7.348491            7.449240
| 66>   O                      2.114794             -6.008798            7.767195
| 67>   H                      1.167584             -5.999289            7.725169
| 68>   H                      1.824056             -7.871212            6.835740
| 69>   H                      3.470852             -7.412637            6.832547
| 70>   H                      2.527036             -8.011973            8.287322
| 71> *
| 72>
| 73>                          ****END OF INPUT****
 Total Charge           Charge          ....    0
 Multiplicity           Mult            ....    1
 Number of Electrons    NEL             ....   36
Dispersion correction           -0.001125085
FINAL SINGLE POINT ENERGY      -231.460514134824
Dispersion correction           -0.000215820
FINAL SINGLE POINT ENERGY      -115.730516898805

CARTESIAN COORDINATES (ANGSTROEM)
---------------------------------
  C      1.101496   -2.053978    7.307832
  O      1.384987   -2.297058    5.969188
  H      1.151471   -3.185395    5.702275
  H      1.317104   -1.048099    7.698919
  H      0.046442   -2.231063    7.406682
  H      1.610017   -2.809292    7.907819
  C      2.543895   -7.348491    7.449240
  O      2.114794   -6.008798    7.767195
  H      1.167584   -5.999289    7.725169
  H      1.824056   -7.871212    6.835740
  H      3.470852   -7.412637    6.832547
  H      2.527036   -8.011973    8.287322

 Multiplicity           Mult            ....    1
 Number of Electrons    NEL             ....   18
 Basis Dimension        Dim             ....  172

ORBITAL ENERGIES
----------------

  NO   OCC          E(Eh)            E(eV)
   0   2.0000     -19.232264      -523.3365
   1   2.0000     -10.314619      -280.6751
   2   2.0000      -1.131929       -30.8013
   3   2.0000      -0.802167       -21.8281
   4   2.0000      -0.614237       -16.7142
   5   2.0000      -0.542573       -14.7642
   6   2.0000      -0.517388       -14.0789
   7   2.0000      -0.435318       -11.8456
   8   2.0000      -0.377590       -10.2747
   9   0.0000       0.089539         2.4365
  10   0.0000       0.121931         3.3179
  11   0.0000       0.149489         4.0678
  12   0.0000       0.174589         4.7508
  13   0.0000       0.194019         5.2795

MULLIKEN ATOMIC CHARGES
-----------------------
   0 C :    0.001056
   1 O :    0.000189
   2 H :   -0.001935
   3 H :   -0.000071
   4 H :    0.000021
   5 H :   -0.003307
   6 C :   -0.184610
   7 O :   -0.466518
   8 H :    0.315241
   9 H :    0.106761
  10 H :    0.124743
  11 H :    0.108430
Sum of atomic charges:    0.0000000

LOEWDIN ATOMIC CHARGES
----------------------
   0 C :   -0.000934
   1 O :   -0.000090
   2 H :   -0.001277
   3 H :   -0.000007
   4 H :   -0.000018
   5 H :   -0.001888
   6 C :   -0.370177
   7 O :   -0.086761
   8 H :    0.161310
   9 H :    0.094654
  10 H :    0.113139
  11 H :    0.092050

  Mayer bond orders larger than 0.1
B(  6-C ,  7-O ) :   1.0016 B(  6-C ,  9-H ) :   0.9827 B(  6-C , 10-H ) :   0.9714
B(  6-C , 11-H ) :   0.9712 B(  7-O ,  8-H ) :   0.9011

Dispersion correction           -0.000258499
FINAL SINGLE POINT ENERGY      -115.729061029401

DIPOLE MOMENT
-------------
                                X             Y             Z
Electronic contribution:     -0.29758       1.84152       0.50591
Nuclear contribution   :     -0.17129      -2.41934      -0.68865
                        -----------------------------------------
Total Dipole Moment    :     -0.46887      -0.57782      -0.18274
                        -----------------------------------------
Magnitude (a.u.)       :      0.76623
Magnitude (Debye)      :      1.94761

Rotational constants in cm-1:     4.476835     0.797887     0.768691
Rotational constants in MHz : 134212.145744 23920.059287 23044.782198

                             ****ORCA TERMINATED NORMALLY****
TOTAL RUN TIME: 0 days 0 hours 1 minutes 3 seconds 64 msec
