                         Program Version 4.1.2  - RELEASE  -
|  1> #Run DFT-D3 single point of the dimer
|  2> ! wB97X-D3 def2-TZVP TIGHTSCF CHELPG PMODEL PAL8
|  3>
|  4> %base "3-173_DFT_AB"
|  5>
|  6> %scf
|  7> MaxIter 1000
|  8> end
|  9>
| 10> * xyz 0 1
| 11>   C                      6.693336             -6.964152            8.347740
| 12>   O                      5.489708             -7.044084            7.656044
| 13>   H                      4.735315             -6.801427            8.232926
| 14>   H                      7.496448             -7.701160            8.003070
| 15>   H                      7.174987             -6.006564            8.470447
| 16>   H                      6.346879             -7.254952            9.338072
| 17>   C                      0.950948             -3.319941            8.340230
| 18>   O                      1.689084             -4.526680            8.530754
| 19>   H                      1.756726             -4.672052            9.437307
| 20>   H                      0.546774             -3.197701            7.363918
| 21>   H                      0.064719             -3.277361            8.944016
| 22>   H                      1.442575             -2.422004            8.557518
| 23> *
| 24>
| 25> #Run DFT-D3 single point of the molecule with dimer basis set
| 26> $new_job
| 27> %base "3-173_DFT_A"
| 28> ! wB97X-D3 def2-TZVP TIGHTSCF CHELPG PMODEL
| 29>
| 30> %scf
| 31> MaxIter 1000
| 32> end
| 33>
| 34> * xyz 0 1
| 35>   C                      6.693336             -6.964152            8.347740
| 36>   O                      5.489708             -7.044084            7.656044
| 37>   H                      4.735315             -6.801427            8.232926
| 38>   H                      7.496448             -7.701160            8.003070
| 39>   H                      7.174987             -6.006564            8.470447
| 40>   H                      6.346879             -7.254952            9.338072
| 41>   C                    : 0.950948             -3.319941            8.340230
| 42>   O                    : 1.689084             -4.526680            8.530754
| 43>   H                    : 1.756726             -4.672052            9.437307
| 44>   H                    : 0.546774             -3.197701            7.363918
| 45>   H                    : 0.064719             -3.277361            8.944016
| 46>   H                    : 1.442575             -2.422004            8.557518
| 47> *
| 48>
| 49> #Run DFT-D3 single point of the particle with dimer basis set
| 50> $new_job
| 51> %base "3-173_DFT_B"
| 52> ! wB97X-D3 def2-TZVP TIGHTSCF CHELPG PMODEL
| 53>
| 54> %scf
| 55> MaxIter 1000
| 56> end
| 57>
| 58> * xyz 0 1
| 59>   C                    : 6.693336             -6.964152            8.347740
| 60>   O                    : 5.489708             -7.044084            7.656044
| 61>   H                    : 4.735315             -6.801427            8.232926
| 62>   H                    : 7.496448             -7.701160            8.003070
| 63>   H                    : 7.174987             -6.006564            8.470447
| 64>   H                    : 6.346879             -7.254952            9.338072
| 65>   C                      0.950948             -3.319941            8.340230
| 66>   O                      1.689084             -4.526680            8.530754
| 67>   H                      1.756726             -4.672052            9.437307
| 68>   H                      0.546774             -3.197701            7.363918
| 69>   H                      0.064719             -3.277361            8.944016
| 70>   H                      1.442575             -2.422004            8.557518
| 71> *
| 72>
| 73>                          ****END OF INPUT****
 Total Charge           Charge          ....    0
 Multiplicity           Mult            ....    1
 Number of Electrons    NEL             ....   36
Dispersion correction           -0.000683121
FINAL SINGLE POINT ENERGY      -231.454249351353
Dispersion correction           -0.000239451
FINAL SINGLE POINT ENERGY      -115.724343473577

CARTESIAN COORDINATES (ANGSTROEM)
---------------------------------
  C      6.693336   -6.964152    8.347740
  O      5.489708   -7.044084    7.656044
  H      4.735315   -6.801427    8.232926
  H      7.496448   -7.701160    8.003070
  H      7.174987   -6.006564    8.470447
  H      6.346879   -7.254952    9.338072
  C      0.950948   -3.319941    8.340230
  O      1.689084   -4.526680    8.530754
  H      1.756726   -4.672052    9.437307
  H      0.546774   -3.197701    7.363918
  H      0.064719   -3.277361    8.944016
  H      1.442575   -2.422004    8.557518

 Multiplicity           Mult            ....    1
 Number of Electrons    NEL             ....   18
 Basis Dimension        Dim             ....  172

ORBITAL ENERGIES
----------------

  NO   OCC          E(Eh)            E(eV)
   0   2.0000     -19.229784      -523.2690
   1   2.0000     -10.304009      -280.3863
   2   2.0000      -1.141318       -31.0568
   3   2.0000      -0.811146       -22.0724
   4   2.0000      -0.618966       -16.8429
   5   2.0000      -0.542166       -14.7531
   6   2.0000      -0.530523       -14.4363
   7   2.0000      -0.437344       -11.9007
   8   2.0000      -0.378987       -10.3128
   9   0.0000       0.092823         2.5258
  10   0.0000       0.120119         3.2686
  11   0.0000       0.149663         4.0725
  12   0.0000       0.179536         4.8854
  13   0.0000       0.201612         5.4861

MULLIKEN ATOMIC CHARGES
-----------------------
   0 C :    0.000068
   1 O :    0.000127
   2 H :   -0.001381
   3 H :    0.000000
   4 H :   -0.000003
   5 H :    0.000017
   6 C :   -0.166549
   7 O :   -0.467605
   8 H :    0.308345
   9 H :    0.119569
  10 H :    0.101228
  11 H :    0.106184
Sum of atomic charges:    0.0000000

LOEWDIN ATOMIC CHARGES
----------------------
   0 C :   -0.000008
   1 O :   -0.000020
   2 H :   -0.000786
   3 H :   -0.000000
   4 H :   -0.000000
   5 H :   -0.000002
   6 C :   -0.366185
   7 O :   -0.060581
   8 H :    0.143436
   9 H :    0.104155
  10 H :    0.094004
  11 H :    0.085987

  Mayer bond orders larger than 0.1
B(  6-C ,  7-O ) :   1.0029 B(  6-C ,  9-H ) :   0.9764 B(  6-C , 10-H ) :   0.9834
B(  6-C , 11-H ) :   0.9734 B(  7-O ,  8-H ) :   0.9087

Dispersion correction           -0.000246817
FINAL SINGLE POINT ENERGY      -115.729470330303

DIPOLE MOMENT
-------------
                                X             Y             Z
Electronic contribution:      1.08639      -1.60076       0.09516
Nuclear contribution   :     -1.37190       2.01505       0.41640
                        -----------------------------------------
Total Dipole Moment    :     -0.28551       0.41429       0.51155
                        -----------------------------------------
Magnitude (a.u.)       :      0.71752
Magnitude (Debye)      :      1.82380

Rotational constants in cm-1:     4.796923     0.811627     0.785836
Rotational constants in MHz : 143808.135773 24331.952481 23558.774740

                             ****ORCA TERMINATED NORMALLY****
TOTAL RUN TIME: 0 days 0 hours 5 minutes 53 seconds 732 msec
