                         Program Version 4.1.2  - RELEASE  -
|  1> #Run DFT-D3 single point of the dimer
|  2> ! wB97X-D3 def2-TZVP TIGHTSCF CHELPG PMODEL PAL8
|  3>
|  4> %base "5-59_DFT_AB"
|  5>
|  6> %scf
|  7> MaxIter 1000
|  8> end
|  9>
| 10> * xyz 0 1
| 11>   C                      -9.804069            7.900826             8.547474
| 12>   O                      -9.071154            7.709983             9.761684
| 13>   H                      -8.392500            7.044270             9.630347
| 14>   H                      -10.682411           8.493206             8.766984
| 15>   H                      -9.235418            8.590576             7.867122
| 16>   H                      -10.142781           7.030390             7.977538
| 17>   C                      -9.789984            3.397003             8.257598
| 18>   O                      -8.878359            3.586016             7.223349
| 19>   H                      -8.985772            2.842737             6.568134
| 20>   H                      -9.967062            2.410120             8.591039
| 21>   H                      -9.563147            4.052607             9.153509
| 22>   H                      -10.742011           3.769991             7.910821
| 23> *
| 24>
| 25> #Run DFT-D3 single point of the molecule with dimer basis set
| 26> $new_job
| 27> %base "5-59_DFT_A"
| 28> ! wB97X-D3 def2-TZVP TIGHTSCF CHELPG PMODEL
| 29>
| 30> %scf
| 31> MaxIter 1000
| 32> end
| 33>
| 34> * xyz 0 1
| 35>   C                      -9.804069            7.900826             8.547474
| 36>   O                      -9.071154            7.709983             9.761684
| 37>   H                      -8.392500            7.044270             9.630347
| 38>   H                      -10.682411           8.493206             8.766984
| 39>   H                      -9.235418            8.590576             7.867122
| 40>   H                      -10.142781           7.030390             7.977538
| 41>   C                    : -9.789984            3.397003             8.257598
| 42>   O                    : -8.878359            3.586016             7.223349
| 43>   H                    : -8.985772            2.842737             6.568134
| 44>   H                    : -9.967062            2.410120             8.591039
| 45>   H                    : -9.563147            4.052607             9.153509
| 46>   H                    : -10.742011           3.769991             7.910821
| 47> *
| 48>
| 49> #Run DFT-D3 single point of the particle with dimer basis set
| 50> $new_job
| 51> %base "5-59_DFT_B"
| 52> ! wB97X-D3 def2-TZVP TIGHTSCF CHELPG PMODEL
| 53>
| 54> %scf
| 55> MaxIter 1000
| 56> end
| 57>
| 58> * xyz 0 1
| 59>   C                    : -9.804069            7.900826             8.547474
| 60>   O                    : -9.071154            7.709983             9.761684
| 61>   H                    : -8.392500            7.044270             9.630347
| 62>   H                    : -10.682411           8.493206             8.766984
| 63>   H                    : -9.235418            8.590576             7.867122
| 64>   H                    : -10.142781           7.030390             7.977538
| 65>   C                      -9.789984            3.397003             8.257598
| 66>   O                      -8.878359            3.586016             7.223349
| 67>   H                      -8.985772            2.842737             6.568134
| 68>   H                      -9.967062            2.410120             8.591039
| 69>   H                      -9.563147            4.052607             9.153509
| 70>   H                      -10.742011           3.769991             7.910821
| 71> *
| 72>
| 73>                          ****END OF INPUT****
 Total Charge           Charge          ....    0
 Multiplicity           Mult            ....    1
 Number of Electrons    NEL             ....   36
Dispersion correction           -0.001272715
FINAL SINGLE POINT ENERGY      -231.465936958621
Dispersion correction           -0.000275749
FINAL SINGLE POINT ENERGY      -115.733938833868

CARTESIAN COORDINATES (ANGSTROEM)
---------------------------------
  C     -9.804069    7.900826    8.547474
  O     -9.071154    7.709983    9.761684
  H     -8.392500    7.044270    9.630347
  H    -10.682411    8.493206    8.766984
  H     -9.235418    8.590576    7.867122
  H    -10.142781    7.030390    7.977538
  C     -9.789984    3.397003    8.257598
  O     -8.878359    3.586016    7.223349
  H     -8.985772    2.842737    6.568134
  H     -9.967062    2.410120    8.591039
  H     -9.563147    4.052607    9.153509
  H    -10.742011    3.769991    7.910821

 Multiplicity           Mult            ....    1
 Number of Electrons    NEL             ....   18
 Basis Dimension        Dim             ....  172

ORBITAL ENERGIES
----------------

  NO   OCC          E(Eh)            E(eV)
   0   2.0000     -19.233635      -523.3738
   1   2.0000     -10.308284      -280.5027
   2   2.0000      -1.136723       -30.9318
   3   2.0000      -0.793216       -21.5845
   4   2.0000      -0.615484       -16.7482
   5   2.0000      -0.540991       -14.7211
   6   2.0000      -0.526718       -14.3327
   7   2.0000      -0.433460       -11.7950
   8   2.0000      -0.368188       -10.0189
   9   0.0000       0.089844         2.4448
  10   0.0000       0.114989         3.1290
  11   0.0000       0.150546         4.0966
  12   0.0000       0.165350         4.4994
  13   0.0000       0.193637         5.2691

MULLIKEN ATOMIC CHARGES
-----------------------
   0 C :   -0.000569
   1 O :   -0.000039
   2 H :    0.000050
   3 H :    0.000051
   4 H :    0.000023
   5 H :    0.000708
   6 C :   -0.162672
   7 O :   -0.472682
   8 H :    0.317857
   9 H :    0.108271
  10 H :    0.112809
  11 H :    0.096193
Sum of atomic charges:   -0.0000000

LOEWDIN ATOMIC CHARGES
----------------------
   0 C :   -0.000443
   1 O :   -0.000064
   2 H :   -0.000300
   3 H :   -0.000003
   4 H :   -0.000003
   5 H :   -0.000335
   6 C :   -0.409013
   7 O :   -0.075486
   8 H :    0.193042
   9 H :    0.085230
  10 H :    0.116224
  11 H :    0.091150

  Mayer bond orders larger than 0.1
B(  6-C ,  7-O ) :   0.9999 B(  6-C ,  9-H ) :   0.9723 B(  6-C , 10-H ) :   0.9714
B(  6-C , 11-H ) :   0.9882 B(  7-O ,  8-H ) :   0.8910

Dispersion correction           -0.000237143
FINAL SINGLE POINT ENERGY      -115.730295549757

DIPOLE MOMENT
-------------
                                X             Y             Z
Electronic contribution:      1.35555       0.22012      -1.28581
Nuclear contribution   :     -1.78180      -0.77289       1.26892
                        -----------------------------------------
Total Dipole Moment    :     -0.42626      -0.55277      -0.01689
                        -----------------------------------------
Magnitude (a.u.)       :      0.69823
Magnitude (Debye)      :      1.77477

Rotational constants in cm-1:     4.359615     0.849550     0.809792
Rotational constants in MHz : 130697.959895 25468.876004 24276.957701

                             ****ORCA TERMINATED NORMALLY****
TOTAL RUN TIME: 0 days 0 hours 0 minutes 49 seconds 884 msec
