                         Program Version 4.1.2  - RELEASE  -
|  1> #Run DFT-D3 single point of the dimer
|  2> ! wB97X-D3 def2-TZVP TIGHTSCF CHELPG PMODEL PAL8
|  3>
|  4> %base "18-1_DFT_AB"
|  5>
|  6> %scf
|  7> MaxIter 1000
|  8> end
|  9>
| 10> * xyz 0 1
| 11>   C                      -10.687114           6.522365             10.912415
| 12>   O                      -10.958699           6.462439             9.495698
| 13>   H                      -11.915597           6.359913             9.432105
| 14>   H                      -9.694428            7.019205             11.201935
| 15>   H                      -11.404788           6.987728             11.574306
| 16>   H                      -10.535777           5.492168             11.351259
| 17>   C                      -8.215719            6.116822             6.804195
| 18>   O                      -9.389042            5.452235             7.337139
| 19>   H                      -9.485368            5.804453             8.222814
| 20>   H                      -7.452653            6.228875             7.592350
| 21>   H                      -7.798064            5.494275             6.044174
| 22>   H                      -8.502615            7.088903             6.458666
| 23> *
| 24>
| 25> #Run DFT-D3 single point of the molecule with dimer basis set
| 26> $new_job
| 27> %base "18-1_DFT_A"
| 28> ! wB97X-D3 def2-TZVP TIGHTSCF CHELPG PMODEL
| 29>
| 30> %scf
| 31> MaxIter 1000
| 32> end
| 33>
| 34> * xyz 0 1
| 35>   C                      -10.687114           6.522365             10.912415
| 36>   O                      -10.958699           6.462439             9.495698
| 37>   H                      -11.915597           6.359913             9.432105
| 38>   H                      -9.694428            7.019205             11.201935
| 39>   H                      -11.404788           6.987728             11.574306
| 40>   H                      -10.535777           5.492168             11.351259
| 41>   C                    : -8.215719            6.116822             6.804195
| 42>   O                    : -9.389042            5.452235             7.337139
| 43>   H                    : -9.485368            5.804453             8.222814
| 44>   H                    : -7.452653            6.228875             7.592350
| 45>   H                    : -7.798064            5.494275             6.044174
| 46>   H                    : -8.502615            7.088903             6.458666
| 47> *
| 48>
| 49> #Run DFT-D3 single point of the particle with dimer basis set
| 50> $new_job
| 51> %base "18-1_DFT_B"
| 52> ! wB97X-D3 def2-TZVP TIGHTSCF CHELPG PMODEL
| 53>
| 54> %scf
| 55> MaxIter 1000
| 56> end
| 57>
| 58> * xyz 0 1
| 59>   C                    : -10.687114           6.522365             10.912415
| 60>   O                    : -10.958699           6.462439             9.495698
| 61>   H                    : -11.915597           6.359913             9.432105
| 62>   H                    : -9.694428            7.019205             11.201935
| 63>   H                    : -11.404788           6.987728             11.574306
| 64>   H                    : -10.535777           5.492168             11.351259
| 65>   C                      -8.215719            6.116822             6.804195
| 66>   O                      -9.389042            5.452235             7.337139
| 67>   H                      -9.485368            5.804453             8.222814
| 68>   H                      -7.452653            6.228875             7.592350
| 69>   H                      -7.798064            5.494275             6.044174
| 70>   H                      -8.502615            7.088903             6.458666
| 71> *
| 72>
| 73>                          ****END OF INPUT****
 Total Charge           Charge          ....    0
 Multiplicity           Mult            ....    1
 Number of Electrons    NEL             ....   36
Dispersion correction           -0.001511402
FINAL SINGLE POINT ENERGY      -231.468582386419
Dispersion correction           -0.000290151
FINAL SINGLE POINT ENERGY      -115.728595900995

CARTESIAN COORDINATES (ANGSTROEM)
---------------------------------
  C    -10.687114    6.522365   10.912415
  O    -10.958699    6.462439    9.495698
  H    -11.915597    6.359913    9.432105
  H     -9.694428    7.019205   11.201935
  H    -11.404788    6.987728   11.574306
  H    -10.535777    5.492168   11.351259
  C     -8.215719    6.116822    6.804195
  O     -9.389042    5.452235    7.337139
  H     -9.485368    5.804453    8.222814
  H     -7.452653    6.228875    7.592350
  H     -7.798064    5.494275    6.044174
  H     -8.502615    7.088903    6.458666

 Multiplicity           Mult            ....    1
 Number of Electrons    NEL             ....   18
 Basis Dimension        Dim             ....  172

ORBITAL ENERGIES
----------------

  NO   OCC          E(Eh)            E(eV)
   0   2.0000     -19.228141      -523.2243
   1   2.0000     -10.312227      -280.6100
   2   2.0000      -1.126881       -30.6640
   3   2.0000      -0.797987       -21.7143
   4   2.0000      -0.603141       -16.4123
   5   2.0000      -0.547784       -14.9060
   6   2.0000      -0.520724       -14.1696
   7   2.0000      -0.439792       -11.9673
   8   2.0000      -0.375011       -10.2046
   9   0.0000       0.071039         1.9331
  10   0.0000       0.128779         3.5043
  11   0.0000       0.151680         4.1274
  12   0.0000       0.168009         4.5718
  13   0.0000       0.194538         5.2936

MULLIKEN ATOMIC CHARGES
-----------------------
   0 C :   -0.001430
   1 O :   -0.003320
   2 H :   -0.000689
   3 H :   -0.000065
   4 H :    0.000005
   5 H :    0.000014
   6 C :   -0.164167
   7 O :   -0.471804
   8 H :    0.308433
   9 H :    0.103692
  10 H :    0.124511
  11 H :    0.104821
Sum of atomic charges:    0.0000000

LOEWDIN ATOMIC CHARGES
----------------------
   0 C :   -0.002922
   1 O :   -0.016795
   2 H :   -0.001196
   3 H :   -0.000164
   4 H :   -0.000067
   5 H :   -0.000114
   6 C :   -0.348582
   7 O :   -0.093711
   8 H :    0.170426
   9 H :    0.098611
  10 H :    0.102750
  11 H :    0.091764

  Mayer bond orders larger than 0.1
B(  6-C ,  7-O ) :   0.9943 B(  6-C ,  9-H ) :   0.9846 B(  6-C , 10-H ) :   0.9739
B(  6-C , 11-H ) :   0.9739 B(  7-O ,  8-H ) :   0.9085

Dispersion correction           -0.000229185
FINAL SINGLE POINT ENERGY      -115.735188911473

DIPOLE MOMENT
-------------
                                X             Y             Z
Electronic contribution:     -1.43692      -0.87549       0.41659
Nuclear contribution   :      1.88181       1.36267      -0.09205
                        -----------------------------------------
Total Dipole Moment    :      0.44489       0.48718       0.32455
                        -----------------------------------------
Magnitude (a.u.)       :      0.73525
Magnitude (Debye)      :      1.86886

Rotational constants in cm-1:     4.261750     0.810564     0.782740
Rotational constants in MHz : 127764.064158 24300.091514 23465.953872

                             ****ORCA TERMINATED NORMALLY****
TOTAL RUN TIME: 0 days 0 hours 1 minutes 5 seconds 488 msec
