                         Program Version 4.1.2  - RELEASE  -
|  1> #Run DFT-D3 single point of the dimer
|  2> ! wB97X-D3 def2-TZVP TIGHTSCF CHELPG PMODEL PAL8
|  3>
|  4> %base "15-134_DFT_AB"
|  5>
|  6> %scf
|  7> MaxIter 1000
|  8> end
|  9>
| 10> * xyz 0 1
| 11>   C                      8.333353             5.513837             5.380126
| 12>   O                      9.205957             5.227535             6.419786
| 13>   H                      8.747401             5.686495             7.167722
| 14>   H                      7.288762             5.499684             5.703675
| 15>   H                      8.573081             6.488046             4.882362
| 16>   H                      8.373617             4.670108             4.635545
| 17>   C                      5.256442             3.173701             4.330914
| 18>   O                      5.647779             3.333847             5.672779
| 19>   H                      4.899699             3.045901             6.165063
| 20>   H                      5.243303             4.136426             3.826357
| 21>   H                      5.965825             2.565790             3.787552
| 22>   H                      4.380051             2.629932             4.138270
| 23> *
| 24>
| 25> #Run DFT-D3 single point of the molecule with dimer basis set
| 26> $new_job
| 27> %base "15-134_DFT_A"
| 28> ! wB97X-D3 def2-TZVP TIGHTSCF CHELPG PMODEL
| 29>
| 30> %scf
| 31> MaxIter 1000
| 32> end
| 33>
| 34> * xyz 0 1
| 35>   C                      8.333353             5.513837             5.380126
| 36>   O                      9.205957             5.227535             6.419786
| 37>   H                      8.747401             5.686495             7.167722
| 38>   H                      7.288762             5.499684             5.703675
| 39>   H                      8.573081             6.488046             4.882362
| 40>   H                      8.373617             4.670108             4.635545
| 41>   C                    : 5.256442             3.173701             4.330914
| 42>   O                    : 5.647779             3.333847             5.672779
| 43>   H                    : 4.899699             3.045901             6.165063
| 44>   H                    : 5.243303             4.136426             3.826357
| 45>   H                    : 5.965825             2.565790             3.787552
| 46>   H                    : 4.380051             2.629932             4.138270
| 47> *
| 48>
| 49> #Run DFT-D3 single point of the particle with dimer basis set
| 50> $new_job
| 51> %base "15-134_DFT_B"
| 52> ! wB97X-D3 def2-TZVP TIGHTSCF CHELPG PMODEL
| 53>
| 54> %scf
| 55> MaxIter 1000
| 56> end
| 57>
| 58> * xyz 0 1
| 59>   C                    : 8.333353             5.513837             5.380126
| 60>   O                    : 9.205957             5.227535             6.419786
| 61>   H                    : 8.747401             5.686495             7.167722
| 62>   H                    : 7.288762             5.499684             5.703675
| 63>   H                    : 8.573081             6.488046             4.882362
| 64>   H                    : 8.373617             4.670108             4.635545
| 65>   C                      5.256442             3.173701             4.330914
| 66>   O                      5.647779             3.333847             5.672779
| 67>   H                      4.899699             3.045901             6.165063
| 68>   H                      5.243303             4.136426             3.826357
| 69>   H                      5.965825             2.565790             3.787552
| 70>   H                      4.380051             2.629932             4.138270
| 71> *
| 72>
| 73>                          ****END OF INPUT****
 Total Charge           Charge          ....    0
 Multiplicity           Mult            ....    1
 Number of Electrons    NEL             ....   36
Dispersion correction           -0.001698449
FINAL SINGLE POINT ENERGY      -231.463969035253
Dispersion correction           -0.000225492
FINAL SINGLE POINT ENERGY      -115.731525308381

CARTESIAN COORDINATES (ANGSTROEM)
---------------------------------
  C      8.333353    5.513837    5.380126
  O      9.205957    5.227535    6.419786
  H      8.747401    5.686495    7.167722
  H      7.288762    5.499684    5.703675
  H      8.573081    6.488046    4.882362
  H      8.373617    4.670108    4.635545
  C      5.256442    3.173701    4.330914
  O      5.647779    3.333847    5.672779
  H      4.899699    3.045901    6.165063
  H      5.243303    4.136426    3.826357
  H      5.965825    2.565790    3.787552
  H      4.380051    2.629932    4.138270

 Multiplicity           Mult            ....    1
 Number of Electrons    NEL             ....   18
 Basis Dimension        Dim             ....  172

ORBITAL ENERGIES
----------------

  NO   OCC          E(Eh)            E(eV)
   0   2.0000     -19.231392      -523.3128
   1   2.0000     -10.304497      -280.3996
   2   2.0000      -1.145633       -31.1743
   3   2.0000      -0.802780       -21.8448
   4   2.0000      -0.621546       -16.9131
   5   2.0000      -0.542090       -14.7510
   6   2.0000      -0.526075       -14.3152
   7   2.0000      -0.443075       -12.0567
   8   2.0000      -0.374189       -10.1822
   9   0.0000       0.097765         2.6603
  10   0.0000       0.125277         3.4090
  11   0.0000       0.151205         4.1145
  12   0.0000       0.182629         4.9696
  13   0.0000       0.195259         5.3133

MULLIKEN ATOMIC CHARGES
-----------------------
   0 C :    0.002475
   1 O :   -0.000063
   2 H :   -0.000090
   3 H :   -0.007554
   4 H :   -0.000146
   5 H :    0.000177
   6 C :   -0.183876
   7 O :   -0.452834
   8 H :    0.310255
   9 H :    0.109460
  10 H :    0.105540
  11 H :    0.116656
Sum of atomic charges:   -0.0000000

LOEWDIN ATOMIC CHARGES
----------------------
   0 C :   -0.005002
   1 O :   -0.000024
   2 H :   -0.000049
   3 H :   -0.006625
   4 H :   -0.000039
   5 H :   -0.000659
   6 C :   -0.389316
   7 O :   -0.048830
   8 H :    0.159889
   9 H :    0.100519
  10 H :    0.100125
  11 H :    0.090011

  Mayer bond orders larger than 0.1
B(  6-C ,  7-O ) :   1.0101 B(  6-C ,  9-H ) :   0.9820 B(  6-C , 10-H ) :   0.9777
B(  6-C , 11-H ) :   0.9754 B(  7-O ,  8-H ) :   0.9066

Dispersion correction           -0.000239453
FINAL SINGLE POINT ENERGY      -115.730836145856

DIPOLE MOMENT
-------------
                                X             Y             Z
Electronic contribution:      0.51682       0.27100       1.81082
Nuclear contribution   :     -1.17045      -0.55852      -2.01788
                        -----------------------------------------
Total Dipole Moment    :     -0.65362      -0.28752      -0.20706
                        -----------------------------------------
Magnitude (a.u.)       :      0.74348
Magnitude (Debye)      :      1.88978

Rotational constants in cm-1:     4.544483     0.838167     0.810774
Rotational constants in MHz : 136240.182552 25127.614164 24306.390096

                             ****ORCA TERMINATED NORMALLY****
TOTAL RUN TIME: 0 days 0 hours 1 minutes 3 seconds 86 msec
