                         Program Version 4.1.2  - RELEASE  -
|  1> #Run DFT-D3 single point of the dimer
|  2> ! wB97X-D3 def2-TZVP TIGHTSCF CHELPG PMODEL PAL8
|  3>
|  4> %base "2-76_DFT_AB"
|  5>
|  6> %scf
|  7> MaxIter 1000
|  8> end
|  9>
| 10> * xyz 0 1
| 11>   C                      -6.296488            0.198913             2.792889
| 12>   O                      -6.461516            -0.521665            1.555688
| 13>   H                      -5.961074            -1.353102            1.626890
| 14>   H                      -6.761771            -0.381322            3.663012
| 15>   H                      -5.261582            0.262228             3.149411
| 16>   H                      -6.779186            1.233509             2.736756
| 17>   C                      -3.081965            -3.151013            1.544681
| 18>   O                      -3.628681            -1.921584            2.059712
| 19>   H                      -2.926189            -1.395261            2.482765
| 20>   H                      -3.471048            -4.077369            1.944780
| 21>   H                      -3.244484            -3.248277            0.437311
| 22>   H                      -2.021864            -3.265605            1.820678
| 23> *
| 24>
| 25> #Run DFT-D3 single point of the molecule with dimer basis set
| 26> $new_job
| 27> %base "2-76_DFT_A"
| 28> ! wB97X-D3 def2-TZVP TIGHTSCF CHELPG PMODEL
| 29>
| 30> %scf
| 31> MaxIter 1000
| 32> end
| 33>
| 34> * xyz 0 1
| 35>   C                      -6.296488            0.198913             2.792889
| 36>   O                      -6.461516            -0.521665            1.555688
| 37>   H                      -5.961074            -1.353102            1.626890
| 38>   H                      -6.761771            -0.381322            3.663012
| 39>   H                      -5.261582            0.262228             3.149411
| 40>   H                      -6.779186            1.233509             2.736756
| 41>   C                    : -3.081965            -3.151013            1.544681
| 42>   O                    : -3.628681            -1.921584            2.059712
| 43>   H                    : -2.926189            -1.395261            2.482765
| 44>   H                    : -3.471048            -4.077369            1.944780
| 45>   H                    : -3.244484            -3.248277            0.437311
| 46>   H                    : -2.021864            -3.265605            1.820678
| 47> *
| 48>
| 49> #Run DFT-D3 single point of the particle with dimer basis set
| 50> $new_job
| 51> %base "2-76_DFT_B"
| 52> ! wB97X-D3 def2-TZVP TIGHTSCF CHELPG PMODEL
| 53>
| 54> %scf
| 55> MaxIter 1000
| 56> end
| 57>
| 58> * xyz 0 1
| 59>   C                    : -6.296488            0.198913             2.792889
| 60>   O                    : -6.461516            -0.521665            1.555688
| 61>   H                    : -5.961074            -1.353102            1.626890
| 62>   H                    : -6.761771            -0.381322            3.663012
| 63>   H                    : -5.261582            0.262228             3.149411
| 64>   H                    : -6.779186            1.233509             2.736756
| 65>   C                      -3.081965            -3.151013            1.544681
| 66>   O                      -3.628681            -1.921584            2.059712
| 67>   H                      -2.926189            -1.395261            2.482765
| 68>   H                      -3.471048            -4.077369            1.944780
| 69>   H                      -3.244484            -3.248277            0.437311
| 70>   H                      -2.021864            -3.265605            1.820678
| 71> *
| 72>
| 73>                          ****END OF INPUT****
 Total Charge           Charge          ....    0
 Multiplicity           Mult            ....    1
 Number of Electrons    NEL             ....   36
Dispersion correction           -0.001723770
FINAL SINGLE POINT ENERGY      -231.466428035385
Dispersion correction           -0.000270371
FINAL SINGLE POINT ENERGY      -115.731069762890

CARTESIAN COORDINATES (ANGSTROEM)
---------------------------------
  C     -6.296488    0.198913    2.792889
  O     -6.461516   -0.521665    1.555688
  H     -5.961074   -1.353102    1.626890
  H     -6.761771   -0.381322    3.663012
  H     -5.261582    0.262228    3.149411
  H     -6.779186    1.233509    2.736756
  C     -3.081965   -3.151013    1.544681
  O     -3.628681   -1.921584    2.059712
  H     -2.926189   -1.395261    2.482765
  H     -3.471048   -4.077369    1.944780
  H     -3.244484   -3.248277    0.437311
  H     -2.021864   -3.265605    1.820678

 Multiplicity           Mult            ....    1
 Number of Electrons    NEL             ....   18
 Basis Dimension        Dim             ....  172

ORBITAL ENERGIES
----------------

  NO   OCC          E(Eh)            E(eV)
   0   2.0000     -19.234802      -523.4056
   1   2.0000     -10.318957      -280.7931
   2   2.0000      -1.125994       -30.6398
   3   2.0000      -0.797350       -21.6970
   4   2.0000      -0.609555       -16.5868
   5   2.0000      -0.530882       -14.4460
   6   2.0000      -0.527725       -14.3601
   7   2.0000      -0.431134       -11.7318
   8   2.0000      -0.375187       -10.2093
   9   0.0000       0.096807         2.6342
  10   0.0000       0.122235         3.3262
  11   0.0000       0.145672         3.9639
  12   0.0000       0.181752         4.9457
  13   0.0000       0.201519         5.4836

MULLIKEN ATOMIC CHARGES
-----------------------
   0 C :    0.004085
   1 O :    0.000434
   2 H :   -0.006477
   3 H :   -0.000812
   4 H :   -0.005086
   5 H :   -0.000126
   6 C :   -0.173365
   7 O :   -0.472135
   8 H :    0.321321
   9 H :    0.109569
  10 H :    0.115568
  11 H :    0.107025
Sum of atomic charges:    0.0000000

LOEWDIN ATOMIC CHARGES
----------------------
   0 C :   -0.005512
   1 O :   -0.002093
   2 H :   -0.013100
   3 H :   -0.000173
   4 H :   -0.002771
   5 H :   -0.000049
   6 C :   -0.374867
   7 O :   -0.083323
   8 H :    0.177876
   9 H :    0.096218
  10 H :    0.107297
  11 H :    0.100498

  Mayer bond orders larger than 0.1
B(  6-C ,  7-O ) :   1.0097 B(  6-C ,  9-H ) :   0.9703 B(  6-C , 10-H ) :   0.9765
B(  6-C , 11-H ) :   0.9796 B(  7-O ,  8-H ) :   0.8927

Dispersion correction           -0.000279221
FINAL SINGLE POINT ENERGY      -115.730224354493

DIPOLE MOMENT
-------------
                                X             Y             Z
Electronic contribution:     -0.86362       1.60103       0.63458
Nuclear contribution   :      1.56485      -1.78840      -0.54583
                        -----------------------------------------
Total Dipole Moment    :      0.70124      -0.18737       0.08875
                        -----------------------------------------
Magnitude (a.u.)       :      0.73124
Magnitude (Debye)      :      1.85867

Rotational constants in cm-1:     4.385500     0.793052     0.761146
Rotational constants in MHz : 131473.989023 23775.101806 22818.584436

                             ****ORCA TERMINATED NORMALLY****
TOTAL RUN TIME: 0 days 0 hours 5 minutes 57 seconds 605 msec
