                         Program Version 4.1.2  - RELEASE  -
|  1> #Run DFT-D3 single point of the dimer
|  2> ! wB97X-D3 def2-TZVP TIGHTSCF CHELPG PMODEL PAL8
|  3>
|  4> %base "14-147_DFT_AB"
|  5>
|  6> %scf
|  7> MaxIter 1000
|  8> end
|  9>
| 10> * xyz 0 1
| 11>   C                      5.639889             -2.002316            -10.846133
| 12>   O                      6.433753             -3.143011            -10.785352
| 13>   H                      7.334829             -3.003655            -11.137374
| 14>   H                      5.024231             -1.919732            -11.762310
| 15>   H                      4.985736             -1.933591            -9.979447
| 16>   H                      6.210420             -1.078636            -10.743734
| 17>   C                      6.017581             -6.453415            -8.567214
| 18>   O                      5.229039             -5.915533            -9.588859
| 19>   H                      5.694986             -5.160984            -9.970381
| 20>   H                      5.702481             -7.454117            -8.465420
| 21>   H                      7.041725             -6.565009            -8.829998
| 22>   H                      6.066577             -5.873545            -7.571626
| 23> *
| 24>
| 25> #Run DFT-D3 single point of the molecule with dimer basis set
| 26> $new_job
| 27> %base "14-147_DFT_A"
| 28> ! wB97X-D3 def2-TZVP TIGHTSCF CHELPG PMODEL
| 29>
| 30> %scf
| 31> MaxIter 1000
| 32> end
| 33>
| 34> * xyz 0 1
| 35>   C                      5.639889             -2.002316            -10.846133
| 36>   O                      6.433753             -3.143011            -10.785352
| 37>   H                      7.334829             -3.003655            -11.137374
| 38>   H                      5.024231             -1.919732            -11.762310
| 39>   H                      4.985736             -1.933591            -9.979447
| 40>   H                      6.210420             -1.078636            -10.743734
| 41>   C                    : 6.017581             -6.453415            -8.567214
| 42>   O                    : 5.229039             -5.915533            -9.588859
| 43>   H                    : 5.694986             -5.160984            -9.970381
| 44>   H                    : 5.702481             -7.454117            -8.465420
| 45>   H                    : 7.041725             -6.565009            -8.829998
| 46>   H                    : 6.066577             -5.873545            -7.571626
| 47> *
| 48>
| 49> #Run DFT-D3 single point of the particle with dimer basis set
| 50> $new_job
| 51> %base "14-147_DFT_B"
| 52> ! wB97X-D3 def2-TZVP TIGHTSCF CHELPG PMODEL
| 53>
| 54> %scf
| 55> MaxIter 1000
| 56> end
| 57>
| 58> * xyz 0 1
| 59>   C                    : 5.639889             -2.002316            -10.846133
| 60>   O                    : 6.433753             -3.143011            -10.785352
| 61>   H                    : 7.334829             -3.003655            -11.137374
| 62>   H                    : 5.024231             -1.919732            -11.762310
| 63>   H                    : 4.985736             -1.933591            -9.979447
| 64>   H                    : 6.210420             -1.078636            -10.743734
| 65>   C                      6.017581             -6.453415            -8.567214
| 66>   O                      5.229039             -5.915533            -9.588859
| 67>   H                      5.694986             -5.160984            -9.970381
| 68>   H                      5.702481             -7.454117            -8.465420
| 69>   H                      7.041725             -6.565009            -8.829998
| 70>   H                      6.066577             -5.873545            -7.571626
| 71> *
| 72>
| 73>                          ****END OF INPUT****
 Total Charge           Charge          ....    0
 Multiplicity           Mult            ....    1
 Number of Electrons    NEL             ....   36
Dispersion correction           -0.001404220
FINAL SINGLE POINT ENERGY      -231.472091281333
Dispersion correction           -0.000258657
FINAL SINGLE POINT ENERGY      -115.734294262263

CARTESIAN COORDINATES (ANGSTROEM)
---------------------------------
  C      5.639889   -2.002316  -10.846133
  O      6.433753   -3.143011  -10.785352
  H      7.334829   -3.003655  -11.137374
  H      5.024231   -1.919732  -11.762310
  H      4.985736   -1.933591   -9.979447
  H      6.210420   -1.078636  -10.743734
  C      6.017581   -6.453415   -8.567214
  O      5.229039   -5.915533   -9.588859
  H      5.694986   -5.160984   -9.970381
  H      5.702481   -7.454117   -8.465420
  H      7.041725   -6.565009   -8.829998
  H      6.066577   -5.873545   -7.571626

 Multiplicity           Mult            ....    1
 Number of Electrons    NEL             ....   18
 Basis Dimension        Dim             ....  172

ORBITAL ENERGIES
----------------

  NO   OCC          E(Eh)            E(eV)
   0   2.0000     -19.233850      -523.3797
   1   2.0000     -10.309573      -280.5377
   2   2.0000      -1.141587       -31.0642
   3   2.0000      -0.798471       -21.7275
   4   2.0000      -0.619309       -16.8523
   5   2.0000      -0.540888       -14.7183
   6   2.0000      -0.523330       -14.2405
   7   2.0000      -0.436279       -11.8718
   8   2.0000      -0.374442       -10.1891
   9   0.0000       0.071031         1.9329
  10   0.0000       0.126570         3.4441
  11   0.0000       0.151373         4.1191
  12   0.0000       0.165692         4.5087
  13   0.0000       0.194505         5.2927

MULLIKEN ATOMIC CHARGES
-----------------------
   0 C :   -0.001153
   1 O :   -0.000602
   2 H :   -0.000042
   3 H :    0.000055
   4 H :   -0.000442
   5 H :   -0.000009
   6 C :   -0.161534
   7 O :   -0.466217
   8 H :    0.312562
   9 H :    0.121669
  10 H :    0.105876
  11 H :    0.089837
Sum of atomic charges:   -0.0000000

LOEWDIN ATOMIC CHARGES
----------------------
   0 C :   -0.001743
   1 O :   -0.007943
   2 H :   -0.000504
   3 H :   -0.000031
   4 H :   -0.000308
   5 H :   -0.000031
   6 C :   -0.400654
   7 O :   -0.057877
   8 H :    0.175791
   9 H :    0.101841
  10 H :    0.088422
  11 H :    0.103036

  Mayer bond orders larger than 0.1
B(  6-C ,  7-O ) :   1.0032 B(  6-C ,  9-H ) :   0.9780 B(  6-C , 10-H ) :   0.9782
B(  6-C , 11-H ) :   0.9638 B(  7-O ,  8-H ) :   0.9046

Dispersion correction           -0.000252050
FINAL SINGLE POINT ENERGY      -115.730824651367

DIPOLE MOMENT
-------------
                                X             Y             Z
Electronic contribution:     -1.19959       0.61804      -1.33323
Nuclear contribution   :      1.82863      -0.38095       1.44074
                        -----------------------------------------
Total Dipole Moment    :      0.62904       0.23709       0.10750
                        -----------------------------------------
Magnitude (a.u.)       :      0.68078
Magnitude (Debye)      :      1.73040

Rotational constants in cm-1:     4.397374     0.838767     0.811900
Rotational constants in MHz : 131829.948873 25145.605470 24340.145944

                             ****ORCA TERMINATED NORMALLY****
TOTAL RUN TIME: 0 days 0 hours 1 minutes 8 seconds 738 msec
