                         Program Version 4.1.2  - RELEASE  -
|  1> #Run DFT-D3 single point of the dimer
|  2> ! wB97X-D3 def2-TZVP TIGHTSCF CHELPG PMODEL PAL8
|  3>
|  4> %base "6-159_DFT_AB"
|  5>
|  6> %scf
|  7> MaxIter 1000
|  8> end
|  9>
| 10> * xyz 0 1
| 11>   C                      -9.188982            2.734245             -3.089868
| 12>   O                      -7.949023            2.911490             -3.748448
| 13>   H                      -7.436477            3.426553             -3.131312
| 14>   H                      -9.203550            1.752508             -2.653941
| 15>   H                      -9.451400            3.492022             -2.322861
| 16>   H                      -10.104893           2.853784             -3.707225
| 17>   C                      -4.140601            4.017611             -3.706493
| 18>   O                      -4.263904            3.967901             -2.364951
| 19>   H                      -5.079723            4.217883             -1.945731
| 20>   H                      -4.671570            3.223314             -4.151186
| 21>   H                      -4.523097            4.919380             -4.129298
| 22>   H                      -3.104929            3.963434             -3.947013
| 23> *
| 24>
| 25> #Run DFT-D3 single point of the molecule with dimer basis set
| 26> $new_job
| 27> %base "6-159_DFT_A"
| 28> ! wB97X-D3 def2-TZVP TIGHTSCF CHELPG PMODEL
| 29>
| 30> %scf
| 31> MaxIter 1000
| 32> end
| 33>
| 34> * xyz 0 1
| 35>   C                      -9.188982            2.734245             -3.089868
| 36>   O                      -7.949023            2.911490             -3.748448
| 37>   H                      -7.436477            3.426553             -3.131312
| 38>   H                      -9.203550            1.752508             -2.653941
| 39>   H                      -9.451400            3.492022             -2.322861
| 40>   H                      -10.104893           2.853784             -3.707225
| 41>   C                    : -4.140601            4.017611             -3.706493
| 42>   O                    : -4.263904            3.967901             -2.364951
| 43>   H                    : -5.079723            4.217883             -1.945731
| 44>   H                    : -4.671570            3.223314             -4.151186
| 45>   H                    : -4.523097            4.919380             -4.129298
| 46>   H                    : -3.104929            3.963434             -3.947013
| 47> *
| 48>
| 49> #Run DFT-D3 single point of the particle with dimer basis set
| 50> $new_job
| 51> %base "6-159_DFT_B"
| 52> ! wB97X-D3 def2-TZVP TIGHTSCF CHELPG PMODEL
| 53>
| 54> %scf
| 55> MaxIter 1000
| 56> end
| 57>
| 58> * xyz 0 1
| 59>   C                    : -9.188982            2.734245             -3.089868
| 60>   O                    : -7.949023            2.911490             -3.748448
| 61>   H                    : -7.436477            3.426553             -3.131312
| 62>   H                    : -9.203550            1.752508             -2.653941
| 63>   H                    : -9.451400            3.492022             -2.322861
| 64>   H                    : -10.104893           2.853784             -3.707225
| 65>   C                      -4.140601            4.017611             -3.706493
| 66>   O                      -4.263904            3.967901             -2.364951
| 67>   H                      -5.079723            4.217883             -1.945731
| 68>   H                      -4.671570            3.223314             -4.151186
| 69>   H                      -4.523097            4.919380             -4.129298
| 70>   H                      -3.104929            3.963434             -3.947013
| 71> *
| 72>
| 73>                          ****END OF INPUT****
 Total Charge           Charge          ....    0
 Multiplicity           Mult            ....    1
 Number of Electrons    NEL             ....   36
Dispersion correction           -0.001341384
FINAL SINGLE POINT ENERGY      -231.459332229128
Dispersion correction           -0.000252695
FINAL SINGLE POINT ENERGY      -115.730456731327

CARTESIAN COORDINATES (ANGSTROEM)
---------------------------------
  C     -9.188982    2.734245   -3.089868
  O     -7.949023    2.911490   -3.748448
  H     -7.436477    3.426553   -3.131312
  H     -9.203550    1.752508   -2.653941
  H     -9.451400    3.492022   -2.322861
  H    -10.104893    2.853784   -3.707225
  C     -4.140601    4.017611   -3.706493
  O     -4.263904    3.967901   -2.364951
  H     -5.079723    4.217883   -1.945731
  H     -4.671570    3.223314   -4.151186
  H     -4.523097    4.919380   -4.129298
  H     -3.104929    3.963434   -3.947013

 Multiplicity           Mult            ....    1
 Number of Electrons    NEL             ....   18
 Basis Dimension        Dim             ....  172

ORBITAL ENERGIES
----------------

  NO   OCC          E(Eh)            E(eV)
   0   2.0000     -19.220667      -523.0209
   1   2.0000     -10.296395      -280.1792
   2   2.0000      -1.149472       -31.2787
   3   2.0000      -0.806433       -21.9442
   4   2.0000      -0.627972       -17.0880
   5   2.0000      -0.553403       -15.0589
   6   2.0000      -0.539360       -14.6767
   7   2.0000      -0.416114       -11.3230
   8   2.0000      -0.367598       -10.0028
   9   0.0000       0.077642         2.1128
  10   0.0000       0.119532         3.2526
  11   0.0000       0.157541         4.2869
  12   0.0000       0.184101         5.0096
  13   0.0000       0.196903         5.3580

MULLIKEN ATOMIC CHARGES
-----------------------
   0 C :    0.000263
   1 O :    0.000113
   2 H :   -0.002370
   3 H :   -0.000017
   4 H :   -0.000019
   5 H :   -0.000002
   6 C :   -0.119205
   7 O :   -0.493534
   8 H :    0.320533
   9 H :    0.092180
  10 H :    0.086172
  11 H :    0.115887
Sum of atomic charges:    0.0000000

LOEWDIN ATOMIC CHARGES
----------------------
   0 C :   -0.000048
   1 O :   -0.000397
   2 H :   -0.002182
   3 H :   -0.000001
   4 H :   -0.000002
   5 H :   -0.000001
   6 C :   -0.415950
   7 O :   -0.024889
   8 H :    0.163252
   9 H :    0.085866
  10 H :    0.088211
  11 H :    0.106141

  Mayer bond orders larger than 0.1
B(  6-C ,  7-O ) :   0.9939 B(  6-C ,  9-H ) :   0.9850 B(  6-C , 10-H ) :   0.9843
B(  6-C , 11-H ) :   0.9736 B(  7-O ,  8-H ) :   0.8909

Dispersion correction           -0.000224283
FINAL SINGLE POINT ENERGY      -115.729453325022

DIPOLE MOMENT
-------------
                                X             Y             Z
Electronic contribution:     -0.06152      -0.10151       1.72793
Nuclear contribution   :     -0.43946       0.30062      -1.96879
                        -----------------------------------------
Total Dipole Moment    :     -0.50098       0.19911      -0.24086
                        -----------------------------------------
Magnitude (a.u.)       :      0.59046
Magnitude (Debye)      :      1.50082

Rotational constants in cm-1:     4.693696     0.892012     0.862702
Rotational constants in MHz : 140713.477217 26741.849987 25863.152397

                             ****ORCA TERMINATED NORMALLY****
TOTAL RUN TIME: 0 days 0 hours 1 minutes 2 seconds 23 msec
