                         Program Version 4.1.2  - RELEASE  -
|  1> #Run DFT-D3 single point of the dimer
|  2> ! wB97X-D3 def2-TZVP TIGHTSCF CHELPG PMODEL PAL8
|  3>
|  4> %base "22-20_DFT_AB"
|  5>
|  6> %scf
|  7> MaxIter 1000
|  8> end
|  9>
| 10> * xyz 0 1
| 11>   C                      -0.754698            -4.429643            3.939378
| 12>   O                      -1.196798            -4.428082            5.254249
| 13>   H                      -0.395699            -4.752719            5.779728
| 14>   H                      -0.383757            -5.340087            3.635676
| 15>   H                      -1.507620            -4.118996            3.190048
| 16>   H                      0.031200             -3.762485            3.769299
| 17>   C                      2.297773             -6.764124            0.287503
| 18>   O                      2.256616             -5.790287            -0.759902
| 19>   H                      2.855951             -5.067472            -0.529458
| 20>   H                      1.602706             -7.583123            0.132265
| 21>   H                      3.277914             -7.233672            0.455721
| 22>   H                      1.867347             -6.276976            1.178452
| 23> *
| 24>
| 25> #Run DFT-D3 single point of the molecule with dimer basis set
| 26> $new_job
| 27> %base "22-20_DFT_A"
| 28> ! wB97X-D3 def2-TZVP TIGHTSCF CHELPG PMODEL
| 29>
| 30> %scf
| 31> MaxIter 1000
| 32> end
| 33>
| 34> * xyz 0 1
| 35>   C                      -0.754698            -4.429643            3.939378
| 36>   O                      -1.196798            -4.428082            5.254249
| 37>   H                      -0.395699            -4.752719            5.779728
| 38>   H                      -0.383757            -5.340087            3.635676
| 39>   H                      -1.507620            -4.118996            3.190048
| 40>   H                      0.031200             -3.762485            3.769299
| 41>   C                    : 2.297773             -6.764124            0.287503
| 42>   O                    : 2.256616             -5.790287            -0.759902
| 43>   H                    : 2.855951             -5.067472            -0.529458
| 44>   H                    : 1.602706             -7.583123            0.132265
| 45>   H                    : 3.277914             -7.233672            0.455721
| 46>   H                    : 1.867347             -6.276976            1.178452
| 47> *
| 48>
| 49> #Run DFT-D3 single point of the particle with dimer basis set
| 50> $new_job
| 51> %base "22-20_DFT_B"
| 52> ! wB97X-D3 def2-TZVP TIGHTSCF CHELPG PMODEL
| 53>
| 54> %scf
| 55> MaxIter 1000
| 56> end
| 57>
| 58> * xyz 0 1
| 59>   C                    : -0.754698            -4.429643            3.939378
| 60>   O                    : -1.196798            -4.428082            5.254249
| 61>   H                    : -0.395699            -4.752719            5.779728
| 62>   H                    : -0.383757            -5.340087            3.635676
| 63>   H                    : -1.507620            -4.118996            3.190048
| 64>   H                    : 0.031200             -3.762485            3.769299
| 65>   C                      2.297773             -6.764124            0.287503
| 66>   O                      2.256616             -5.790287            -0.759902
| 67>   H                      2.855951             -5.067472            -0.529458
| 68>   H                      1.602706             -7.583123            0.132265
| 69>   H                      3.277914             -7.233672            0.455721
| 70>   H                      1.867347             -6.276976            1.178452
| 71> *
| 72>
| 73>                          ****END OF INPUT****
 Total Charge           Charge          ....    0
 Multiplicity           Mult            ....    1
 Number of Electrons    NEL             ....   36
Dispersion correction           -0.000731665
FINAL SINGLE POINT ENERGY      -231.459574971581
Dispersion correction           -0.000214268
FINAL SINGLE POINT ENERGY      -115.726272634152

CARTESIAN COORDINATES (ANGSTROEM)
---------------------------------
  C     -0.754698   -4.429643    3.939378
  O     -1.196798   -4.428082    5.254249
  H     -0.395699   -4.752719    5.779728
  H     -0.383757   -5.340087    3.635676
  H     -1.507620   -4.118996    3.190048
  H      0.031200   -3.762485    3.769299
  C      2.297773   -6.764124    0.287503
  O      2.256616   -5.790287   -0.759902
  H      2.855951   -5.067472   -0.529458
  H      1.602706   -7.583123    0.132265
  H      3.277914   -7.233672    0.455721
  H      1.867347   -6.276976    1.178452

 Multiplicity           Mult            ....    1
 Number of Electrons    NEL             ....   18
 Basis Dimension        Dim             ....  172

ORBITAL ENERGIES
----------------

  NO   OCC          E(Eh)            E(eV)
   0   2.0000     -19.230306      -523.2832
   1   2.0000     -10.314637      -280.6755
   2   2.0000      -1.129053       -30.7231
   3   2.0000      -0.796328       -21.6692
   4   2.0000      -0.602307       -16.3896
   5   2.0000      -0.545713       -14.8496
   6   2.0000      -0.526794       -14.3348
   7   2.0000      -0.427091       -11.6217
   8   2.0000      -0.374778       -10.1982
   9   0.0000       0.082657         2.2492
  10   0.0000       0.117087         3.1861
  11   0.0000       0.146800         3.9946
  12   0.0000       0.165625         4.5069
  13   0.0000       0.183203         4.9852

MULLIKEN ATOMIC CHARGES
-----------------------
   0 C :    0.000332
   1 O :    0.000002
   2 H :    0.000000
   3 H :   -0.000423
   4 H :   -0.000041
   5 H :   -0.000085
   6 C :   -0.170289
   7 O :   -0.476024
   8 H :    0.316215
   9 H :    0.120333
  10 H :    0.105491
  11 H :    0.104487
Sum of atomic charges:   -0.0000000

LOEWDIN ATOMIC CHARGES
----------------------
   0 C :   -0.000193
   1 O :   -0.000003
   2 H :   -0.000000
   3 H :   -0.000355
   4 H :   -0.000004
   5 H :   -0.000028
   6 C :   -0.379450
   7 O :   -0.093863
   8 H :    0.171692
   9 H :    0.106528
  10 H :    0.096181
  11 H :    0.099495

  Mayer bond orders larger than 0.1
B(  6-C ,  7-O ) :   0.9991 B(  6-C ,  9-H ) :   0.9715 B(  6-C , 10-H ) :   0.9688
B(  6-C , 11-H ) :   0.9857 B(  7-O ,  8-H ) :   0.8975

Dispersion correction           -0.000253330
FINAL SINGLE POINT ENERGY      -115.733175343088

DIPOLE MOMENT
-------------
                                X             Y             Z
Electronic contribution:     -0.04310       1.12927      -1.45681
Nuclear contribution   :      0.41519      -1.08374       2.02613
                        -----------------------------------------
Total Dipole Moment    :      0.37209       0.04553       0.56932
                        -----------------------------------------
Magnitude (a.u.)       :      0.68165
Magnitude (Debye)      :      1.73262

Rotational constants in cm-1:     4.333094     0.804976     0.787486
Rotational constants in MHz : 129902.896283 24132.573575 23608.223158

                             ****ORCA TERMINATED NORMALLY****
TOTAL RUN TIME: 0 days 0 hours 0 minutes 53 seconds 720 msec
