                         Program Version 4.1.2  - RELEASE  -
|  1> #Run DFT-D3 single point of the dimer
|  2> ! wB97X-D3 def2-TZVP TIGHTSCF CHELPG PMODEL PAL8
|  3>
|  4> %base "16-14_DFT_AB"
|  5>
|  6> %scf
|  7> MaxIter 1000
|  8> end
|  9>
| 10> * xyz 0 1
| 11>   C                      -9.460971            -5.850150            -9.983236
| 12>   O                      -8.591912            -6.718918            -10.686473
| 13>   H                      -8.695396            -7.506844            -10.221084
| 14>   H                      -10.460182           -6.178799            -10.083656
| 15>   H                      -9.193688            -5.917862            -8.911150
| 16>   H                      -9.460853            -4.773154            -10.286841
| 17>   C                      -5.590370            -7.869805            -9.159098
| 18>   O                      -6.107930            -8.282535            -7.889996
| 19>   H                      -7.005371            -8.557653            -7.957416
| 20>   H                      -6.105004            -6.922504            -9.527348
| 21>   H                      -4.508572            -7.705444            -9.112053
| 22>   H                      -5.763735            -8.656621            -9.890694
| 23> *
| 24>
| 25> #Run DFT-D3 single point of the molecule with dimer basis set
| 26> $new_job
| 27> %base "16-14_DFT_A"
| 28> ! wB97X-D3 def2-TZVP TIGHTSCF CHELPG PMODEL
| 29>
| 30> %scf
| 31> MaxIter 1000
| 32> end
| 33>
| 34> * xyz 0 1
| 35>   C                      -9.460971            -5.850150            -9.983236
| 36>   O                      -8.591912            -6.718918            -10.686473
| 37>   H                      -8.695396            -7.506844            -10.221084
| 38>   H                      -10.460182           -6.178799            -10.083656
| 39>   H                      -9.193688            -5.917862            -8.911150
| 40>   H                      -9.460853            -4.773154            -10.286841
| 41>   C                    : -5.590370            -7.869805            -9.159098
| 42>   O                    : -6.107930            -8.282535            -7.889996
| 43>   H                    : -7.005371            -8.557653            -7.957416
| 44>   H                    : -6.105004            -6.922504            -9.527348
| 45>   H                    : -4.508572            -7.705444            -9.112053
| 46>   H                    : -5.763735            -8.656621            -9.890694
| 47> *
| 48>
| 49> #Run DFT-D3 single point of the particle with dimer basis set
| 50> $new_job
| 51> %base "16-14_DFT_B"
| 52> ! wB97X-D3 def2-TZVP TIGHTSCF CHELPG PMODEL
| 53>
| 54> %scf
| 55> MaxIter 1000
| 56> end
| 57>
| 58> * xyz 0 1
| 59>   C                    : -9.460971            -5.850150            -9.983236
| 60>   O                    : -8.591912            -6.718918            -10.686473
| 61>   H                    : -8.695396            -7.506844            -10.221084
| 62>   H                    : -10.460182           -6.178799            -10.083656
| 63>   H                    : -9.193688            -5.917862            -8.911150
| 64>   H                    : -9.460853            -4.773154            -10.286841
| 65>   C                      -5.590370            -7.869805            -9.159098
| 66>   O                      -6.107930            -8.282535            -7.889996
| 67>   H                      -7.005371            -8.557653            -7.957416
| 68>   H                      -6.105004            -6.922504            -9.527348
| 69>   H                      -4.508572            -7.705444            -9.112053
| 70>   H                      -5.763735            -8.656621            -9.890694
| 71> *
| 72>
| 73>                          ****END OF INPUT****
 Total Charge           Charge          ....    0
 Multiplicity           Mult            ....    1
 Number of Electrons    NEL             ....   36
Dispersion correction           -0.001755464
FINAL SINGLE POINT ENERGY      -231.465516931944
Dispersion correction           -0.000213957
FINAL SINGLE POINT ENERGY      -115.730168762458

CARTESIAN COORDINATES (ANGSTROEM)
---------------------------------
  C     -9.460971   -5.850150   -9.983236
  O     -8.591912   -6.718918  -10.686473
  H     -8.695396   -7.506844  -10.221084
  H    -10.460182   -6.178799  -10.083656
  H     -9.193688   -5.917862   -8.911150
  H     -9.460853   -4.773154  -10.286841
  C     -5.590370   -7.869805   -9.159098
  O     -6.107930   -8.282535   -7.889996
  H     -7.005371   -8.557653   -7.957416
  H     -6.105004   -6.922504   -9.527348
  H     -4.508572   -7.705444   -9.112053
  H     -5.763735   -8.656621   -9.890694

 Multiplicity           Mult            ....    1
 Number of Electrons    NEL             ....   18
 Basis Dimension        Dim             ....  172

ORBITAL ENERGIES
----------------

  NO   OCC          E(Eh)            E(eV)
   0   2.0000     -19.226690      -523.1848
   1   2.0000     -10.319767      -280.8151
   2   2.0000      -1.132323       -30.8121
   3   2.0000      -0.796392       -21.6709
   4   2.0000      -0.608811       -16.5666
   5   2.0000      -0.535982       -14.5848
   6   2.0000      -0.529391       -14.4055
   7   2.0000      -0.430643       -11.7184
   8   2.0000      -0.373109       -10.1528
   9   0.0000       0.075157         2.0451
  10   0.0000       0.125069         3.4033
  11   0.0000       0.148811         4.0493
  12   0.0000       0.172364         4.6903
  13   0.0000       0.187049         5.0899

MULLIKEN ATOMIC CHARGES
-----------------------
   0 C :   -0.000537
   1 O :    0.000195
   2 H :    0.000008
   3 H :    0.000021
   4 H :   -0.000323
   5 H :    0.000036
   6 C :   -0.165693
   7 O :   -0.481874
   8 H :    0.313827
   9 H :    0.097895
  10 H :    0.128430
  11 H :    0.108015
Sum of atomic charges:   -0.0000000

LOEWDIN ATOMIC CHARGES
----------------------
   0 C :   -0.001139
   1 O :   -0.002846
   2 H :   -0.001649
   3 H :   -0.000017
   4 H :   -0.000309
   5 H :   -0.000022
   6 C :   -0.371187
   7 O :   -0.082764
   8 H :    0.153200
   9 H :    0.103173
  10 H :    0.109168
  11 H :    0.094392

  Mayer bond orders larger than 0.1
B(  6-C ,  7-O ) :   0.9925 B(  6-C ,  9-H ) :   0.9726 B(  6-C , 10-H ) :   0.9709
B(  6-C , 11-H ) :   0.9794 B(  7-O ,  8-H ) :   0.9013

Dispersion correction           -0.000255146
FINAL SINGLE POINT ENERGY      -115.734858976399

DIPOLE MOMENT
-------------
                                X             Y             Z
Electronic contribution:     -0.48122      -0.50322       1.67723
Nuclear contribution   :      0.12892       0.47277      -2.24658
                        -----------------------------------------
Total Dipole Moment    :     -0.35229      -0.03045      -0.56935
                        -----------------------------------------
Magnitude (a.u.)       :      0.67022
Magnitude (Debye)      :      1.70357

Rotational constants in cm-1:     4.268383     0.807963     0.783625
Rotational constants in MHz : 127962.894339 24222.110909 23492.490575

                             ****ORCA TERMINATED NORMALLY****
TOTAL RUN TIME: 0 days 0 hours 1 minutes 5 seconds 80 msec
