                         Program Version 4.1.2  - RELEASE  -
|  1> #Run DFT-D3 single point of the dimer
|  2> ! wB97X-D3 def2-TZVP TIGHTSCF CHELPG PMODEL PAL8
|  3>
|  4> %base "7-134_DFT_AB"
|  5>
|  6> %scf
|  7> MaxIter 1000
|  8> end
|  9>
| 10> * xyz 0 1
| 11>   C                      6.456207             -9.635121            -3.002352
| 12>   O                      5.313552             -8.929165            -2.542253
| 13>   H                      4.539224             -9.296089            -2.995425
| 14>   H                      6.621316             -9.549502            -4.115482
| 15>   H                      7.368162             -9.420814            -2.398574
| 16>   H                      6.249894             -10.692458           -2.982951
| 17>   C                      7.267881             -9.249310            0.379082
| 18>   O                      6.532941             -10.433667           0.124690
| 19>   H                      5.884201             -10.210428           -0.557404
| 20>   H                      7.896792             -9.465729            1.292165
| 21>   H                      8.034743             -9.052904            -0.346697
| 22>   H                      6.639650             -8.371010            0.421640
| 23> *
| 24>
| 25> #Run DFT-D3 single point of the molecule with dimer basis set
| 26> $new_job
| 27> %base "7-134_DFT_A"
| 28> ! wB97X-D3 def2-TZVP TIGHTSCF CHELPG PMODEL
| 29>
| 30> %scf
| 31> MaxIter 1000
| 32> end
| 33>
| 34> * xyz 0 1
| 35>   C                      6.456207             -9.635121            -3.002352
| 36>   O                      5.313552             -8.929165            -2.542253
| 37>   H                      4.539224             -9.296089            -2.995425
| 38>   H                      6.621316             -9.549502            -4.115482
| 39>   H                      7.368162             -9.420814            -2.398574
| 40>   H                      6.249894             -10.692458           -2.982951
| 41>   C                    : 7.267881             -9.249310            0.379082
| 42>   O                    : 6.532941             -10.433667           0.124690
| 43>   H                    : 5.884201             -10.210428           -0.557404
| 44>   H                    : 7.896792             -9.465729            1.292165
| 45>   H                    : 8.034743             -9.052904            -0.346697
| 46>   H                    : 6.639650             -8.371010            0.421640
| 47> *
| 48>
| 49> #Run DFT-D3 single point of the particle with dimer basis set
| 50> $new_job
| 51> %base "7-134_DFT_B"
| 52> ! wB97X-D3 def2-TZVP TIGHTSCF CHELPG PMODEL
| 53>
| 54> %scf
| 55> MaxIter 1000
| 56> end
| 57>
| 58> * xyz 0 1
| 59>   C                    : 6.456207             -9.635121            -3.002352
| 60>   O                    : 5.313552             -8.929165            -2.542253
| 61>   H                    : 4.539224             -9.296089            -2.995425
| 62>   H                    : 6.621316             -9.549502            -4.115482
| 63>   H                    : 7.368162             -9.420814            -2.398574
| 64>   H                    : 6.249894             -10.692458           -2.982951
| 65>   C                      7.267881             -9.249310            0.379082
| 66>   O                      6.532941             -10.433667           0.124690
| 67>   H                      5.884201             -10.210428           -0.557404
| 68>   H                      7.896792             -9.465729            1.292165
| 69>   H                      8.034743             -9.052904            -0.346697
| 70>   H                      6.639650             -8.371010            0.421640
| 71> *
| 72>
| 73>                          ****END OF INPUT****
 Total Charge           Charge          ....    0
 Multiplicity           Mult            ....    1
 Number of Electrons    NEL             ....   36
Dispersion correction           -0.002314259
FINAL SINGLE POINT ENERGY      -231.469786930639
Dispersion correction           -0.000242611
FINAL SINGLE POINT ENERGY      -115.730976487041

CARTESIAN COORDINATES (ANGSTROEM)
---------------------------------
  C      6.456207   -9.635121   -3.002352
  O      5.313552   -8.929165   -2.542253
  H      4.539224   -9.296089   -2.995425
  H      6.621316   -9.549502   -4.115482
  H      7.368162   -9.420814   -2.398574
  H      6.249894  -10.692458   -2.982951
  C      7.267881   -9.249310    0.379082
  O      6.532941  -10.433667    0.124690
  H      5.884201  -10.210428   -0.557404
  H      7.896792   -9.465729    1.292165
  H      8.034743   -9.052904   -0.346697
  H      6.639650   -8.371010    0.421640

 Multiplicity           Mult            ....    1
 Number of Electrons    NEL             ....   18
 Basis Dimension        Dim             ....  172

ORBITAL ENERGIES
----------------

  NO   OCC          E(Eh)            E(eV)
   0   2.0000     -19.233365      -523.3665
   1   2.0000     -10.313291      -280.6389
   2   2.0000      -1.136069       -30.9140
   3   2.0000      -0.794920       -21.6309
   4   2.0000      -0.614185       -16.7128
   5   2.0000      -0.545060       -14.8318
   6   2.0000      -0.517032       -14.0692
   7   2.0000      -0.440205       -11.9786
   8   2.0000      -0.372854       -10.1459
   9   0.0000       0.071866         1.9556
  10   0.0000       0.138501         3.7688
  11   0.0000       0.145666         3.9638
  12   0.0000       0.166567         4.5325
  13   0.0000       0.194661         5.2970

MULLIKEN ATOMIC CHARGES
-----------------------
   0 C :   -0.014890
   1 O :   -0.000048
   2 H :   -0.000091
   3 H :   -0.000653
   4 H :    0.004651
   5 H :    0.000518
   6 C :   -0.174970
   7 O :   -0.459892
   8 H :    0.312528
   9 H :    0.123535
  10 H :    0.100357
  11 H :    0.108955
Sum of atomic charges:    0.0000000

LOEWDIN ATOMIC CHARGES
----------------------
   0 C :   -0.016685
   1 O :   -0.004187
   2 H :   -0.000429
   3 H :   -0.000201
   4 H :   -0.007398
   5 H :   -0.002353
   6 C :   -0.382560
   7 O :   -0.066782
   8 H :    0.175676
   9 H :    0.118893
  10 H :    0.092198
  11 H :    0.093830

  Mayer bond orders larger than 0.1
B(  6-C ,  7-O ) :   1.0033 B(  6-C ,  9-H ) :   0.9769 B(  6-C , 10-H ) :   0.9742
B(  6-C , 11-H ) :   0.9791 B(  7-O ,  8-H ) :   0.9041

Dispersion correction           -0.000239839
FINAL SINGLE POINT ENERGY      -115.733584293610

DIPOLE MOMENT
-------------
                                X             Y             Z
Electronic contribution:     -0.96955      -1.52722      -0.22443
Nuclear contribution   :      0.86665       2.12616      -0.10440
                        -----------------------------------------
Total Dipole Moment    :     -0.10290       0.59894      -0.32883
                        -----------------------------------------
Magnitude (a.u.)       :      0.69097
Magnitude (Debye)      :      1.75632

Rotational constants in cm-1:     4.260320     0.837967     0.793076
Rotational constants in MHz : 127721.173752 25121.607360 23775.817894

                             ****ORCA TERMINATED NORMALLY****
TOTAL RUN TIME: 0 days 0 hours 1 minutes 2 seconds 464 msec
