                         Program Version 4.1.2  - RELEASE  -
|  1> #Run DFT-D3 single point of the dimer
|  2> ! wB97X-D3 def2-TZVP TIGHTSCF CHELPG PMODEL PAL8
|  3>
|  4> %base "19-120_DFT_AB"
|  5>
|  6> %scf
|  7> MaxIter 1000
|  8> end
|  9>
| 10> * xyz 0 1
| 11>   C                      -0.942349            -0.312623            6.462802
| 12>   O                      -1.254387            -1.464392            7.229617
| 13>   H                      -0.880571            -2.244624            6.848968
| 14>   H                      -1.109190            -0.446360            5.396069
| 15>   H                      -1.477128            0.535260             6.817403
| 16>   H                      0.090158             -0.179774            6.506438
| 17>   C                      0.047512             0.175918             10.039209
| 18>   O                      -1.173762            0.342067             9.306072
| 19>   H                      -1.409839            -0.517275            8.897116
| 20>   H                      0.918030             0.086260             9.426686
| 21>   H                      0.369282             0.973946             10.683957
| 22>   H                      -0.034030            -0.747890            10.620444
| 23> *
| 24>
| 25> #Run DFT-D3 single point of the molecule with dimer basis set
| 26> $new_job
| 27> %base "19-120_DFT_A"
| 28> ! wB97X-D3 def2-TZVP TIGHTSCF CHELPG PMODEL
| 29>
| 30> %scf
| 31> MaxIter 1000
| 32> end
| 33>
| 34> * xyz 0 1
| 35>   C                      -0.942349            -0.312623            6.462802
| 36>   O                      -1.254387            -1.464392            7.229617
| 37>   H                      -0.880571            -2.244624            6.848968
| 38>   H                      -1.109190            -0.446360            5.396069
| 39>   H                      -1.477128            0.535260             6.817403
| 40>   H                      0.090158             -0.179774            6.506438
| 41>   C                    : 0.047512             0.175918             10.039209
| 42>   O                    : -1.173762            0.342067             9.306072
| 43>   H                    : -1.409839            -0.517275            8.897116
| 44>   H                    : 0.918030             0.086260             9.426686
| 45>   H                    : 0.369282             0.973946             10.683957
| 46>   H                    : -0.034030            -0.747890            10.620444
| 47> *
| 48>
| 49> #Run DFT-D3 single point of the particle with dimer basis set
| 50> $new_job
| 51> %base "19-120_DFT_B"
| 52> ! wB97X-D3 def2-TZVP TIGHTSCF CHELPG PMODEL
| 53>
| 54> %scf
| 55> MaxIter 1000
| 56> end
| 57>
| 58> * xyz 0 1
| 59>   C                    : -0.942349            -0.312623            6.462802
| 60>   O                    : -1.254387            -1.464392            7.229617
| 61>   H                    : -0.880571            -2.244624            6.848968
| 62>   H                    : -1.109190            -0.446360            5.396069
| 63>   H                    : -1.477128            0.535260             6.817403
| 64>   H                    : 0.090158             -0.179774            6.506438
| 65>   C                      0.047512             0.175918             10.039209
| 66>   O                      -1.173762            0.342067             9.306072
| 67>   H                      -1.409839            -0.517275            8.897116
| 68>   H                      0.918030             0.086260             9.426686
| 69>   H                      0.369282             0.973946             10.683957
| 70>   H                      -0.034030            -0.747890            10.620444
| 71> *
| 72>
| 73>                          ****END OF INPUT****
 Total Charge           Charge          ....    0
 Multiplicity           Mult            ....    1
 Number of Electrons    NEL             ....   36
Dispersion correction           -0.002116309
FINAL SINGLE POINT ENERGY      -231.470076647715
Dispersion correction           -0.000226066
FINAL SINGLE POINT ENERGY      -115.732412913530

CARTESIAN COORDINATES (ANGSTROEM)
---------------------------------
  C     -0.942349   -0.312623    6.462802
  O     -1.254387   -1.464392    7.229617
  H     -0.880571   -2.244624    6.848968
  H     -1.109190   -0.446360    5.396069
  H     -1.477128    0.535260    6.817403
  H      0.090158   -0.179774    6.506438
  C      0.047512    0.175918   10.039209
  O     -1.173762    0.342067    9.306072
  H     -1.409839   -0.517275    8.897116
  H      0.918030    0.086260    9.426686
  H      0.369282    0.973946   10.683957
  H     -0.034030   -0.747890   10.620444

 Multiplicity           Mult            ....    1
 Number of Electrons    NEL             ....   18
 Basis Dimension        Dim             ....  172

ORBITAL ENERGIES
----------------

  NO   OCC          E(Eh)            E(eV)
   0   2.0000     -19.235358      -523.4207
   1   2.0000     -10.311279      -280.5842
   2   2.0000      -1.127567       -30.6827
   3   2.0000      -0.801817       -21.8185
   4   2.0000      -0.606388       -16.5007
   5   2.0000      -0.546319       -14.8661
   6   2.0000      -0.527698       -14.3594
   7   2.0000      -0.432038       -11.7563
   8   2.0000      -0.374668       -10.1952
   9   0.0000       0.077078         2.0974
  10   0.0000       0.136608         3.7173
  11   0.0000       0.145651         3.9634
  12   0.0000       0.167064         4.5461
  13   0.0000       0.191619         5.2142

MULLIKEN ATOMIC CHARGES
-----------------------
   0 C :   -0.013267
   1 O :   -0.004232
   2 H :   -0.000336
   3 H :   -0.001072
   4 H :   -0.004350
   5 H :    0.000990
   6 C :   -0.181903
   7 O :   -0.462767
   8 H :    0.323494
   9 H :    0.106976
  10 H :    0.128469
  11 H :    0.107998
Sum of atomic charges:    0.0000000

LOEWDIN ATOMIC CHARGES
----------------------
   0 C :   -0.025443
   1 O :   -0.021557
   2 H :   -0.001018
   3 H :   -0.000370
   4 H :   -0.010241
   5 H :   -0.001411
   6 C :   -0.369915
   7 O :   -0.063244
   8 H :    0.196953
   9 H :    0.090822
  10 H :    0.106281
  11 H :    0.099143

  Mayer bond orders larger than 0.1
B(  6-C ,  7-O ) :   1.0052 B(  6-C ,  9-H ) :   0.9704 B(  6-C , 10-H ) :   0.9713
B(  6-C , 11-H ) :   0.9895 B(  7-O ,  8-H ) :   0.8907

Dispersion correction           -0.000251637
FINAL SINGLE POINT ENERGY      -115.730667754672

DIPOLE MOMENT
-------------
                                X             Y             Z
Electronic contribution:     -1.61861       0.46532      -0.86717
Nuclear contribution   :      1.99525      -1.05486       0.93501
                        -----------------------------------------
Total Dipole Moment    :      0.37665      -0.58954       0.06784
                        -----------------------------------------
Magnitude (a.u.)       :      0.70287
Magnitude (Debye)      :      1.78654

Rotational constants in cm-1:     4.515813     0.804938     0.773542
Rotational constants in MHz : 135380.660852 24131.420490 23190.214746

                             ****ORCA TERMINATED NORMALLY****
TOTAL RUN TIME: 0 days 0 hours 0 minutes 54 seconds 486 msec
