                         Program Version 4.1.2  - RELEASE  -
|  1> #Run DFT-D3 single point of the dimer
|  2> ! wB97X-D3 def2-TZVP TIGHTSCF CHELPG PMODEL PAL8
|  3>
|  4> %base "11-131_DFT_AB"
|  5>
|  6> %scf
|  7> MaxIter 1000
|  8> end
|  9>
| 10> * xyz 0 1
| 11>   C                      1.863431             10.530192            0.496298
| 12>   O                      1.704632             11.724926            1.273024
| 13>   H                      0.923946             12.172261            0.891575
| 14>   H                      1.653167             9.609280             1.108343
| 15>   H                      1.152107             10.498634            -0.353203
| 16>   H                      2.935109             10.427221            0.125337
| 17>   C                      -1.565759            10.114965            0.947112
| 18>   O                      -0.651042            9.463522             1.843248
| 19>   H                      -1.008176            8.657511             2.181224
| 20>   H                      -2.065920            10.949498            1.515335
| 21>   H                      -1.085724            10.532903            0.026117
| 22>   H                      -2.413181            9.499275             0.663878
| 23> *
| 24>
| 25> #Run DFT-D3 single point of the molecule with dimer basis set
| 26> $new_job
| 27> %base "11-131_DFT_A"
| 28> ! wB97X-D3 def2-TZVP TIGHTSCF CHELPG PMODEL
| 29>
| 30> %scf
| 31> MaxIter 1000
| 32> end
| 33>
| 34> * xyz 0 1
| 35>   C                      1.863431             10.530192            0.496298
| 36>   O                      1.704632             11.724926            1.273024
| 37>   H                      0.923946             12.172261            0.891575
| 38>   H                      1.653167             9.609280             1.108343
| 39>   H                      1.152107             10.498634            -0.353203
| 40>   H                      2.935109             10.427221            0.125337
| 41>   C                    : -1.565759            10.114965            0.947112
| 42>   O                    : -0.651042            9.463522             1.843248
| 43>   H                    : -1.008176            8.657511             2.181224
| 44>   H                    : -2.065920            10.949498            1.515335
| 45>   H                    : -1.085724            10.532903            0.026117
| 46>   H                    : -2.413181            9.499275             0.663878
| 47> *
| 48>
| 49> #Run DFT-D3 single point of the particle with dimer basis set
| 50> $new_job
| 51> %base "11-131_DFT_B"
| 52> ! wB97X-D3 def2-TZVP TIGHTSCF CHELPG PMODEL
| 53>
| 54> %scf
| 55> MaxIter 1000
| 56> end
| 57>
| 58> * xyz 0 1
| 59>   C                    : 1.863431             10.530192            0.496298
| 60>   O                    : 1.704632             11.724926            1.273024
| 61>   H                    : 0.923946             12.172261            0.891575
| 62>   H                    : 1.653167             9.609280             1.108343
| 63>   H                    : 1.152107             10.498634            -0.353203
| 64>   H                    : 2.935109             10.427221            0.125337
| 65>   C                      -1.565759            10.114965            0.947112
| 66>   O                      -0.651042            9.463522             1.843248
| 67>   H                      -1.008176            8.657511             2.181224
| 68>   H                      -2.065920            10.949498            1.515335
| 69>   H                      -1.085724            10.532903            0.026117
| 70>   H                      -2.413181            9.499275             0.663878
| 71> *
| 72>
| 73>                          ****END OF INPUT****
 Total Charge           Charge          ....    0
 Multiplicity           Mult            ....    1
 Number of Electrons    NEL             ....   36
Dispersion correction           -0.002394825
FINAL SINGLE POINT ENERGY      -231.464473258318
Dispersion correction           -0.000267148
FINAL SINGLE POINT ENERGY      -115.733063835721

CARTESIAN COORDINATES (ANGSTROEM)
---------------------------------
  C      1.863431   10.530192    0.496298
  O      1.704632   11.724926    1.273024
  H      0.923946   12.172261    0.891575
  H      1.653167    9.609280    1.108343
  H      1.152107   10.498634   -0.353203
  H      2.935109   10.427221    0.125337
  C     -1.565759   10.114965    0.947112
  O     -0.651042    9.463522    1.843248
  H     -1.008176    8.657511    2.181224
  H     -2.065920   10.949498    1.515335
  H     -1.085724   10.532903    0.026117
  H     -2.413181    9.499275    0.663878

 Multiplicity           Mult            ....    1
 Number of Electrons    NEL             ....   18
 Basis Dimension        Dim             ....  172

ORBITAL ENERGIES
----------------

  NO   OCC          E(Eh)            E(eV)
   0   2.0000     -19.229421      -523.2591
   1   2.0000     -10.321127      -280.8521
   2   2.0000      -1.131219       -30.7820
   3   2.0000      -0.796436       -21.6721
   4   2.0000      -0.613504       -16.6943
   5   2.0000      -0.534384       -14.5413
   6   2.0000      -0.521333       -14.1862
   7   2.0000      -0.434166       -11.8142
   8   2.0000      -0.372703       -10.1418
   9   0.0000       0.098308         2.6751
  10   0.0000       0.128782         3.5043
  11   0.0000       0.147694         4.0189
  12   0.0000       0.179734         4.8908
  13   0.0000       0.190572         5.1857

MULLIKEN ATOMIC CHARGES
-----------------------
   0 C :    0.014830
   1 O :   -0.000759
   2 H :    0.000240
   3 H :   -0.015384
   4 H :   -0.001990
   5 H :    0.000146
   6 C :   -0.179633
   7 O :   -0.475113
   8 H :    0.314303
   9 H :    0.106603
  10 H :    0.121062
  11 H :    0.115697
Sum of atomic charges:   -0.0000000

LOEWDIN ATOMIC CHARGES
----------------------
   0 C :   -0.017003
   1 O :   -0.000683
   2 H :   -0.001299
   3 H :   -0.014495
   4 H :   -0.004445
   5 H :   -0.000066
   6 C :   -0.368889
   7 O :   -0.062449
   8 H :    0.156107
   9 H :    0.104973
  10 H :    0.113207
  11 H :    0.095042

  Mayer bond orders larger than 0.1
B(  6-C ,  7-O ) :   0.9995 B(  6-C ,  9-H ) :   0.9787 B(  6-C , 10-H ) :   0.9695
B(  6-C , 11-H ) :   0.9746 B(  7-O ,  8-H ) :   0.8995

Dispersion correction           -0.000271893
FINAL SINGLE POINT ENERGY      -115.732309953060

DIPOLE MOMENT
-------------
                                X             Y             Z
Electronic contribution:      1.31685      -0.82717       1.03271
Nuclear contribution   :     -1.96127       0.54317      -1.18228
                        -----------------------------------------
Total Dipole Moment    :     -0.64442      -0.28400      -0.14957
                        -----------------------------------------
Magnitude (a.u.)       :      0.71993
Magnitude (Debye)      :      1.82993

Rotational constants in cm-1:     4.312852     0.797795     0.772798
Rotational constants in MHz : 129296.055303 23917.306472 23167.899600

                             ****ORCA TERMINATED NORMALLY****
TOTAL RUN TIME: 0 days 0 hours 1 minutes 15 seconds 606 msec
