                         Program Version 4.1.2  - RELEASE  -
|  1> #Run DFT-D3 single point of the dimer
|  2> ! wB97X-D3 def2-TZVP TIGHTSCF CHELPG PMODEL PAL8
|  3>
|  4> %base "13-144_DFT_AB"
|  5>
|  6> %scf
|  7> MaxIter 1000
|  8> end
|  9>
| 10> * xyz 0 1
| 11>   C                      -10.222836           8.222040             -1.314980
| 12>   O                      -9.311791            9.275276             -1.196687
| 13>   H                      -9.311907            9.779786             -2.046331
| 14>   H                      -10.054885           7.518585             -0.468699
| 15>   H                      -11.220995           8.539952             -1.155101
| 16>   H                      -10.093888           7.611349             -2.239045
| 17>   C                      -7.220096            6.994983             -1.251529
| 18>   O                      -5.864312            6.616557             -1.059694
| 19>   H                      -5.438133            6.373003             -1.911575
| 20>   H                      -7.354863            8.098564             -1.220289
| 21>   H                      -7.641321            6.615073             -2.156346
| 22>   H                      -7.859570            6.551375             -0.455189
| 23> *
| 24>
| 25> #Run DFT-D3 single point of the molecule with dimer basis set
| 26> $new_job
| 27> %base "13-144_DFT_A"
| 28> ! wB97X-D3 def2-TZVP TIGHTSCF CHELPG PMODEL
| 29>
| 30> %scf
| 31> MaxIter 1000
| 32> end
| 33>
| 34> * xyz 0 1
| 35>   C                      -10.222836           8.222040             -1.314980
| 36>   O                      -9.311791            9.275276             -1.196687
| 37>   H                      -9.311907            9.779786             -2.046331
| 38>   H                      -10.054885           7.518585             -0.468699
| 39>   H                      -11.220995           8.539952             -1.155101
| 40>   H                      -10.093888           7.611349             -2.239045
| 41>   C                    : -7.220096            6.994983             -1.251529
| 42>   O                    : -5.864312            6.616557             -1.059694
| 43>   H                    : -5.438133            6.373003             -1.911575
| 44>   H                    : -7.354863            8.098564             -1.220289
| 45>   H                    : -7.641321            6.615073             -2.156346
| 46>   H                    : -7.859570            6.551375             -0.455189
| 47> *
| 48>
| 49> #Run DFT-D3 single point of the particle with dimer basis set
| 50> $new_job
| 51> %base "13-144_DFT_B"
| 52> ! wB97X-D3 def2-TZVP TIGHTSCF CHELPG PMODEL
| 53>
| 54> %scf
| 55> MaxIter 1000
| 56> end
| 57>
| 58> * xyz 0 1
| 59>   C                    : -10.222836           8.222040             -1.314980
| 60>   O                    : -9.311791            9.275276             -1.196687
| 61>   H                    : -9.311907            9.779786             -2.046331
| 62>   H                    : -10.054885           7.518585             -0.468699
| 63>   H                    : -11.220995           8.539952             -1.155101
| 64>   H                    : -10.093888           7.611349             -2.239045
| 65>   C                      -7.220096            6.994983             -1.251529
| 66>   O                      -5.864312            6.616557             -1.059694
| 67>   H                      -5.438133            6.373003             -1.911575
| 68>   H                      -7.354863            8.098564             -1.220289
| 69>   H                      -7.641321            6.615073             -2.156346
| 70>   H                      -7.859570            6.551375             -0.455189
| 71> *
| 72>
| 73>                          ****END OF INPUT****
 Total Charge           Charge          ....    0
 Multiplicity           Mult            ....    1
 Number of Electrons    NEL             ....   36
Dispersion correction           -0.002163416
FINAL SINGLE POINT ENERGY      -231.467703954761
Dispersion correction           -0.000244730
FINAL SINGLE POINT ENERGY      -115.734140301979

CARTESIAN COORDINATES (ANGSTROEM)
---------------------------------
  C    -10.222836    8.222040   -1.314980
  O     -9.311791    9.275276   -1.196687
  H     -9.311907    9.779786   -2.046331
  H    -10.054885    7.518585   -0.468699
  H    -11.220995    8.539952   -1.155101
  H    -10.093888    7.611349   -2.239045
  C     -7.220096    6.994983   -1.251529
  O     -5.864312    6.616557   -1.059694
  H     -5.438133    6.373003   -1.911575
  H     -7.354863    8.098564   -1.220289
  H     -7.641321    6.615073   -2.156346
  H     -7.859570    6.551375   -0.455189

 Multiplicity           Mult            ....    1
 Number of Electrons    NEL             ....   18
 Basis Dimension        Dim             ....  172

ORBITAL ENERGIES
----------------

  NO   OCC          E(Eh)            E(eV)
   0   2.0000     -19.231739      -523.3222
   1   2.0000     -10.314673      -280.6765
   2   2.0000      -1.127897       -30.6916
   3   2.0000      -0.794685       -21.6245
   4   2.0000      -0.610787       -16.6204
   5   2.0000      -0.537749       -14.6329
   6   2.0000      -0.523410       -14.2427
   7   2.0000      -0.429668       -11.6918
   8   2.0000      -0.373228       -10.1561
   9   0.0000       0.083897         2.2830
  10   0.0000       0.112967         3.0740
  11   0.0000       0.157514         4.2862
  12   0.0000       0.164807         4.4846
  13   0.0000       0.179055         4.8723

MULLIKEN ATOMIC CHARGES
-----------------------
   0 C :    0.003606
   1 O :   -0.000847
   2 H :   -0.000510
   3 H :   -0.002035
   4 H :    0.000125
   5 H :   -0.001225
   6 C :   -0.174437
   7 O :   -0.484857
   8 H :    0.320834
   9 H :    0.110521
  10 H :    0.107933
  11 H :    0.120892
Sum of atomic charges:    0.0000000

LOEWDIN ATOMIC CHARGES
----------------------
   0 C :   -0.013210
   1 O :   -0.011701
   2 H :   -0.001710
   3 H :   -0.003929
   4 H :   -0.000101
   5 H :   -0.002058
   6 C :   -0.375600
   7 O :   -0.091349
   8 H :    0.181851
   9 H :    0.111049
  10 H :    0.092735
  11 H :    0.114024

  Mayer bond orders larger than 0.1
B(  6-C ,  7-O ) :   1.0087 B(  6-C ,  9-H ) :   0.9713 B(  6-C , 10-H ) :   0.9789
B(  6-C , 11-H ) :   0.9718 B(  7-O ,  8-H ) :   0.8924

Dispersion correction           -0.000264566
FINAL SINGLE POINT ENERGY      -115.734124236036

DIPOLE MOMENT
-------------
                                X             Y             Z
Electronic contribution:      1.77184      -0.46014       0.31545
Nuclear contribution   :     -2.04967       0.42603      -0.96235
                        -----------------------------------------
Total Dipole Moment    :     -0.27783      -0.03411      -0.64690
                        -----------------------------------------
Magnitude (a.u.)       :      0.70486
Magnitude (Debye)      :      1.79162

Rotational constants in cm-1:     4.321690     0.811345     0.788964
Rotational constants in MHz : 129560.996772 24323.505800 23652.558132

                             ****ORCA TERMINATED NORMALLY****
TOTAL RUN TIME: 0 days 0 hours 1 minutes 5 seconds 814 msec
