                         Program Version 4.1.2  - RELEASE  -
|  1> #Run DFT-D3 single point of the dimer
|  2> ! wB97X-D3 def2-TZVP TIGHTSCF CHELPG PMODEL PAL8
|  3>
|  4> %base "19-122_DFT_AB"
|  5>
|  6> %scf
|  7> MaxIter 1000
|  8> end
|  9>
| 10> * xyz 0 1
| 11>   C                      5.736915             6.096399             -5.489844
| 12>   O                      5.154897             4.938208             -6.015251
| 13>   H                      5.492586             4.122501             -5.681083
| 14>   H                      5.357355             6.307799             -4.486453
| 15>   H                      6.834772             6.055645             -5.421734
| 16>   H                      5.315370             6.965713             -6.146136
| 17>   C                      7.298053             3.163485             -7.609605
| 18>   O                      7.927927             2.859628             -8.825408
| 19>   H                      8.530583             3.569372             -9.131966
| 20>   H                      6.640703             3.988560             -7.772951
| 21>   H                      6.696490             2.329643             -7.244909
| 22>   H                      8.113094             3.351254             -6.863576
| 23> *
| 24>
| 25> #Run DFT-D3 single point of the molecule with dimer basis set
| 26> $new_job
| 27> %base "19-122_DFT_A"
| 28> ! wB97X-D3 def2-TZVP TIGHTSCF CHELPG PMODEL
| 29>
| 30> %scf
| 31> MaxIter 1000
| 32> end
| 33>
| 34> * xyz 0 1
| 35>   C                      5.736915             6.096399             -5.489844
| 36>   O                      5.154897             4.938208             -6.015251
| 37>   H                      5.492586             4.122501             -5.681083
| 38>   H                      5.357355             6.307799             -4.486453
| 39>   H                      6.834772             6.055645             -5.421734
| 40>   H                      5.315370             6.965713             -6.146136
| 41>   C                    : 7.298053             3.163485             -7.609605
| 42>   O                    : 7.927927             2.859628             -8.825408
| 43>   H                    : 8.530583             3.569372             -9.131966
| 44>   H                    : 6.640703             3.988560             -7.772951
| 45>   H                    : 6.696490             2.329643             -7.244909
| 46>   H                    : 8.113094             3.351254             -6.863576
| 47> *
| 48>
| 49> #Run DFT-D3 single point of the particle with dimer basis set
| 50> $new_job
| 51> %base "19-122_DFT_B"
| 52> ! wB97X-D3 def2-TZVP TIGHTSCF CHELPG PMODEL
| 53>
| 54> %scf
| 55> MaxIter 1000
| 56> end
| 57>
| 58> * xyz 0 1
| 59>   C                    : 5.736915             6.096399             -5.489844
| 60>   O                    : 5.154897             4.938208             -6.015251
| 61>   H                    : 5.492586             4.122501             -5.681083
| 62>   H                    : 5.357355             6.307799             -4.486453
| 63>   H                    : 6.834772             6.055645             -5.421734
| 64>   H                    : 5.315370             6.965713             -6.146136
| 65>   C                      7.298053             3.163485             -7.609605
| 66>   O                      7.927927             2.859628             -8.825408
| 67>   H                      8.530583             3.569372             -9.131966
| 68>   H                      6.640703             3.988560             -7.772951
| 69>   H                      6.696490             2.329643             -7.244909
| 70>   H                      8.113094             3.351254             -6.863576
| 71> *
| 72>
| 73>                          ****END OF INPUT****
 Total Charge           Charge          ....    0
 Multiplicity           Mult            ....    1
 Number of Electrons    NEL             ....   36
Dispersion correction           -0.001814884
FINAL SINGLE POINT ENERGY      -231.464893783936
Dispersion correction           -0.000259027
FINAL SINGLE POINT ENERGY      -115.731952567284

CARTESIAN COORDINATES (ANGSTROEM)
---------------------------------
  C      5.736915    6.096399   -5.489844
  O      5.154897    4.938208   -6.015251
  H      5.492586    4.122501   -5.681083
  H      5.357355    6.307799   -4.486453
  H      6.834772    6.055645   -5.421734
  H      5.315370    6.965713   -6.146136
  C      7.298053    3.163485   -7.609605
  O      7.927927    2.859628   -8.825408
  H      8.530583    3.569372   -9.131966
  H      6.640703    3.988560   -7.772951
  H      6.696490    2.329643   -7.244909
  H      8.113094    3.351254   -6.863576

 Multiplicity           Mult            ....    1
 Number of Electrons    NEL             ....   18
 Basis Dimension        Dim             ....  172

ORBITAL ENERGIES
----------------

  NO   OCC          E(Eh)            E(eV)
   0   2.0000     -19.224978      -523.1383
   1   2.0000     -10.311583      -280.5924
   2   2.0000      -1.130865       -30.7724
   3   2.0000      -0.793761       -21.5993
   4   2.0000      -0.603919       -16.4335
   5   2.0000      -0.550752       -14.9867
   6   2.0000      -0.532225       -14.4826
   7   2.0000      -0.419382       -11.4120
   8   2.0000      -0.369566       -10.0564
   9   0.0000       0.083136         2.2622
  10   0.0000       0.114421         3.1135
  11   0.0000       0.147933         4.0255
  12   0.0000       0.176339         4.7984
  13   0.0000       0.183230         4.9859

MULLIKEN ATOMIC CHARGES
-----------------------
   0 C :   -0.001788
   1 O :   -0.000991
   2 H :    0.000690
   3 H :   -0.000091
   4 H :   -0.000636
   5 H :    0.000140
   6 C :   -0.146692
   7 O :   -0.491647
   8 H :    0.319166
   9 H :    0.105085
  10 H :    0.120962
  11 H :    0.095803
Sum of atomic charges:    0.0000000

LOEWDIN ATOMIC CHARGES
----------------------
   0 C :   -0.003422
   1 O :   -0.006575
   2 H :   -0.004594
   3 H :   -0.000056
   4 H :   -0.000758
   5 H :   -0.000080
   6 C :   -0.384963
   7 O :   -0.085294
   8 H :    0.179435
   9 H :    0.094602
  10 H :    0.109921
  11 H :    0.101784

  Mayer bond orders larger than 0.1
B(  6-C ,  7-O ) :   0.9900 B(  6-C ,  9-H ) :   0.9825 B(  6-C , 10-H ) :   0.9649
B(  6-C , 11-H ) :   0.9834 B(  7-O ,  8-H ) :   0.8902

Dispersion correction           -0.000229534
FINAL SINGLE POINT ENERGY      -115.732784759825

DIPOLE MOMENT
-------------
                                X             Y             Z
Electronic contribution:      0.64634      -0.48355      -1.51195
Nuclear contribution   :     -0.52915       1.04652       1.79785
                        -----------------------------------------
Total Dipole Moment    :      0.11719       0.56297       0.28590
                        -----------------------------------------
Magnitude (a.u.)       :      0.64219
Magnitude (Debye)      :      1.63232

Rotational constants in cm-1:     4.259711     0.839412     0.816697
Rotational constants in MHz : 127702.922953 25164.938806 24483.964768

                             ****ORCA TERMINATED NORMALLY****
TOTAL RUN TIME: 0 days 0 hours 0 minutes 49 seconds 801 msec
