                         Program Version 4.1.2  - RELEASE  -
|  1> #Run DFT-D3 single point of the dimer
|  2> ! wB97X-D3 def2-TZVP TIGHTSCF CHELPG PMODEL PAL8
|  3>
|  4> %base "20-158_DFT_AB"
|  5>
|  6> %scf
|  7> MaxIter 1000
|  8> end
|  9>
| 10> * xyz 0 1
| 11>   C                      2.228465             3.519173             4.443829
| 12>   O                      3.320479             2.858309             5.078403
| 13>   H                      4.130458             3.343269             4.846252
| 14>   H                      2.522161             3.844523             3.450730
| 15>   H                      1.422132             2.903265             4.368014
| 16>   H                      1.893552             4.378098             4.980760
| 17>   C                      6.941858             4.561202             3.819420
| 18>   O                      6.036226             3.829826             4.629647
| 19>   H                      6.490337             3.212845             5.236488
| 20>   H                      7.585249             5.221053             4.391091
| 21>   H                      7.546627             3.978698             3.156488
| 22>   H                      6.367427             5.198605             3.139385
| 23> *
| 24>
| 25> #Run DFT-D3 single point of the molecule with dimer basis set
| 26> $new_job
| 27> %base "20-158_DFT_A"
| 28> ! wB97X-D3 def2-TZVP TIGHTSCF CHELPG PMODEL
| 29>
| 30> %scf
| 31> MaxIter 1000
| 32> end
| 33>
| 34> * xyz 0 1
| 35>   C                      2.228465             3.519173             4.443829
| 36>   O                      3.320479             2.858309             5.078403
| 37>   H                      4.130458             3.343269             4.846252
| 38>   H                      2.522161             3.844523             3.450730
| 39>   H                      1.422132             2.903265             4.368014
| 40>   H                      1.893552             4.378098             4.980760
| 41>   C                    : 6.941858             4.561202             3.819420
| 42>   O                    : 6.036226             3.829826             4.629647
| 43>   H                    : 6.490337             3.212845             5.236488
| 44>   H                    : 7.585249             5.221053             4.391091
| 45>   H                    : 7.546627             3.978698             3.156488
| 46>   H                    : 6.367427             5.198605             3.139385
| 47> *
| 48>
| 49> #Run DFT-D3 single point of the particle with dimer basis set
| 50> $new_job
| 51> %base "20-158_DFT_B"
| 52> ! wB97X-D3 def2-TZVP TIGHTSCF CHELPG PMODEL
| 53>
| 54> %scf
| 55> MaxIter 1000
| 56> end
| 57>
| 58> * xyz 0 1
| 59>   C                    : 2.228465             3.519173             4.443829
| 60>   O                    : 3.320479             2.858309             5.078403
| 61>   H                    : 4.130458             3.343269             4.846252
| 62>   H                    : 2.522161             3.844523             3.450730
| 63>   H                    : 1.422132             2.903265             4.368014
| 64>   H                    : 1.893552             4.378098             4.980760
| 65>   C                      6.941858             4.561202             3.819420
| 66>   O                      6.036226             3.829826             4.629647
| 67>   H                      6.490337             3.212845             5.236488
| 68>   H                      7.585249             5.221053             4.391091
| 69>   H                      7.546627             3.978698             3.156488
| 70>   H                      6.367427             5.198605             3.139385
| 71> *
| 72>
| 73>                          ****END OF INPUT****
 Total Charge           Charge          ....    0
 Multiplicity           Mult            ....    1
 Number of Electrons    NEL             ....   36
Dispersion correction           -0.001441465
FINAL SINGLE POINT ENERGY      -231.475755206502
Dispersion correction           -0.000231367
FINAL SINGLE POINT ENERGY      -115.732040418914

CARTESIAN COORDINATES (ANGSTROEM)
---------------------------------
  C      2.228465    3.519173    4.443829
  O      3.320479    2.858309    5.078403
  H      4.130458    3.343269    4.846252
  H      2.522161    3.844523    3.450730
  H      1.422132    2.903265    4.368014
  H      1.893552    4.378098    4.980760
  C      6.941858    4.561202    3.819420
  O      6.036226    3.829826    4.629647
  H      6.490337    3.212845    5.236488
  H      7.585249    5.221053    4.391091
  H      7.546627    3.978698    3.156488
  H      6.367427    5.198605    3.139385

 Multiplicity           Mult            ....    1
 Number of Electrons    NEL             ....   18
 Basis Dimension        Dim             ....  172

ORBITAL ENERGIES
----------------

  NO   OCC          E(Eh)            E(eV)
   0   2.0000     -19.232648      -523.3470
   1   2.0000     -10.310338      -280.5585
   2   2.0000      -1.129437       -30.7335
   3   2.0000      -0.800589       -21.7851
   4   2.0000      -0.611444       -16.6382
   5   2.0000      -0.543523       -14.7900
   6   2.0000      -0.524445       -14.2709
   7   2.0000      -0.428241       -11.6530
   8   2.0000      -0.376423       -10.2430
   9   0.0000       0.100231         2.7274
  10   0.0000       0.122206         3.3254
  11   0.0000       0.149970         4.0809
  12   0.0000       0.191717         5.2169
  13   0.0000       0.207324         5.6416

MULLIKEN ATOMIC CHARGES
-----------------------
   0 C :    0.001383
   1 O :   -0.000442
   2 H :   -0.009655
   3 H :   -0.000826
   4 H :   -0.000103
   5 H :   -0.000136
   6 C :   -0.144332
   7 O :   -0.478246
   8 H :    0.317052
   9 H :    0.099008
  10 H :    0.100069
  11 H :    0.116228
Sum of atomic charges:    0.0000000

LOEWDIN ATOMIC CHARGES
----------------------
   0 C :   -0.001116
   1 O :   -0.004722
   2 H :   -0.039381
   3 H :   -0.000190
   4 H :   -0.000016
   5 H :   -0.000027
   6 C :   -0.378003
   7 O :   -0.048549
   8 H :    0.178510
   9 H :    0.093272
  10 H :    0.089204
  11 H :    0.111016

  Mayer bond orders larger than 0.1
B(  6-C ,  7-O ) :   1.0015 B(  6-C ,  9-H ) :   0.9754 B(  6-C , 10-H ) :   0.9724
B(  6-C , 11-H ) :   0.9787 B(  7-O ,  8-H ) :   0.8906

Dispersion correction           -0.000263671
FINAL SINGLE POINT ENERGY      -115.735589779807

DIPOLE MOMENT
-------------
                                X             Y             Z
Electronic contribution:     -1.20681      -0.93743       1.02547
Nuclear contribution   :      1.87238       0.84568      -0.98287
                        -----------------------------------------
Total Dipole Moment    :      0.66557      -0.09175       0.04260
                        -----------------------------------------
Magnitude (a.u.)       :      0.67321
Magnitude (Debye)      :      1.71116

Rotational constants in cm-1:     4.480875     0.814838     0.789219
Rotational constants in MHz : 134333.246929 24428.240239 23660.190324

                             ****ORCA TERMINATED NORMALLY****
TOTAL RUN TIME: 0 days 0 hours 1 minutes 2 seconds 709 msec
