                         Program Version 4.1.2  - RELEASE  -
|  1> #Run DFT-D3 single point of the dimer
|  2> ! wB97X-D3 def2-TZVP TIGHTSCF CHELPG PMODEL PAL8
|  3>
|  4> %base "5-106_DFT_AB"
|  5>
|  6> %scf
|  7> MaxIter 1000
|  8> end
|  9>
| 10> * xyz 0 1
| 11>   C                      5.879248             6.066946             0.264854
| 12>   O                      4.644750             5.484827             0.033709
| 13>   H                      3.940731             6.087676             0.317555
| 14>   H                      5.948655             7.172369             0.120098
| 15>   H                      6.144315             5.944105             1.290748
| 16>   H                      6.708963             5.622361             -0.348714
| 17>   C                      2.084568             8.517667             -0.584949
| 18>   O                      2.198137             7.189808             -0.187101
| 19>   H                      1.521909             6.940569             0.429521
| 20>   H                      1.140881             8.865920             -0.125748
| 21>   H                      2.908478             9.086071             -0.136464
| 22>   H                      1.953745             8.564427             -1.639007
| 23> *
| 24>
| 25> #Run DFT-D3 single point of the molecule with dimer basis set
| 26> $new_job
| 27> %base "5-106_DFT_A"
| 28> ! wB97X-D3 def2-TZVP TIGHTSCF CHELPG PMODEL
| 29>
| 30> %scf
| 31> MaxIter 1000
| 32> end
| 33>
| 34> * xyz 0 1
| 35>   C                      5.879248             6.066946             0.264854
| 36>   O                      4.644750             5.484827             0.033709
| 37>   H                      3.940731             6.087676             0.317555
| 38>   H                      5.948655             7.172369             0.120098
| 39>   H                      6.144315             5.944105             1.290748
| 40>   H                      6.708963             5.622361             -0.348714
| 41>   C                    : 2.084568             8.517667             -0.584949
| 42>   O                    : 2.198137             7.189808             -0.187101
| 43>   H                    : 1.521909             6.940569             0.429521
| 44>   H                    : 1.140881             8.865920             -0.125748
| 45>   H                    : 2.908478             9.086071             -0.136464
| 46>   H                    : 1.953745             8.564427             -1.639007
| 47> *
| 48>
| 49> #Run DFT-D3 single point of the particle with dimer basis set
| 50> $new_job
| 51> %base "5-106_DFT_B"
| 52> ! wB97X-D3 def2-TZVP TIGHTSCF CHELPG PMODEL
| 53>
| 54> %scf
| 55> MaxIter 1000
| 56> end
| 57>
| 58> * xyz 0 1
| 59>   C                    : 5.879248             6.066946             0.264854
| 60>   O                    : 4.644750             5.484827             0.033709
| 61>   H                    : 3.940731             6.087676             0.317555
| 62>   H                    : 5.948655             7.172369             0.120098
| 63>   H                    : 6.144315             5.944105             1.290748
| 64>   H                    : 6.708963             5.622361             -0.348714
| 65>   C                      2.084568             8.517667             -0.584949
| 66>   O                      2.198137             7.189808             -0.187101
| 67>   H                      1.521909             6.940569             0.429521
| 68>   H                      1.140881             8.865920             -0.125748
| 69>   H                      2.908478             9.086071             -0.136464
| 70>   H                      1.953745             8.564427             -1.639007
| 71> *
| 72>
| 73>                          ****END OF INPUT****
 Total Charge           Charge          ....    0
 Multiplicity           Mult            ....    1
 Number of Electrons    NEL             ....   36
Dispersion correction           -0.001523250
FINAL SINGLE POINT ENERGY      -231.470050622150
Dispersion correction           -0.000244969
FINAL SINGLE POINT ENERGY      -115.733025511231

CARTESIAN COORDINATES (ANGSTROEM)
---------------------------------
  C      5.879248    6.066946    0.264854
  O      4.644750    5.484827    0.033709
  H      3.940731    6.087676    0.317555
  H      5.948655    7.172369    0.120098
  H      6.144315    5.944105    1.290748
  H      6.708963    5.622361   -0.348714
  C      2.084568    8.517667   -0.584949
  O      2.198137    7.189808   -0.187101
  H      1.521909    6.940569    0.429521
  H      1.140881    8.865920   -0.125748
  H      2.908478    9.086071   -0.136464
  H      1.953745    8.564427   -1.639007

 Multiplicity           Mult            ....    1
 Number of Electrons    NEL             ....   18
 Basis Dimension        Dim             ....  172

ORBITAL ENERGIES
----------------

  NO   OCC          E(Eh)            E(eV)
   0   2.0000     -19.221894      -523.0543
   1   2.0000     -10.310021      -280.5499
   2   2.0000      -1.141636       -31.0655
   3   2.0000      -0.796381       -21.6706
   4   2.0000      -0.614137       -16.7115
   5   2.0000      -0.557989       -15.1836
   6   2.0000      -0.529027       -14.3956
   7   2.0000      -0.417913       -11.3720
   8   2.0000      -0.373367       -10.1598
   9   0.0000       0.096595         2.6285
  10   0.0000       0.118374         3.2211
  11   0.0000       0.157889         4.2964
  12   0.0000       0.186350         5.0708
  13   0.0000       0.199122         5.4184

MULLIKEN ATOMIC CHARGES
-----------------------
   0 C :    0.000951
   1 O :    0.001155
   2 H :   -0.014113
   3 H :   -0.000205
   4 H :   -0.000087
   5 H :   -0.000036
   6 C :   -0.140152
   7 O :   -0.479401
   8 H :    0.318165
   9 H :    0.088396
  10 H :    0.110695
  11 H :    0.114631
Sum of atomic charges:   -0.0000000

LOEWDIN ATOMIC CHARGES
----------------------
   0 C :   -0.001050
   1 O :   -0.004653
   2 H :   -0.032102
   3 H :   -0.000103
   4 H :   -0.000015
   5 H :   -0.000016
   6 C :   -0.387353
   7 O :   -0.034307
   8 H :    0.161993
   9 H :    0.099958
  10 H :    0.101972
  11 H :    0.095676

  Mayer bond orders larger than 0.1
B(  6-C ,  7-O ) :   0.9913 B(  6-C ,  9-H ) :   0.9939 B(  6-C , 10-H ) :   0.9752
B(  6-C , 11-H ) :   0.9718 B(  7-O ,  8-H ) :   0.8981

Dispersion correction           -0.000220111
FINAL SINGLE POINT ENERGY      -115.730732639556

DIPOLE MOMENT
-------------
                                X             Y             Z
Electronic contribution:      0.34686      -1.61084       0.28419
Nuclear contribution   :     -0.87855       1.97527      -0.03099
                        -----------------------------------------
Total Dipole Moment    :     -0.53169       0.36443       0.25320
                        -----------------------------------------
Magnitude (a.u.)       :      0.69254
Magnitude (Debye)      :      1.76030

Rotational constants in cm-1:     4.258384     0.860411     0.839843
Rotational constants in MHz : 127663.127474 25794.487615 25177.868157

                             ****ORCA TERMINATED NORMALLY****
TOTAL RUN TIME: 0 days 0 hours 1 minutes 0 seconds 647 msec
