                         Program Version 4.1.2  - RELEASE  -
|  1> #Run DFT-D3 single point of the dimer
|  2> ! wB97X-D3 def2-TZVP TIGHTSCF CHELPG PMODEL PAL8
|  3>
|  4> %base "8-155_DFT_AB"
|  5>
|  6> %scf
|  7> MaxIter 1000
|  8> end
|  9>
| 10> * xyz 0 1
| 11>   C                      3.429850             6.986127             -2.815014
| 12>   O                      3.051718             7.490879             -4.094373
| 13>   H                      3.233975             6.849611             -4.819645
| 14>   H                      2.761065             6.224084             -2.616282
| 15>   H                      4.472148             6.688260             -2.703500
| 16>   H                      3.189052             7.789298             -2.132348
| 17>   C                      2.102860             4.783997             -5.484389
| 18>   O                      3.328898             5.341859             -6.049543
| 19>   H                      3.241054             5.324085             -6.994144
| 20>   H                      2.055270             4.942636             -4.413000
| 21>   H                      1.165069             5.320216             -5.773040
| 22>   H                      2.054790             3.720416             -5.611282
| 23> *
| 24>
| 25> #Run DFT-D3 single point of the molecule with dimer basis set
| 26> $new_job
| 27> %base "8-155_DFT_A"
| 28> ! wB97X-D3 def2-TZVP TIGHTSCF CHELPG PMODEL
| 29>
| 30> %scf
| 31> MaxIter 1000
| 32> end
| 33>
| 34> * xyz 0 1
| 35>   C                      3.429850             6.986127             -2.815014
| 36>   O                      3.051718             7.490879             -4.094373
| 37>   H                      3.233975             6.849611             -4.819645
| 38>   H                      2.761065             6.224084             -2.616282
| 39>   H                      4.472148             6.688260             -2.703500
| 40>   H                      3.189052             7.789298             -2.132348
| 41>   C                    : 2.102860             4.783997             -5.484389
| 42>   O                    : 3.328898             5.341859             -6.049543
| 43>   H                    : 3.241054             5.324085             -6.994144
| 44>   H                    : 2.055270             4.942636             -4.413000
| 45>   H                    : 1.165069             5.320216             -5.773040
| 46>   H                    : 2.054790             3.720416             -5.611282
| 47> *
| 48>
| 49> #Run DFT-D3 single point of the particle with dimer basis set
| 50> $new_job
| 51> %base "8-155_DFT_B"
| 52> ! wB97X-D3 def2-TZVP TIGHTSCF CHELPG PMODEL
| 53>
| 54> %scf
| 55> MaxIter 1000
| 56> end
| 57>
| 58> * xyz 0 1
| 59>   C                    : 3.429850             6.986127             -2.815014
| 60>   O                    : 3.051718             7.490879             -4.094373
| 61>   H                    : 3.233975             6.849611             -4.819645
| 62>   H                    : 2.761065             6.224084             -2.616282
| 63>   H                    : 4.472148             6.688260             -2.703500
| 64>   H                    : 3.189052             7.789298             -2.132348
| 65>   C                      2.102860             4.783997             -5.484389
| 66>   O                      3.328898             5.341859             -6.049543
| 67>   H                      3.241054             5.324085             -6.994144
| 68>   H                      2.055270             4.942636             -4.413000
| 69>   H                      1.165069             5.320216             -5.773040
| 70>   H                      2.054790             3.720416             -5.611282
| 71> *
| 72>
| 73>                          ****END OF INPUT****
 Total Charge           Charge          ....    0
 Multiplicity           Mult            ....    1
 Number of Electrons    NEL             ....   36
Dispersion correction           -0.002139599
FINAL SINGLE POINT ENERGY      -231.471695252233
Dispersion correction           -0.000240913
FINAL SINGLE POINT ENERGY      -115.731973094697

CARTESIAN COORDINATES (ANGSTROEM)
---------------------------------
  C      3.429850    6.986127   -2.815014
  O      3.051718    7.490879   -4.094373
  H      3.233975    6.849611   -4.819645
  H      2.761065    6.224084   -2.616282
  H      4.472148    6.688260   -2.703500
  H      3.189052    7.789298   -2.132348
  C      2.102860    4.783997   -5.484389
  O      3.328898    5.341859   -6.049543
  H      3.241054    5.324085   -6.994144
  H      2.055270    4.942636   -4.413000
  H      1.165069    5.320216   -5.773040
  H      2.054790    3.720416   -5.611282

 Multiplicity           Mult            ....    1
 Number of Electrons    NEL             ....   18
 Basis Dimension        Dim             ....  172

ORBITAL ENERGIES
----------------

  NO   OCC          E(Eh)            E(eV)
   0   2.0000     -19.232349      -523.3388
   1   2.0000     -10.316477      -280.7256
   2   2.0000      -1.126076       -30.6421
   3   2.0000      -0.801862       -21.8198
   4   2.0000      -0.601202       -16.3595
   5   2.0000      -0.547001       -14.8847
   6   2.0000      -0.519155       -14.1269
   7   2.0000      -0.431189       -11.7333
   8   2.0000      -0.381054       -10.3690
   9   0.0000       0.097829         2.6621
  10   0.0000       0.126006         3.4288
  11   0.0000       0.149039         4.0556
  12   0.0000       0.191813         5.2195
  13   0.0000       0.202089         5.4991

MULLIKEN ATOMIC CHARGES
-----------------------
   0 C :    0.002163
   1 O :   -0.001919
   2 H :   -0.002689
   3 H :   -0.000409
   4 H :   -0.000657
   5 H :    0.000107
   6 C :   -0.191300
   7 O :   -0.475799
   8 H :    0.312325
   9 H :    0.125604
  10 H :    0.110029
  11 H :    0.122545
Sum of atomic charges:   -0.0000000

LOEWDIN ATOMIC CHARGES
----------------------
   0 C :   -0.005372
   1 O :   -0.004809
   2 H :   -0.039931
   3 H :   -0.004002
   4 H :   -0.000124
   5 H :   -0.000021
   6 C :   -0.349013
   7 O :   -0.067464
   8 H :    0.158000
   9 H :    0.113405
  10 H :    0.104780
  11 H :    0.094551

  Mayer bond orders larger than 0.1
B(  6-C ,  7-O ) :   0.9944 B(  6-C ,  9-H ) :   0.9775 B(  6-C , 10-H ) :   0.9740
B(  6-C , 11-H ) :   0.9721 B(  7-O ,  8-H ) :   0.9022

Dispersion correction           -0.000276882
FINAL SINGLE POINT ENERGY      -115.732040908341

DIPOLE MOMENT
-------------
                                X             Y             Z
Electronic contribution:      1.62994       0.65439      -0.68162
Nuclear contribution   :     -2.20239      -0.90072       0.35487
                        -----------------------------------------
Total Dipole Moment    :     -0.57245      -0.24633      -0.32675
                        -----------------------------------------
Magnitude (a.u.)       :      0.70366
Magnitude (Debye)      :      1.78856

Rotational constants in cm-1:     4.427981     0.774829     0.760973
Rotational constants in MHz : 132747.542674 23228.783368 22813.395705

                             ****ORCA TERMINATED NORMALLY****
TOTAL RUN TIME: 0 days 0 hours 0 minutes 48 seconds 562 msec
