                         Program Version 4.1.2  - RELEASE  -
|  1> #Run DFT-D3 single point of the dimer
|  2> ! wB97X-D3 def2-TZVP TIGHTSCF CHELPG PMODEL PAL8
|  3>
|  4> %base "15-92_DFT_AB"
|  5>
|  6> %scf
|  7> MaxIter 1000
|  8> end
|  9>
| 10> * xyz 0 1
| 11>   C                      -9.298286            -3.963653            -8.912593
| 12>   O                      -9.166355            -4.048198            -10.336452
| 13>   H                      -8.265125            -4.216737            -10.593542
| 14>   H                      -8.442000            -3.655143            -8.442609
| 15>   H                      -10.045310           -3.234867            -8.637548
| 16>   H                      -9.578055            -4.961619            -8.479259
| 17>   C                      -6.504516            -1.500290            -8.431497
| 18>   O                      -6.338600            -0.425602            -9.371969
| 19>   H                      -7.225021            -0.135700            -9.610803
| 20>   H                      -7.421601            -1.334292            -7.898962
| 21>   H                      -6.661592            -2.478114            -8.949301
| 22>   H                      -5.704916            -1.581016            -7.692120
| 23> *
| 24>
| 25> #Run DFT-D3 single point of the molecule with dimer basis set
| 26> $new_job
| 27> %base "15-92_DFT_A"
| 28> ! wB97X-D3 def2-TZVP TIGHTSCF CHELPG PMODEL
| 29>
| 30> %scf
| 31> MaxIter 1000
| 32> end
| 33>
| 34> * xyz 0 1
| 35>   C                      -9.298286            -3.963653            -8.912593
| 36>   O                      -9.166355            -4.048198            -10.336452
| 37>   H                      -8.265125            -4.216737            -10.593542
| 38>   H                      -8.442000            -3.655143            -8.442609
| 39>   H                      -10.045310           -3.234867            -8.637548
| 40>   H                      -9.578055            -4.961619            -8.479259
| 41>   C                    : -6.504516            -1.500290            -8.431497
| 42>   O                    : -6.338600            -0.425602            -9.371969
| 43>   H                    : -7.225021            -0.135700            -9.610803
| 44>   H                    : -7.421601            -1.334292            -7.898962
| 45>   H                    : -6.661592            -2.478114            -8.949301
| 46>   H                    : -5.704916            -1.581016            -7.692120
| 47> *
| 48>
| 49> #Run DFT-D3 single point of the particle with dimer basis set
| 50> $new_job
| 51> %base "15-92_DFT_B"
| 52> ! wB97X-D3 def2-TZVP TIGHTSCF CHELPG PMODEL
| 53>
| 54> %scf
| 55> MaxIter 1000
| 56> end
| 57>
| 58> * xyz 0 1
| 59>   C                    : -9.298286            -3.963653            -8.912593
| 60>   O                    : -9.166355            -4.048198            -10.336452
| 61>   H                    : -8.265125            -4.216737            -10.593542
| 62>   H                    : -8.442000            -3.655143            -8.442609
| 63>   H                    : -10.045310           -3.234867            -8.637548
| 64>   H                    : -9.578055            -4.961619            -8.479259
| 65>   C                      -6.504516            -1.500290            -8.431497
| 66>   O                      -6.338600            -0.425602            -9.371969
| 67>   H                      -7.225021            -0.135700            -9.610803
| 68>   H                      -7.421601            -1.334292            -7.898962
| 69>   H                      -6.661592            -2.478114            -8.949301
| 70>   H                      -5.704916            -1.581016            -7.692120
| 71> *
| 72>
| 73>                          ****END OF INPUT****
 Total Charge           Charge          ....    0
 Multiplicity           Mult            ....    1
 Number of Electrons    NEL             ....   36
Dispersion correction           -0.001756623
FINAL SINGLE POINT ENERGY      -231.465769398295
Dispersion correction           -0.000255864
FINAL SINGLE POINT ENERGY      -115.731881736331

CARTESIAN COORDINATES (ANGSTROEM)
---------------------------------
  C     -9.298286   -3.963653   -8.912593
  O     -9.166355   -4.048198  -10.336452
  H     -8.265125   -4.216737  -10.593542
  H     -8.442000   -3.655143   -8.442609
  H    -10.045310   -3.234867   -8.637548
  H     -9.578055   -4.961619   -8.479259
  C     -6.504516   -1.500290   -8.431497
  O     -6.338600   -0.425602   -9.371969
  H     -7.225021   -0.135700   -9.610803
  H     -7.421601   -1.334292   -7.898962
  H     -6.661592   -2.478114   -8.949301
  H     -5.704916   -1.581016   -7.692120

 Multiplicity           Mult            ....    1
 Number of Electrons    NEL             ....   18
 Basis Dimension        Dim             ....  172

ORBITAL ENERGIES
----------------

  NO   OCC          E(Eh)            E(eV)
   0   2.0000     -19.230702      -523.2940
   1   2.0000     -10.315869      -280.7091
   2   2.0000      -1.129854       -30.7449
   3   2.0000      -0.795646       -21.6506
   4   2.0000      -0.607974       -16.5438
   5   2.0000      -0.536764       -14.6061
   6   2.0000      -0.528291       -14.3755
   7   2.0000      -0.435944       -11.8626
   8   2.0000      -0.373681       -10.1684
   9   0.0000       0.080813         2.1990
  10   0.0000       0.117915         3.2086
  11   0.0000       0.150588         4.0977
  12   0.0000       0.159201         4.3321
  13   0.0000       0.194381         5.2894

MULLIKEN ATOMIC CHARGES
-----------------------
   0 C :    0.006374
   1 O :    0.000064
   2 H :   -0.000002
   3 H :   -0.010664
   4 H :   -0.000489
   5 H :   -0.000301
   6 C :   -0.170044
   7 O :   -0.473320
   8 H :    0.315793
   9 H :    0.106247
  10 H :    0.102878
  11 H :    0.123465
Sum of atomic charges:   -0.0000000

LOEWDIN ATOMIC CHARGES
----------------------
   0 C :   -0.005819
   1 O :   -0.000174
   2 H :   -0.000862
   3 H :   -0.008502
   4 H :   -0.000225
   5 H :   -0.000021
   6 C :   -0.364207
   7 O :   -0.095231
   8 H :    0.170150
   9 H :    0.094135
  10 H :    0.105041
  11 H :    0.105714

  Mayer bond orders larger than 0.1
B(  6-C ,  7-O ) :   1.0048 B(  6-C ,  9-H ) :   0.9888 B(  6-C , 10-H ) :   0.9707
B(  6-C , 11-H ) :   0.9670 B(  7-O ,  8-H ) :   0.9002

Dispersion correction           -0.000245853
FINAL SINGLE POINT ENERGY      -115.733368065076

DIPOLE MOMENT
-------------
                                X             Y             Z
Electronic contribution:      0.47858       1.38442      -1.15315
Nuclear contribution   :     -1.12527      -1.61886       1.40675
                        -----------------------------------------
Total Dipole Moment    :     -0.64669      -0.23444       0.25360
                        -----------------------------------------
Magnitude (a.u.)       :      0.73313
Magnitude (Debye)      :      1.86348

Rotational constants in cm-1:     4.302178     0.808263     0.780206
Rotational constants in MHz : 128976.057267 24231.114697 23389.984342

                             ****ORCA TERMINATED NORMALLY****
TOTAL RUN TIME: 0 days 0 hours 0 minutes 46 seconds 850 msec
