                         Program Version 4.1.2  - RELEASE  -
|  1> #Run DFT-D3 single point of the dimer
|  2> ! wB97X-D3 def2-TZVP TIGHTSCF CHELPG PMODEL PAL8
|  3>
|  4> %base "20-186_DFT_AB"
|  5>
|  6> %scf
|  7> MaxIter 1000
|  8> end
|  9>
| 10> * xyz 0 1
| 11>   C                      -9.402311            7.959093             7.014368
| 12>   O                      -8.923783            7.908151             8.427865
| 13>   H                      -9.377012            8.564968             8.937901
| 14>   H                      -8.904831            7.197859             6.374025
| 15>   H                      -10.457614           7.716346             7.042583
| 16>   H                      -9.255336            8.975391             6.596974
| 17>   C                      -9.905674            5.349238             9.709443
| 18>   O                      -10.519567           6.406490             10.425959
| 19>   H                      -10.352442           7.273562             9.983918
| 20>   H                      -9.722632            4.429163             10.330650
| 21>   H                      -10.474303           5.073725             8.802147
| 22>   H                      -8.778926            5.592646             9.540295
| 23> *
| 24>
| 25> #Run DFT-D3 single point of the molecule with dimer basis set
| 26> $new_job
| 27> %base "20-186_DFT_A"
| 28> ! wB97X-D3 def2-TZVP TIGHTSCF CHELPG PMODEL
| 29>
| 30> %scf
| 31> MaxIter 1000
| 32> end
| 33>
| 34> * xyz 0 1
| 35>   C                      -9.402311            7.959093             7.014368
| 36>   O                      -8.923783            7.908151             8.427865
| 37>   H                      -9.377012            8.564968             8.937901
| 38>   H                      -8.904831            7.197859             6.374025
| 39>   H                      -10.457614           7.716346             7.042583
| 40>   H                      -9.255336            8.975391             6.596974
| 41>   C                    : -9.905674            5.349238             9.709443
| 42>   O                    : -10.519567           6.406490             10.425959
| 43>   H                    : -10.352442           7.273562             9.983918
| 44>   H                    : -9.722632            4.429163             10.330650
| 45>   H                    : -10.474303           5.073725             8.802147
| 46>   H                    : -8.778926            5.592646             9.540295
| 47> *
| 48>
| 49> #Run DFT-D3 single point of the particle with dimer basis set
| 50> $new_job
| 51> %base "20-186_DFT_B"
| 52> ! wB97X-D3 def2-TZVP TIGHTSCF CHELPG PMODEL
| 53>
| 54> %scf
| 55> MaxIter 1000
| 56> end
| 57>
| 58> * xyz 0 1
| 59>   C                    : -9.402311            7.959093             7.014368
| 60>   O                    : -8.923783            7.908151             8.427865
| 61>   H                    : -9.377012            8.564968             8.937901
| 62>   H                    : -8.904831            7.197859             6.374025
| 63>   H                    : -10.457614           7.716346             7.042583
| 64>   H                    : -9.255336            8.975391             6.596974
| 65>   C                      -9.905674            5.349238             9.709443
| 66>   O                      -10.519567           6.406490             10.425959
| 67>   H                      -10.352442           7.273562             9.983918
| 68>   H                      -9.722632            4.429163             10.330650
| 69>   H                      -10.474303           5.073725             8.802147
| 70>   H                      -8.778926            5.592646             9.540295
| 71> *
| 72>
| 73>                          ****END OF INPUT****
 Total Charge           Charge          ....    0
 Multiplicity           Mult            ....    1
 Number of Electrons    NEL             ....   36
Dispersion correction           -0.002328029
FINAL SINGLE POINT ENERGY      -231.459506670440
Dispersion correction           -0.000267892
FINAL SINGLE POINT ENERGY      -115.732225398613

CARTESIAN COORDINATES (ANGSTROEM)
---------------------------------
  C     -9.402311    7.959093    7.014368
  O     -8.923783    7.908151    8.427865
  H     -9.377012    8.564968    8.937901
  H     -8.904831    7.197859    6.374025
  H    -10.457614    7.716346    7.042583
  H     -9.255336    8.975391    6.596974
  C     -9.905674    5.349238    9.709443
  O    -10.519567    6.406490   10.425959
  H    -10.352442    7.273562    9.983918
  H     -9.722632    4.429163   10.330650
  H    -10.474303    5.073725    8.802147
  H     -8.778926    5.592646    9.540295

 Multiplicity           Mult            ....    1
 Number of Electrons    NEL             ....   18
 Basis Dimension        Dim             ....  172

ORBITAL ENERGIES
----------------

  NO   OCC          E(Eh)            E(eV)
   0   2.0000     -19.233997      -523.3837
   1   2.0000     -10.325843      -280.9805
   2   2.0000      -1.129501       -30.7353
   3   2.0000      -0.787564       -21.4307
   4   2.0000      -0.601845       -16.3770
   5   2.0000      -0.549236       -14.9455
   6   2.0000      -0.520057       -14.1515
   7   2.0000      -0.414952       -11.2914
   8   2.0000      -0.376611       -10.2481
   9   0.0000       0.070405         1.9158
  10   0.0000       0.128215         3.4889
  11   0.0000       0.140798         3.8313
  12   0.0000       0.168311         4.5800
  13   0.0000       0.190899         5.1946

MULLIKEN ATOMIC CHARGES
-----------------------
   0 C :    0.001724
   1 O :   -0.004577
   2 H :   -0.001449
   3 H :   -0.000585
   4 H :   -0.000926
   5 H :    0.000048
   6 C :   -0.177894
   7 O :   -0.478609
   8 H :    0.325485
   9 H :    0.126736
  10 H :    0.111227
  11 H :    0.098819
Sum of atomic charges:   -0.0000000

LOEWDIN ATOMIC CHARGES
----------------------
   0 C :   -0.003674
   1 O :   -0.014818
   2 H :   -0.007026
   3 H :   -0.000278
   4 H :   -0.000671
   5 H :   -0.000024
   6 C :   -0.399010
   7 O :   -0.085795
   8 H :    0.189953
   9 H :    0.113679
  10 H :    0.098331
  11 H :    0.109331

  Mayer bond orders larger than 0.1
B(  6-C ,  7-O ) :   0.9976 B(  6-C ,  9-H ) :   0.9669 B(  6-C , 10-H ) :   0.9712
B(  6-C , 11-H ) :   0.9794 B(  7-O ,  8-H ) :   0.8933

Dispersion correction           -0.000274479
FINAL SINGLE POINT ENERGY      -115.727951499331

DIPOLE MOMENT
-------------
                                X             Y             Z
Electronic contribution:     -1.03528       1.29155       0.95353
Nuclear contribution   :      1.38705      -1.17640      -1.48545
                        -----------------------------------------
Total Dipole Moment    :      0.35177       0.11515      -0.53191
                        -----------------------------------------
Magnitude (a.u.)       :      0.64802
Magnitude (Debye)      :      1.64714

Rotational constants in cm-1:     4.114416     0.801551     0.791333
Rotational constants in MHz : 123347.089954 24029.892204 23723.562372

                             ****ORCA TERMINATED NORMALLY****
TOTAL RUN TIME: 0 days 0 hours 1 minutes 10 seconds 62 msec
