                         Program Version 4.1.2  - RELEASE  -
|  1> #Run DFT-D3 single point of the dimer
|  2> ! wB97X-D3 def2-TZVP TIGHTSCF CHELPG PMODEL PAL8
|  3>
|  4> %base "12-15_DFT_AB"
|  5>
|  6> %scf
|  7> MaxIter 1000
|  8> end
|  9>
| 10> * xyz 0 1
| 11>   C                      7.783129             -4.327830            -2.139949
| 12>   O                      8.538829             -3.183352            -2.235793
| 13>   H                      9.186373             -3.113510            -1.593900
| 14>   H                      8.386808             -5.185219            -2.334048
| 15>   H                      7.505781             -4.489280            -1.123958
| 16>   H                      6.890016             -4.297037            -2.756172
| 17>   C                      8.409739             -2.753562            1.251528
| 18>   O                      9.660958             -3.028981            0.606621
| 19>   H                      10.358320            -2.491898            1.031269
| 20>   H                      8.498808             -2.476518            2.307472
| 21>   H                      7.906243             -1.899116            0.813379
| 22>   H                      7.694675             -3.587482            1.159274
| 23> *
| 24>
| 25> #Run DFT-D3 single point of the molecule with dimer basis set
| 26> $new_job
| 27> %base "12-15_DFT_A"
| 28> ! wB97X-D3 def2-TZVP TIGHTSCF CHELPG PMODEL
| 29>
| 30> %scf
| 31> MaxIter 1000
| 32> end
| 33>
| 34> * xyz 0 1
| 35>   C                      7.783129             -4.327830            -2.139949
| 36>   O                      8.538829             -3.183352            -2.235793
| 37>   H                      9.186373             -3.113510            -1.593900
| 38>   H                      8.386808             -5.185219            -2.334048
| 39>   H                      7.505781             -4.489280            -1.123958
| 40>   H                      6.890016             -4.297037            -2.756172
| 41>   C                    : 8.409739             -2.753562            1.251528
| 42>   O                    : 9.660958             -3.028981            0.606621
| 43>   H                    : 10.358320            -2.491898            1.031269
| 44>   H                    : 8.498808             -2.476518            2.307472
| 45>   H                    : 7.906243             -1.899116            0.813379
| 46>   H                    : 7.694675             -3.587482            1.159274
| 47> *
| 48>
| 49> #Run DFT-D3 single point of the particle with dimer basis set
| 50> $new_job
| 51> %base "12-15_DFT_B"
| 52> ! wB97X-D3 def2-TZVP TIGHTSCF CHELPG PMODEL
| 53>
| 54> %scf
| 55> MaxIter 1000
| 56> end
| 57>
| 58> * xyz 0 1
| 59>   C                    : 7.783129             -4.327830            -2.139949
| 60>   O                    : 8.538829             -3.183352            -2.235793
| 61>   H                    : 9.186373             -3.113510            -1.593900
| 62>   H                    : 8.386808             -5.185219            -2.334048
| 63>   H                    : 7.505781             -4.489280            -1.123958
| 64>   H                    : 6.890016             -4.297037            -2.756172
| 65>   C                      8.409739             -2.753562            1.251528
| 66>   O                      9.660958             -3.028981            0.606621
| 67>   H                      10.358320            -2.491898            1.031269
| 68>   H                      8.498808             -2.476518            2.307472
| 69>   H                      7.906243             -1.899116            0.813379
| 70>   H                      7.694675             -3.587482            1.159274
| 71> *
| 72>
| 73>                          ****END OF INPUT****
 Total Charge           Charge          ....    0
 Multiplicity           Mult            ....    1
 Number of Electrons    NEL             ....   36
Dispersion correction           -0.002155289
FINAL SINGLE POINT ENERGY      -231.472126344459
Dispersion correction           -0.000211017
FINAL SINGLE POINT ENERGY      -115.730246413139

CARTESIAN COORDINATES (ANGSTROEM)
---------------------------------
  C      7.783129   -4.327830   -2.139949
  O      8.538829   -3.183352   -2.235793
  H      9.186373   -3.113510   -1.593900
  H      8.386808   -5.185219   -2.334048
  H      7.505781   -4.489280   -1.123958
  H      6.890016   -4.297037   -2.756172
  C      8.409739   -2.753562    1.251528
  O      9.660958   -3.028981    0.606621
  H     10.358320   -2.491898    1.031269
  H      8.498808   -2.476518    2.307472
  H      7.906243   -1.899116    0.813379
  H      7.694675   -3.587482    1.159274

 Multiplicity           Mult            ....    1
 Number of Electrons    NEL             ....   18
 Basis Dimension        Dim             ....  172

ORBITAL ENERGIES
----------------

  NO   OCC          E(Eh)            E(eV)
   0   2.0000     -19.234101      -523.3865
   1   2.0000     -10.315042      -280.6866
   2   2.0000      -1.127279       -30.6748
   3   2.0000      -0.797029       -21.6883
   4   2.0000      -0.609340       -16.5810
   5   2.0000      -0.531687       -14.4679
   6   2.0000      -0.527277       -14.3479
   7   2.0000      -0.437378       -11.9016
   8   2.0000      -0.373382       -10.1603
   9   0.0000       0.097066         2.6413
  10   0.0000       0.123401         3.3579
  11   0.0000       0.149198         4.0599
  12   0.0000       0.184638         5.0242
  13   0.0000       0.192363         5.2345

MULLIKEN ATOMIC CHARGES
-----------------------
   0 C :    0.000971
   1 O :   -0.000248
   2 H :   -0.007698
   3 H :   -0.000237
   4 H :    0.000846
   5 H :   -0.000032
   6 C :   -0.175776
   7 O :   -0.474733
   8 H :    0.316486
   9 H :    0.112869
  10 H :    0.106802
  11 H :    0.120750
Sum of atomic charges:    0.0000000

LOEWDIN ATOMIC CHARGES
----------------------
   0 C :   -0.003152
   1 O :   -0.002645
   2 H :   -0.021844
   3 H :   -0.000078
   4 H :   -0.002863
   5 H :   -0.000023
   6 C :   -0.373692
   7 O :   -0.076349
   8 H :    0.178413
   9 H :    0.097681
  10 H :    0.094178
  11 H :    0.110375

  Mayer bond orders larger than 0.1
B(  6-C ,  7-O ) :   0.9938 B(  6-C ,  9-H ) :   0.9728 B(  6-C , 10-H ) :   0.9773
B(  6-C , 11-H ) :   0.9752 B(  7-O ,  8-H ) :   0.8948

Dispersion correction           -0.000264497
FINAL SINGLE POINT ENERGY      -115.734485635024

DIPOLE MOMENT
-------------
                                X             Y             Z
Electronic contribution:      1.59493      -0.51134      -0.90270
Nuclear contribution   :     -1.66387       0.97241       1.45386
                        -----------------------------------------
Total Dipole Moment    :     -0.06893       0.46107       0.55117
                        -----------------------------------------
Magnitude (a.u.)       :      0.72189
Magnitude (Debye)      :      1.83489

Rotational constants in cm-1:     4.374055     0.805368     0.770517
Rotational constants in MHz : 131130.868006 24144.332923 23099.513174

                             ****ORCA TERMINATED NORMALLY****
TOTAL RUN TIME: 0 days 0 hours 1 minutes 16 seconds 129 msec
