                         Program Version 4.1.2  - RELEASE  -
|  1> #Run DFT-D3 single point of the dimer
|  2> ! wB97X-D3 def2-TZVP TIGHTSCF CHELPG PMODEL PAL8
|  3>
|  4> %base "9-142_DFT_AB"
|  5>
|  6> %scf
|  7> MaxIter 1000
|  8> end
|  9>
| 10> * xyz 0 1
| 11>   C                      -0.644259            -10.288811           -0.613577
| 12>   O                      0.403820             -9.855791            0.193845
| 13>   H                      0.055486             -9.356534            0.947444
| 14>   H                      -1.065645            -11.179136           -0.133979
| 15>   H                      -1.357217            -9.505382            -0.921732
| 16>   H                      -0.289226            -10.785823           -1.502527
| 17>   C                      4.793143             -7.927894            -0.061951
| 18>   O                      3.613587             -8.422697            0.547228
| 19>   H                      2.852923             -8.213570            -0.015363
| 20>   H                      4.439465             -6.870323            -0.379165
| 21>   H                      5.647456             -7.857955            0.642995
| 22>   H                      5.054771             -8.469172            -1.063792
| 23> *
| 24>
| 25> #Run DFT-D3 single point of the molecule with dimer basis set
| 26> $new_job
| 27> %base "9-142_DFT_A"
| 28> ! wB97X-D3 def2-TZVP TIGHTSCF CHELPG PMODEL
| 29>
| 30> %scf
| 31> MaxIter 1000
| 32> end
| 33>
| 34> * xyz 0 1
| 35>   C                      -0.644259            -10.288811           -0.613577
| 36>   O                      0.403820             -9.855791            0.193845
| 37>   H                      0.055486             -9.356534            0.947444
| 38>   H                      -1.065645            -11.179136           -0.133979
| 39>   H                      -1.357217            -9.505382            -0.921732
| 40>   H                      -0.289226            -10.785823           -1.502527
| 41>   C                    : 4.793143             -7.927894            -0.061951
| 42>   O                    : 3.613587             -8.422697            0.547228
| 43>   H                    : 2.852923             -8.213570            -0.015363
| 44>   H                    : 4.439465             -6.870323            -0.379165
| 45>   H                    : 5.647456             -7.857955            0.642995
| 46>   H                    : 5.054771             -8.469172            -1.063792
| 47> *
| 48>
| 49> #Run DFT-D3 single point of the particle with dimer basis set
| 50> $new_job
| 51> %base "9-142_DFT_B"
| 52> ! wB97X-D3 def2-TZVP TIGHTSCF CHELPG PMODEL
| 53>
| 54> %scf
| 55> MaxIter 1000
| 56> end
| 57>
| 58> * xyz 0 1
| 59>   C                    : -0.644259            -10.288811           -0.613577
| 60>   O                    : 0.403820             -9.855791            0.193845
| 61>   H                    : 0.055486             -9.356534            0.947444
| 62>   H                    : -1.065645            -11.179136           -0.133979
| 63>   H                    : -1.357217            -9.505382            -0.921732
| 64>   H                    : -0.289226            -10.785823           -1.502527
| 65>   C                      4.793143             -7.927894            -0.061951
| 66>   O                      3.613587             -8.422697            0.547228
| 67>   H                      2.852923             -8.213570            -0.015363
| 68>   H                      4.439465             -6.870323            -0.379165
| 69>   H                      5.647456             -7.857955            0.642995
| 70>   H                      5.054771             -8.469172            -1.063792
| 71> *
| 72>
| 73>                          ****END OF INPUT****
 Total Charge           Charge          ....    0
 Multiplicity           Mult            ....    1
 Number of Electrons    NEL             ....   36
Dispersion correction           -0.001050102
FINAL SINGLE POINT ENERGY      -231.458031531515
Dispersion correction           -0.000240899
FINAL SINGLE POINT ENERGY      -115.730957406872

CARTESIAN COORDINATES (ANGSTROEM)
---------------------------------
  C     -0.644259  -10.288811   -0.613577
  O      0.403820   -9.855791    0.193845
  H      0.055486   -9.356534    0.947444
  H     -1.065645  -11.179136   -0.133979
  H     -1.357217   -9.505382   -0.921732
  H     -0.289226  -10.785823   -1.502527
  C      4.793143   -7.927894   -0.061951
  O      3.613587   -8.422697    0.547228
  H      2.852923   -8.213570   -0.015363
  H      4.439465   -6.870323   -0.379165
  H      5.647456   -7.857955    0.642995
  H      5.054771   -8.469172   -1.063792

 Multiplicity           Mult            ....    1
 Number of Electrons    NEL             ....   18
 Basis Dimension        Dim             ....  172

ORBITAL ENERGIES
----------------

  NO   OCC          E(Eh)            E(eV)
   0   2.0000     -19.229881      -523.2717
   1   2.0000     -10.331699      -281.1398
   2   2.0000      -1.134351       -30.8673
   3   2.0000      -0.783144       -21.3104
   4   2.0000      -0.605101       -16.4656
   5   2.0000      -0.535234       -14.5645
   6   2.0000      -0.529746       -14.4151
   7   2.0000      -0.428266       -11.6537
   8   2.0000      -0.365964        -9.9584
   9   0.0000       0.080351         2.1865
  10   0.0000       0.112786         3.0691
  11   0.0000       0.145777         3.9668
  12   0.0000       0.175884         4.7861
  13   0.0000       0.187361         5.0984

MULLIKEN ATOMIC CHARGES
-----------------------
   0 C :   -0.000344
   1 O :   -0.000587
   2 H :   -0.000191
   3 H :    0.000012
   4 H :    0.000012
   5 H :    0.000005
   6 C :   -0.167010
   7 O :   -0.472653
   8 H :    0.321283
   9 H :    0.093792
  10 H :    0.129423
  11 H :    0.096257
Sum of atomic charges:   -0.0000000

LOEWDIN ATOMIC CHARGES
----------------------
   0 C :   -0.000192
   1 O :   -0.001245
   2 H :   -0.000304
   3 H :   -0.000004
   4 H :   -0.000003
   5 H :   -0.000009
   6 C :   -0.398000
   7 O :   -0.091633
   8 H :    0.174154
   9 H :    0.104416
  10 H :    0.109839
  11 H :    0.102981

  Mayer bond orders larger than 0.1
B(  6-C ,  7-O ) :   0.9945 B(  6-C ,  9-H ) :   0.9962 B(  6-C , 10-H ) :   0.9659
B(  6-C , 11-H ) :   0.9604 B(  7-O ,  8-H ) :   0.8921

Dispersion correction           -0.000246933
FINAL SINGLE POINT ENERGY      -115.725359523919

DIPOLE MOMENT
-------------
                                X             Y             Z
Electronic contribution:     -1.26147      -0.83370       1.03617
Nuclear contribution   :      1.23597       1.16984      -1.60213
                        -----------------------------------------
Total Dipole Moment    :     -0.02550       0.33614      -0.56596
                        -----------------------------------------
Magnitude (a.u.)       :      0.65875
Magnitude (Debye)      :      1.67441

Rotational constants in cm-1:     3.932579     0.826362     0.792962
Rotational constants in MHz : 117895.739709 24773.698181 23772.400819

                             ****ORCA TERMINATED NORMALLY****
TOTAL RUN TIME: 0 days 0 hours 0 minutes 41 seconds 26 msec
