                         Program Version 4.1.2  - RELEASE  -
|  1> #Run DFT-D3 single point of the dimer
|  2> ! wB97X-D3 def2-TZVP TIGHTSCF CHELPG PMODEL PAL8
|  3>
|  4> %base "11-173_DFT_AB"
|  5>
|  6> %scf
|  7> MaxIter 1000
|  8> end
|  9>
| 10> * xyz 0 1
| 11>   C                      1.992786             7.661183             10.647386
| 12>   O                      1.889609             8.863642             11.502803
| 13>   H                      1.075784             9.385779             11.323789
| 14>   H                      1.402378             6.786372             11.120876
| 15>   H                      1.513782             7.822844             9.665048
| 16>   H                      3.016922             7.277316             10.488203
| 17>   C                      -1.472295            10.827861            11.149143
| 18>   O                      -0.203176            10.893379            10.681194
| 19>   H                      -0.202071            11.550489            9.926847
| 20>   H                      -1.482911            11.310714            12.126548
| 21>   H                      -2.175244            11.448166            10.560838
| 22>   H                      -1.809678            9.766512             11.318658
| 23> *
| 24>
| 25> #Run DFT-D3 single point of the molecule with dimer basis set
| 26> $new_job
| 27> %base "11-173_DFT_A"
| 28> ! wB97X-D3 def2-TZVP TIGHTSCF CHELPG PMODEL
| 29>
| 30> %scf
| 31> MaxIter 1000
| 32> end
| 33>
| 34> * xyz 0 1
| 35>   C                      1.992786             7.661183             10.647386
| 36>   O                      1.889609             8.863642             11.502803
| 37>   H                      1.075784             9.385779             11.323789
| 38>   H                      1.402378             6.786372             11.120876
| 39>   H                      1.513782             7.822844             9.665048
| 40>   H                      3.016922             7.277316             10.488203
| 41>   C                    : -1.472295            10.827861            11.149143
| 42>   O                    : -0.203176            10.893379            10.681194
| 43>   H                    : -0.202071            11.550489            9.926847
| 44>   H                    : -1.482911            11.310714            12.126548
| 45>   H                    : -2.175244            11.448166            10.560838
| 46>   H                    : -1.809678            9.766512             11.318658
| 47> *
| 48>
| 49> #Run DFT-D3 single point of the particle with dimer basis set
| 50> $new_job
| 51> %base "11-173_DFT_B"
| 52> ! wB97X-D3 def2-TZVP TIGHTSCF CHELPG PMODEL
| 53>
| 54> %scf
| 55> MaxIter 1000
| 56> end
| 57>
| 58> * xyz 0 1
| 59>   C                    : 1.992786             7.661183             10.647386
| 60>   O                    : 1.889609             8.863642             11.502803
| 61>   H                    : 1.075784             9.385779             11.323789
| 62>   H                    : 1.402378             6.786372             11.120876
| 63>   H                    : 1.513782             7.822844             9.665048
| 64>   H                    : 3.016922             7.277316             10.488203
| 65>   C                      -1.472295            10.827861            11.149143
| 66>   O                      -0.203176            10.893379            10.681194
| 67>   H                      -0.202071            11.550489            9.926847
| 68>   H                      -1.482911            11.310714            12.126548
| 69>   H                      -2.175244            11.448166            10.560838
| 70>   H                      -1.809678            9.766512             11.318658
| 71> *
| 72>
| 73>                          ****END OF INPUT****
 Total Charge           Charge          ....    0
 Multiplicity           Mult            ....    1
 Number of Electrons    NEL             ....   36
Dispersion correction           -0.001573999
FINAL SINGLE POINT ENERGY      -231.462974494180
Dispersion correction           -0.000303083
FINAL SINGLE POINT ENERGY      -115.728027814551

CARTESIAN COORDINATES (ANGSTROEM)
---------------------------------
  C      1.992786    7.661183   10.647386
  O      1.889609    8.863642   11.502803
  H      1.075784    9.385779   11.323789
  H      1.402378    6.786372   11.120876
  H      1.513782    7.822844    9.665048
  H      3.016922    7.277316   10.488203
  C     -1.472295   10.827861   11.149143
  O     -0.203176   10.893379   10.681194
  H     -0.202071   11.550489    9.926847
  H     -1.482911   11.310714   12.126548
  H     -2.175244   11.448166   10.560838
  H     -1.809678    9.766512   11.318658

 Multiplicity           Mult            ....    1
 Number of Electrons    NEL             ....   18
 Basis Dimension        Dim             ....  172

ORBITAL ENERGIES
----------------

  NO   OCC          E(Eh)            E(eV)
   0   2.0000     -19.233523      -523.3708
   1   2.0000     -10.311502      -280.5902
   2   2.0000      -1.151069       -31.3222
   3   2.0000      -0.785159       -21.3653
   4   2.0000      -0.620485       -16.8843
   5   2.0000      -0.542420       -14.7600
   6   2.0000      -0.534689       -14.5496
   7   2.0000      -0.431006       -11.7283
   8   2.0000      -0.364281        -9.9126
   9   0.0000       0.094753         2.5783
  10   0.0000       0.113951         3.1008
  11   0.0000       0.153636         4.1807
  12   0.0000       0.185517         5.0482
  13   0.0000       0.201819         5.4918

MULLIKEN ATOMIC CHARGES
-----------------------
   0 C :    0.000220
   1 O :    0.000141
   2 H :   -0.006530
   3 H :   -0.000050
   4 H :   -0.001523
   5 H :   -0.000092
   6 C :   -0.154015
   7 O :   -0.454357
   8 H :    0.319847
   9 H :    0.096755
  10 H :    0.094771
  11 H :    0.104834
Sum of atomic charges:   -0.0000000

LOEWDIN ATOMIC CHARGES
----------------------
   0 C :   -0.001169
   1 O :   -0.003230
   2 H :   -0.029212
   3 H :   -0.000007
   4 H :   -0.000605
   5 H :   -0.000013
   6 C :   -0.440469
   7 O :   -0.024227
   8 H :    0.199883
   9 H :    0.094585
  10 H :    0.097582
  11 H :    0.106884

  Mayer bond orders larger than 0.1
B(  6-C ,  7-O ) :   1.0074 B(  6-C ,  9-H ) :   0.9809 B(  6-C , 10-H ) :   0.9799
B(  6-C , 11-H ) :   0.9745 B(  7-O ,  8-H ) :   0.8897

Dispersion correction           -0.000226854
FINAL SINGLE POINT ENERGY      -115.728140023677

DIPOLE MOMENT
-------------
                                X             Y             Z
Electronic contribution:      1.74081      -0.07703      -0.64939
Nuclear contribution   :     -2.18892       0.50429       0.32938
                        -----------------------------------------
Total Dipole Moment    :     -0.44811       0.42726      -0.32001
                        -----------------------------------------
Magnitude (a.u.)       :      0.69697
Magnitude (Debye)      :      1.77156

Rotational constants in cm-1:     4.137767     0.895662     0.848267
Rotational constants in MHz : 124047.143780 26851.265422 25430.415028

                             ****ORCA TERMINATED NORMALLY****
TOTAL RUN TIME: 0 days 0 hours 1 minutes 14 seconds 157 msec
