                         Program Version 4.1.2  - RELEASE  -
|  1> #Run DFT-D3 single point of the dimer
|  2> ! wB97X-D3 def2-TZVP TIGHTSCF CHELPG PMODEL PAL8
|  3>
|  4> %base "9-129_DFT_AB"
|  5>
|  6> %scf
|  7> MaxIter 1000
|  8> end
|  9>
| 10> * xyz 0 1
| 11>   C                      3.579629             8.937106             8.769352
| 12>   O                      4.024011             9.179831             7.436745
| 13>   H                      4.437202             8.392285             7.075693
| 14>   H                      3.770762             9.820385             9.402602
| 15>   H                      2.595479             8.630090             8.898085
| 16>   H                      4.210503             8.153010             9.170169
| 17>   C                      1.109798             9.295180             5.735686
| 18>   O                      1.599551             10.356858            6.501649
| 19>   H                      2.583050             10.214698            6.392017
| 20>   H                      0.911857             9.641372             4.687059
| 21>   H                      1.700612             8.342329             5.679244
| 22>   H                      0.035246             8.996508             6.030797
| 23> *
| 24>
| 25> #Run DFT-D3 single point of the molecule with dimer basis set
| 26> $new_job
| 27> %base "9-129_DFT_A"
| 28> ! wB97X-D3 def2-TZVP TIGHTSCF CHELPG PMODEL
| 29>
| 30> %scf
| 31> MaxIter 1000
| 32> end
| 33>
| 34> * xyz 0 1
| 35>   C                      3.579629             8.937106             8.769352
| 36>   O                      4.024011             9.179831             7.436745
| 37>   H                      4.437202             8.392285             7.075693
| 38>   H                      3.770762             9.820385             9.402602
| 39>   H                      2.595479             8.630090             8.898085
| 40>   H                      4.210503             8.153010             9.170169
| 41>   C                    : 1.109798             9.295180             5.735686
| 42>   O                    : 1.599551             10.356858            6.501649
| 43>   H                    : 2.583050             10.214698            6.392017
| 44>   H                    : 0.911857             9.641372             4.687059
| 45>   H                    : 1.700612             8.342329             5.679244
| 46>   H                    : 0.035246             8.996508             6.030797
| 47> *
| 48>
| 49> #Run DFT-D3 single point of the particle with dimer basis set
| 50> $new_job
| 51> %base "9-129_DFT_B"
| 52> ! wB97X-D3 def2-TZVP TIGHTSCF CHELPG PMODEL
| 53>
| 54> %scf
| 55> MaxIter 1000
| 56> end
| 57>
| 58> * xyz 0 1
| 59>   C                    : 3.579629             8.937106             8.769352
| 60>   O                    : 4.024011             9.179831             7.436745
| 61>   H                    : 4.437202             8.392285             7.075693
| 62>   H                    : 3.770762             9.820385             9.402602
| 63>   H                    : 2.595479             8.630090             8.898085
| 64>   H                    : 4.210503             8.153010             9.170169
| 65>   C                      1.109798             9.295180             5.735686
| 66>   O                      1.599551             10.356858            6.501649
| 67>   H                      2.583050             10.214698            6.392017
| 68>   H                      0.911857             9.641372             4.687059
| 69>   H                      1.700612             8.342329             5.679244
| 70>   H                      0.035246             8.996508             6.030797
| 71> *
| 72>
| 73>                          ****END OF INPUT****
 Total Charge           Charge          ....    0
 Multiplicity           Mult            ....    1
 Number of Electrons    NEL             ....   36
Dispersion correction           -0.002142974
FINAL SINGLE POINT ENERGY      -231.467658245795
Dispersion correction           -0.000244850
FINAL SINGLE POINT ENERGY      -115.732191560852

CARTESIAN COORDINATES (ANGSTROEM)
---------------------------------
  C      3.579629    8.937106    8.769352
  O      4.024011    9.179831    7.436745
  H      4.437202    8.392285    7.075693
  H      3.770762    9.820385    9.402602
  H      2.595479    8.630090    8.898085
  H      4.210503    8.153010    9.170169
  C      1.109798    9.295180    5.735686
  O      1.599551   10.356858    6.501649
  H      2.583050   10.214698    6.392017
  H      0.911857    9.641372    4.687059
  H      1.700612    8.342329    5.679244
  H      0.035246    8.996508    6.030797

 Multiplicity           Mult            ....    1
 Number of Electrons    NEL             ....   18
 Basis Dimension        Dim             ....  172

ORBITAL ENERGIES
----------------

  NO   OCC          E(Eh)            E(eV)
   0   2.0000     -19.243850      -523.6518
   1   2.0000     -10.324349      -280.9398
   2   2.0000      -1.144066       -31.1316
   3   2.0000      -0.782393       -21.2900
   4   2.0000      -0.611637       -16.6435
   5   2.0000      -0.535492       -14.5715
   6   2.0000      -0.526024       -14.3138
   7   2.0000      -0.439718       -11.9653
   8   2.0000      -0.371132       -10.0990
   9   0.0000       0.073259         1.9935
  10   0.0000       0.131253         3.5716
  11   0.0000       0.144162         3.9228
  12   0.0000       0.165169         4.4945
  13   0.0000       0.196532         5.3479

MULLIKEN ATOMIC CHARGES
-----------------------
   0 C :   -0.006052
   1 O :   -0.005113
   2 H :   -0.000282
   3 H :    0.000644
   4 H :   -0.001555
   5 H :   -0.000365
   6 C :   -0.195228
   7 O :   -0.439854
   8 H :    0.322239
   9 H :    0.104433
  10 H :    0.112681
  11 H :    0.108452
Sum of atomic charges:    0.0000000

LOEWDIN ATOMIC CHARGES
----------------------
   0 C :   -0.011252
   1 O :   -0.016358
   2 H :   -0.001014
   3 H :   -0.000372
   4 H :   -0.002329
   5 H :   -0.000208
   6 C :   -0.431607
   7 O :   -0.056772
   8 H :    0.207324
   9 H :    0.098248
  10 H :    0.100374
  11 H :    0.113966

  Mayer bond orders larger than 0.1
B(  6-C ,  7-O ) :   1.0075 B(  6-C ,  9-H ) :   0.9802 B(  6-C , 10-H ) :   0.9669
B(  6-C , 11-H ) :   0.9734 B(  7-O ,  8-H ) :   0.8949

Dispersion correction           -0.000257707
FINAL SINGLE POINT ENERGY      -115.727370373524

DIPOLE MOMENT
-------------
                                X             Y             Z
Electronic contribution:      0.67241       1.50743       1.21010
Nuclear contribution   :     -0.26524      -1.96986      -1.55549
                        -----------------------------------------
Total Dipole Moment    :      0.40717      -0.46243      -0.34539
                        -----------------------------------------
Magnitude (a.u.)       :      0.70634
Magnitude (Debye)      :      1.79538

Rotational constants in cm-1:     4.084767     0.838001     0.796990
Rotational constants in MHz : 122458.230595 25122.626734 23893.147886

                             ****ORCA TERMINATED NORMALLY****
TOTAL RUN TIME: 0 days 0 hours 0 minutes 47 seconds 399 msec
