                         Program Version 4.1.2  - RELEASE  -
|  1> #Run DFT-D3 single point of the dimer
|  2> ! wB97X-D3 def2-TZVP TIGHTSCF CHELPG PMODEL PAL8
|  3>
|  4> %base "10-30_DFT_AB"
|  5>
|  6> %scf
|  7> MaxIter 1000
|  8> end
|  9>
| 10> * xyz 0 1
| 11>   C                      -0.107336            -6.761295            -6.715591
| 12>   O                      -0.840736            -7.925506            -6.762882
| 13>   H                      -0.625648            -8.537022            -6.098598
| 14>   H                      0.918834             -6.900276            -6.443235
| 15>   H                      -0.136207            -6.196261            -7.628469
| 16>   H                      -0.460480            -6.062073            -5.931819
| 17>   C                      -1.820418            -3.444985            -10.266437
| 18>   O                      -2.969015            -2.668509            -10.424545
| 19>   H                      -3.567477            -2.851957            -9.682575
| 20>   H                      -1.201192            -3.423666            -11.196701
| 21>   H                      -1.245968            -3.127328            -9.401971
| 22>   H                      -2.047079            -4.544631            -10.212126
| 23> *
| 24>
| 25> #Run DFT-D3 single point of the molecule with dimer basis set
| 26> $new_job
| 27> %base "10-30_DFT_A"
| 28> ! wB97X-D3 def2-TZVP TIGHTSCF CHELPG PMODEL
| 29>
| 30> %scf
| 31> MaxIter 1000
| 32> end
| 33>
| 34> * xyz 0 1
| 35>   C                      -0.107336            -6.761295            -6.715591
| 36>   O                      -0.840736            -7.925506            -6.762882
| 37>   H                      -0.625648            -8.537022            -6.098598
| 38>   H                      0.918834             -6.900276            -6.443235
| 39>   H                      -0.136207            -6.196261            -7.628469
| 40>   H                      -0.460480            -6.062073            -5.931819
| 41>   C                    : -1.820418            -3.444985            -10.266437
| 42>   O                    : -2.969015            -2.668509            -10.424545
| 43>   H                    : -3.567477            -2.851957            -9.682575
| 44>   H                    : -1.201192            -3.423666            -11.196701
| 45>   H                    : -1.245968            -3.127328            -9.401971
| 46>   H                    : -2.047079            -4.544631            -10.212126
| 47> *
| 48>
| 49> #Run DFT-D3 single point of the particle with dimer basis set
| 50> $new_job
| 51> %base "10-30_DFT_B"
| 52> ! wB97X-D3 def2-TZVP TIGHTSCF CHELPG PMODEL
| 53>
| 54> %scf
| 55> MaxIter 1000
| 56> end
| 57>
| 58> * xyz 0 1
| 59>   C                    : -0.107336            -6.761295            -6.715591
| 60>   O                    : -0.840736            -7.925506            -6.762882
| 61>   H                    : -0.625648            -8.537022            -6.098598
| 62>   H                    : 0.918834             -6.900276            -6.443235
| 63>   H                    : -0.136207            -6.196261            -7.628469
| 64>   H                    : -0.460480            -6.062073            -5.931819
| 65>   C                      -1.820418            -3.444985            -10.266437
| 66>   O                      -2.969015            -2.668509            -10.424545
| 67>   H                      -3.567477            -2.851957            -9.682575
| 68>   H                      -1.201192            -3.423666            -11.196701
| 69>   H                      -1.245968            -3.127328            -9.401971
| 70>   H                      -2.047079            -4.544631            -10.212126
| 71> *
| 72>
| 73>                          ****END OF INPUT****
 Total Charge           Charge          ....    0
 Multiplicity           Mult            ....    1
 Number of Electrons    NEL             ....   36
Dispersion correction           -0.000767911
FINAL SINGLE POINT ENERGY      -231.467574463541
Dispersion correction           -0.000241885
FINAL SINGLE POINT ENERGY      -115.732569866443

CARTESIAN COORDINATES (ANGSTROEM)
---------------------------------
  C     -0.107336   -6.761295   -6.715591
  O     -0.840736   -7.925506   -6.762882
  H     -0.625648   -8.537022   -6.098598
  H      0.918834   -6.900276   -6.443235
  H     -0.136207   -6.196261   -7.628469
  H     -0.460480   -6.062073   -5.931819
  C     -1.820418   -3.444985  -10.266437
  O     -2.969015   -2.668509  -10.424545
  H     -3.567477   -2.851957   -9.682575
  H     -1.201192   -3.423666  -11.196701
  H     -1.245968   -3.127328   -9.401971
  H     -2.047079   -4.544631  -10.212126

 Multiplicity           Mult            ....    1
 Number of Electrons    NEL             ....   18
 Basis Dimension        Dim             ....  172

ORBITAL ENERGIES
----------------

  NO   OCC          E(Eh)            E(eV)
   0   2.0000     -19.231555      -523.3172
   1   2.0000     -10.315839      -280.7083
   2   2.0000      -1.140145       -31.0249
   3   2.0000      -0.790806       -21.5189
   4   2.0000      -0.610927       -16.6242
   5   2.0000      -0.550140       -14.9701
   6   2.0000      -0.523242       -14.2381
   7   2.0000      -0.425724       -11.5845
   8   2.0000      -0.374012       -10.1774
   9   0.0000       0.081937         2.2296
  10   0.0000       0.114789         3.1236
  11   0.0000       0.140770         3.8305
  12   0.0000       0.168459         4.5840
  13   0.0000       0.185328         5.0430

MULLIKEN ATOMIC CHARGES
-----------------------
   0 C :    0.000326
   1 O :   -0.000001
   2 H :    0.000000
   3 H :   -0.000021
   4 H :   -0.000727
   5 H :   -0.000036
   6 C :   -0.166255
   7 O :   -0.471090
   8 H :    0.317439
   9 H :    0.117820
  10 H :    0.105830
  11 H :    0.096714
Sum of atomic charges:   -0.0000000

LOEWDIN ATOMIC CHARGES
----------------------
   0 C :   -0.000106
   1 O :   -0.000003
   2 H :   -0.000000
   3 H :   -0.000001
   4 H :   -0.000329
   5 H :   -0.000006
   6 C :   -0.410383
   7 O :   -0.069459
   8 H :    0.177106
   9 H :    0.113518
  10 H :    0.091920
  11 H :    0.097743

  Mayer bond orders larger than 0.1
B(  6-C ,  7-O ) :   1.0027 B(  6-C ,  9-H ) :   0.9698 B(  6-C , 10-H ) :   0.9752
B(  6-C , 11-H ) :   0.9760 B(  7-O ,  8-H ) :   0.8951

Dispersion correction           -0.000241770
FINAL SINGLE POINT ENERGY      -115.734570663316

DIPOLE MOMENT
-------------
                                X             Y             Z
Electronic contribution:     -1.44628       1.17245      -0.24964
Nuclear contribution   :      1.50434      -1.58660       0.76424
                        -----------------------------------------
Total Dipole Moment    :      0.05806      -0.41415       0.51460
                        -----------------------------------------
Magnitude (a.u.)       :      0.66310
Magnitude (Debye)      :      1.68547

Rotational constants in cm-1:     4.225148     0.839688     0.814383
Rotational constants in MHz : 126666.761755 25173.214202 24414.599758

                             ****ORCA TERMINATED NORMALLY****
TOTAL RUN TIME: 0 days 0 hours 1 minutes 0 seconds 406 msec
