                         Program Version 4.1.2  - RELEASE  -
|  1> #Run DFT-D3 single point of the dimer
|  2> ! wB97X-D3 def2-TZVP TIGHTSCF CHELPG PMODEL PAL8
|  3>
|  4> %base "22-142_DFT_AB"
|  5>
|  6> %scf
|  7> MaxIter 1000
|  8> end
|  9>
| 10> * xyz 0 1
| 11>   C                      6.493187             1.871851             -10.034547
| 12>   O                      6.377108             2.785616             -11.078557
| 13>   H                      5.880619             2.394599             -11.838950
| 14>   H                      5.716347             2.026950             -9.262070
| 15>   H                      6.441241             0.745366             -10.393195
| 16>   H                      7.463750             1.975361             -9.514436
| 17>   C                      5.841575             5.538677             -8.971014
| 18>   O                      5.937929             5.637680             -10.311734
| 19>   H                      6.324297             4.832202             -10.653868
| 20>   H                      5.247490             6.394668             -8.527192
| 21>   H                      5.280921             4.660592             -8.722857
| 22>   H                      6.775231             5.503065             -8.381655
| 23> *
| 24>
| 25> #Run DFT-D3 single point of the molecule with dimer basis set
| 26> $new_job
| 27> %base "22-142_DFT_A"
| 28> ! wB97X-D3 def2-TZVP TIGHTSCF CHELPG PMODEL
| 29>
| 30> %scf
| 31> MaxIter 1000
| 32> end
| 33>
| 34> * xyz 0 1
| 35>   C                      6.493187             1.871851             -10.034547
| 36>   O                      6.377108             2.785616             -11.078557
| 37>   H                      5.880619             2.394599             -11.838950
| 38>   H                      5.716347             2.026950             -9.262070
| 39>   H                      6.441241             0.745366             -10.393195
| 40>   H                      7.463750             1.975361             -9.514436
| 41>   C                    : 5.841575             5.538677             -8.971014
| 42>   O                    : 5.937929             5.637680             -10.311734
| 43>   H                    : 6.324297             4.832202             -10.653868
| 44>   H                    : 5.247490             6.394668             -8.527192
| 45>   H                    : 5.280921             4.660592             -8.722857
| 46>   H                    : 6.775231             5.503065             -8.381655
| 47> *
| 48>
| 49> #Run DFT-D3 single point of the particle with dimer basis set
| 50> $new_job
| 51> %base "22-142_DFT_B"
| 52> ! wB97X-D3 def2-TZVP TIGHTSCF CHELPG PMODEL
| 53>
| 54> %scf
| 55> MaxIter 1000
| 56> end
| 57>
| 58> * xyz 0 1
| 59>   C                    : 6.493187             1.871851             -10.034547
| 60>   O                    : 6.377108             2.785616             -11.078557
| 61>   H                    : 5.880619             2.394599             -11.838950
| 62>   H                    : 5.716347             2.026950             -9.262070
| 63>   H                    : 6.441241             0.745366             -10.393195
| 64>   H                    : 7.463750             1.975361             -9.514436
| 65>   C                      5.841575             5.538677             -8.971014
| 66>   O                      5.937929             5.637680             -10.311734
| 67>   H                      6.324297             4.832202             -10.653868
| 68>   H                      5.247490             6.394668             -8.527192
| 69>   H                      5.280921             4.660592             -8.722857
| 70>   H                      6.775231             5.503065             -8.381655
| 71> *
| 72>
| 73>                          ****END OF INPUT****
 Total Charge           Charge          ....    0
 Multiplicity           Mult            ....    1
 Number of Electrons    NEL             ....   36
Dispersion correction           -0.002056271
FINAL SINGLE POINT ENERGY      -231.471218060401
Dispersion correction           -0.000269699
FINAL SINGLE POINT ENERGY      -115.731182747310

CARTESIAN COORDINATES (ANGSTROEM)
---------------------------------
  C      6.493187    1.871851  -10.034547
  O      6.377108    2.785616  -11.078557
  H      5.880619    2.394599  -11.838950
  H      5.716347    2.026950   -9.262070
  H      6.441241    0.745366  -10.393195
  H      7.463750    1.975361   -9.514436
  C      5.841575    5.538677   -8.971014
  O      5.937929    5.637680  -10.311734
  H      6.324297    4.832202  -10.653868
  H      5.247490    6.394668   -8.527192
  H      5.280921    4.660592   -8.722857
  H      6.775231    5.503065   -8.381655

 Multiplicity           Mult            ....    1
 Number of Electrons    NEL             ....   18
 Basis Dimension        Dim             ....  172

ORBITAL ENERGIES
----------------

  NO   OCC          E(Eh)            E(eV)
   0   2.0000     -19.232904      -523.3539
   1   2.0000     -10.309386      -280.5327
   2   2.0000      -1.160688       -31.5839
   3   2.0000      -0.792934       -21.5768
   4   2.0000      -0.627359       -17.0713
   5   2.0000      -0.550481       -14.9793
   6   2.0000      -0.534200       -14.5363
   7   2.0000      -0.424567       -11.5531
   8   2.0000      -0.372067       -10.1245
   9   0.0000       0.068409         1.8615
  10   0.0000       0.137345         3.7374
  11   0.0000       0.141364         3.8467
  12   0.0000       0.171826         4.6756
  13   0.0000       0.182712         4.9718

MULLIKEN ATOMIC CHARGES
-----------------------
   0 C :    0.000291
   1 O :   -0.003159
   2 H :   -0.000299
   3 H :   -0.000819
   4 H :    0.000018
   5 H :   -0.000202
   6 C :   -0.167325
   7 O :   -0.450768
   8 H :    0.317846
   9 H :    0.114201
  10 H :    0.099346
  11 H :    0.090871
Sum of atomic charges:   -0.0000000

LOEWDIN ATOMIC CHARGES
----------------------
   0 C :   -0.004132
   1 O :   -0.013766
   2 H :   -0.000911
   3 H :   -0.001639
   4 H :   -0.000046
   5 H :   -0.000140
   6 C :   -0.443579
   7 O :   -0.012267
   8 H :    0.178979
   9 H :    0.115988
  10 H :    0.089291
  11 H :    0.092223

  Mayer bond orders larger than 0.1
B(  6-C ,  7-O ) :   1.0063 B(  6-C ,  9-H ) :   0.9713 B(  6-C , 10-H ) :   0.9858
B(  6-C , 11-H ) :   0.9714 B(  7-O ,  8-H ) :   0.9007

Dispersion correction           -0.000225161
FINAL SINGLE POINT ENERGY      -115.731841835763

DIPOLE MOMENT
-------------
                                X             Y             Z
Electronic contribution:      0.16008       0.25424      -1.92304
Nuclear contribution   :      0.03462      -0.81114       2.17318
                        -----------------------------------------
Total Dipole Moment    :      0.19470      -0.55690       0.25013
                        -----------------------------------------
Magnitude (a.u.)       :      0.64079
Magnitude (Debye)      :      1.62877

Rotational constants in cm-1:     4.388107     0.887228     0.852618
Rotational constants in MHz : 131552.144579 26598.438271 25560.848355

                             ****ORCA TERMINATED NORMALLY****
TOTAL RUN TIME: 0 days 0 hours 1 minutes 5 seconds 602 msec
