                         Program Version 4.1.2  - RELEASE  -
|  1> #Run DFT-D3 single point of the dimer
|  2> ! wB97X-D3 def2-TZVP TIGHTSCF CHELPG PMODEL PAL8
|  3>
|  4> %base "13-70_DFT_AB"
|  5>
|  6> %scf
|  7> MaxIter 1000
|  8> end
|  9>
| 10> * xyz 0 1
| 11>   C                      9.028161             -7.584521            4.100614
| 12>   O                      8.192791             -6.828802            5.014434
| 13>   H                      7.594326             -6.269406            4.519792
| 14>   H                      8.513725             -7.939866            3.227101
| 15>   H                      9.834166             -6.927564            3.751375
| 16>   H                      9.510038             -8.408056            4.560258
| 17>   C                      5.358170             -4.553323            8.289341
| 18>   O                      4.758662             -5.702051            7.788265
| 19>   H                      5.369109             -6.434928            7.839393
| 20>   H                      4.957496             -3.566630            7.869189
| 21>   H                      5.109407             -4.431742            9.340299
| 22>   H                      6.408784             -4.531158            8.178149
| 23> *
| 24>
| 25> #Run DFT-D3 single point of the molecule with dimer basis set
| 26> $new_job
| 27> %base "13-70_DFT_A"
| 28> ! wB97X-D3 def2-TZVP TIGHTSCF CHELPG PMODEL
| 29>
| 30> %scf
| 31> MaxIter 1000
| 32> end
| 33>
| 34> * xyz 0 1
| 35>   C                      9.028161             -7.584521            4.100614
| 36>   O                      8.192791             -6.828802            5.014434
| 37>   H                      7.594326             -6.269406            4.519792
| 38>   H                      8.513725             -7.939866            3.227101
| 39>   H                      9.834166             -6.927564            3.751375
| 40>   H                      9.510038             -8.408056            4.560258
| 41>   C                    : 5.358170             -4.553323            8.289341
| 42>   O                    : 4.758662             -5.702051            7.788265
| 43>   H                    : 5.369109             -6.434928            7.839393
| 44>   H                    : 4.957496             -3.566630            7.869189
| 45>   H                    : 5.109407             -4.431742            9.340299
| 46>   H                    : 6.408784             -4.531158            8.178149
| 47> *
| 48>
| 49> #Run DFT-D3 single point of the particle with dimer basis set
| 50> $new_job
| 51> %base "13-70_DFT_B"
| 52> ! wB97X-D3 def2-TZVP TIGHTSCF CHELPG PMODEL
| 53>
| 54> %scf
| 55> MaxIter 1000
| 56> end
| 57>
| 58> * xyz 0 1
| 59>   C                    : 9.028161             -7.584521            4.100614
| 60>   O                    : 8.192791             -6.828802            5.014434
| 61>   H                    : 7.594326             -6.269406            4.519792
| 62>   H                    : 8.513725             -7.939866            3.227101
| 63>   H                    : 9.834166             -6.927564            3.751375
| 64>   H                    : 9.510038             -8.408056            4.560258
| 65>   C                      5.358170             -4.553323            8.289341
| 66>   O                      4.758662             -5.702051            7.788265
| 67>   H                      5.369109             -6.434928            7.839393
| 68>   H                      4.957496             -3.566630            7.869189
| 69>   H                      5.109407             -4.431742            9.340299
| 70>   H                      6.408784             -4.531158            8.178149
| 71> *
| 72>
| 73>                          ****END OF INPUT****
 Total Charge           Charge          ....    0
 Multiplicity           Mult            ....    1
 Number of Electrons    NEL             ....   36
Dispersion correction           -0.000763294
FINAL SINGLE POINT ENERGY      -231.466488545926
Dispersion correction           -0.000256721
FINAL SINGLE POINT ENERGY      -115.733634777972

CARTESIAN COORDINATES (ANGSTROEM)
---------------------------------
  C      9.028161   -7.584521    4.100614
  O      8.192791   -6.828802    5.014434
  H      7.594326   -6.269406    4.519792
  H      8.513725   -7.939866    3.227101
  H      9.834166   -6.927564    3.751375
  H      9.510038   -8.408056    4.560258
  C      5.358170   -4.553323    8.289341
  O      4.758662   -5.702051    7.788265
  H      5.369109   -6.434928    7.839393
  H      4.957496   -3.566630    7.869189
  H      5.109407   -4.431742    9.340299
  H      6.408784   -4.531158    8.178149

 Multiplicity           Mult            ....    1
 Number of Electrons    NEL             ....   18
 Basis Dimension        Dim             ....  172

ORBITAL ENERGIES
----------------

  NO   OCC          E(Eh)            E(eV)
   0   2.0000     -19.230999      -523.3021
   1   2.0000     -10.311362      -280.5864
   2   2.0000      -1.144776       -31.1509
   3   2.0000      -0.796840       -21.6831
   4   2.0000      -0.621062       -16.8999
   5   2.0000      -0.544201       -14.8085
   6   2.0000      -0.527722       -14.3601
   7   2.0000      -0.431288       -11.7359
   8   2.0000      -0.370074       -10.0702
   9   0.0000       0.082404         2.2423
  10   0.0000       0.112907         3.0723
  11   0.0000       0.151414         4.1202
  12   0.0000       0.169530         4.6132
  13   0.0000       0.194731         5.2989

MULLIKEN ATOMIC CHARGES
-----------------------
   0 C :    0.000011
   1 O :   -0.000030
   2 H :   -0.000316
   3 H :   -0.000003
   4 H :   -0.000001
   5 H :    0.000003
   6 C :   -0.162276
   7 O :   -0.469718
   8 H :    0.318190
   9 H :    0.104220
  10 H :    0.100196
  11 H :    0.109724
Sum of atomic charges:    0.0000000

LOEWDIN ATOMIC CHARGES
----------------------
   0 C :   -0.000005
   1 O :   -0.000078
   2 H :   -0.000210
   3 H :   -0.000000
   4 H :   -0.000000
   5 H :   -0.000000
   6 C :   -0.407856
   7 O :   -0.055483
   8 H :    0.169447
   9 H :    0.114225
  10 H :    0.093185
  11 H :    0.086776

  Mayer bond orders larger than 0.1
B(  6-C ,  7-O ) :   1.0088 B(  6-C ,  9-H ) :   0.9719 B(  6-C , 10-H ) :   0.9808
B(  6-C , 11-H ) :   0.9807 B(  7-O ,  8-H ) :   0.8964

Dispersion correction           -0.000245187
FINAL SINGLE POINT ENERGY      -115.731173410849

DIPOLE MOMENT
-------------
                                X             Y             Z
Electronic contribution:     -0.80909      -1.56595      -0.76514
Nuclear contribution   :      1.45670       1.52826       0.99230
                        -----------------------------------------
Total Dipole Moment    :      0.64761      -0.03770       0.22716
                        -----------------------------------------
Magnitude (a.u.)       :      0.68733
Magnitude (Debye)      :      1.74705

Rotational constants in cm-1:     4.457475     0.844581     0.811088
Rotational constants in MHz : 133631.727461 25319.898494 24315.793204

                             ****ORCA TERMINATED NORMALLY****
TOTAL RUN TIME: 0 days 0 hours 1 minutes 11 seconds 455 msec
