                         Program Version 4.1.2  - RELEASE  -
|  1> #Run DFT-D3 single point of the dimer
|  2> ! wB97X-D3 def2-TZVP TIGHTSCF CHELPG PMODEL PAL8
|  3>
|  4> %base "6-156_DFT_AB"
|  5>
|  6> %scf
|  7> MaxIter 1000
|  8> end
|  9>
| 10> * xyz 0 1
| 11>   C                      6.703492             0.396091             5.305588
| 12>   O                      5.442587             0.726832             5.796296
| 13>   H                      4.738979             0.132312             5.362893
| 14>   H                      6.654158             0.514180             4.212192
| 15>   H                      7.419029             1.101467             5.651365
| 16>   H                      6.987095             -0.656286            5.527411
| 17>   C                      11.137992            -0.823771            6.798481
| 18>   O                      9.698968             -0.720846            6.376062
| 19>   H                      9.620379             -0.596343            5.433825
| 20>   H                      11.868299            -1.279774            6.078707
| 21>   H                      11.516395            0.206811             6.912381
| 22>   H                      11.258451            -1.332598            7.738747
| 23> *
| 24>
| 25> #Run DFT-D3 single point of the molecule with dimer basis set
| 26> $new_job
| 27> %base "6-156_DFT_A"
| 28> ! wB97X-D3 def2-TZVP TIGHTSCF CHELPG PMODEL
| 29>
| 30> %scf
| 31> MaxIter 1000
| 32> end
| 33>
| 34> * xyz 0 1
| 35>   C                      6.703492             0.396091             5.305588
| 36>   O                      5.442587             0.726832             5.796296
| 37>   H                      4.738979             0.132312             5.362893
| 38>   H                      6.654158             0.514180             4.212192
| 39>   H                      7.419029             1.101467             5.651365
| 40>   H                      6.987095             -0.656286            5.527411
| 41>   C                    : 11.137992            -0.823771            6.798481
| 42>   O                    : 9.698968             -0.720846            6.376062
| 43>   H                    : 9.620379             -0.596343            5.433825
| 44>   H                    : 11.868299            -1.279774            6.078707
| 45>   H                    : 11.516395            0.206811             6.912381
| 46>   H                    : 11.258451            -1.332598            7.738747
| 47> *
| 48>
| 49> #Run DFT-D3 single point of the particle with dimer basis set
| 50> $new_job
| 51> %base "6-156_DFT_B"
| 52> ! wB97X-D3 def2-TZVP TIGHTSCF CHELPG PMODEL
| 53>
| 54> %scf
| 55> MaxIter 1000
| 56> end
| 57>
| 58> * xyz 0 1
| 59>   C                    : 6.703492             0.396091             5.305588
| 60>   O                    : 5.442587             0.726832             5.796296
| 61>   H                    : 4.738979             0.132312             5.362893
| 62>   H                    : 6.654158             0.514180             4.212192
| 63>   H                    : 7.419029             1.101467             5.651365
| 64>   H                    : 6.987095             -0.656286            5.527411
| 65>   C                      11.137992            -0.823771            6.798481
| 66>   O                      9.698968             -0.720846            6.376062
| 67>   H                      9.620379             -0.596343            5.433825
| 68>   H                      11.868299            -1.279774            6.078707
| 69>   H                      11.516395            0.206811             6.912381
| 70>   H                      11.258451            -1.332598            7.738747
| 71> *
| 72>
| 73>                          ****END OF INPUT****
 Total Charge           Charge          ....    0
 Multiplicity           Mult            ....    1
 Number of Electrons    NEL             ....   36
Dispersion correction           -0.001469631
FINAL SINGLE POINT ENERGY      -231.459902922862
Dispersion correction           -0.000227307
FINAL SINGLE POINT ENERGY      -115.731586267784

CARTESIAN COORDINATES (ANGSTROEM)
---------------------------------
  C      6.703492    0.396091    5.305588
  O      5.442587    0.726832    5.796296
  H      4.738979    0.132312    5.362893
  H      6.654158    0.514180    4.212192
  H      7.419029    1.101467    5.651365
  H      6.987095   -0.656286    5.527411
  C     11.137992   -0.823771    6.798481
  O      9.698968   -0.720846    6.376062
  H      9.620379   -0.596343    5.433825
  H     11.868299   -1.279774    6.078707
  H     11.516395    0.206811    6.912381
  H     11.258451   -1.332598    7.738747

 Multiplicity           Mult            ....    1
 Number of Electrons    NEL             ....   18
 Basis Dimension        Dim             ....  172

ORBITAL ENERGIES
----------------

  NO   OCC          E(Eh)            E(eV)
   0   2.0000     -19.231398      -523.3129
   1   2.0000     -10.324693      -280.9492
   2   2.0000      -1.112059       -30.2607
   3   2.0000      -0.801675       -21.8147
   4   2.0000      -0.599054       -16.3011
   5   2.0000      -0.532099       -14.4791
   6   2.0000      -0.514695       -14.0056
   7   2.0000      -0.439269       -11.9531
   8   2.0000      -0.375503       -10.2180
   9   0.0000       0.088339         2.4038
  10   0.0000       0.124598         3.3905
  11   0.0000       0.141715         3.8563
  12   0.0000       0.183970         5.0061
  13   0.0000       0.188944         5.1414

MULLIKEN ATOMIC CHARGES
-----------------------
   0 C :    0.002369
   1 O :   -0.000095
   2 H :   -0.000014
   3 H :   -0.000147
   4 H :   -0.005944
   5 H :   -0.004127
   6 C :   -0.190334
   7 O :   -0.481278
   8 H :    0.315298
   9 H :    0.114909
  10 H :    0.115145
  11 H :    0.134217
Sum of atomic charges:    0.0000000

LOEWDIN ATOMIC CHARGES
----------------------
   0 C :   -0.007165
   1 O :   -0.000035
   2 H :   -0.000009
   3 H :   -0.000070
   4 H :   -0.003480
   5 H :   -0.003765
   6 C :   -0.328894
   7 O :   -0.123883
   8 H :    0.158902
   9 H :    0.103439
  10 H :    0.100981
  11 H :    0.103979

  Mayer bond orders larger than 0.1
B(  6-C ,  7-O ) :   0.9896 B(  6-C ,  9-H ) :   0.9667 B(  6-C , 10-H ) :   0.9772
B(  6-C , 11-H ) :   0.9714 B(  7-O ,  8-H ) :   0.8995

Dispersion correction           -0.000311636
FINAL SINGLE POINT ENERGY      -115.727980561820

DIPOLE MOMENT
-------------
                                X             Y             Z
Electronic contribution:     -1.83066      -0.01767      -0.35448
Nuclear contribution   :      2.44933       0.04821      -0.05607
                        -----------------------------------------
Total Dipole Moment    :      0.61867       0.03054      -0.41055
                        -----------------------------------------
Magnitude (a.u.)       :      0.74313
Magnitude (Debye)      :      1.88888

Rotational constants in cm-1:     4.396880     0.739932     0.715293
Rotational constants in MHz : 131815.150477 22182.613815 21443.944429

                             ****ORCA TERMINATED NORMALLY****
TOTAL RUN TIME: 0 days 0 hours 1 minutes 3 seconds 533 msec
