                         Program Version 4.1.2  - RELEASE  -
|  1> #Run DFT-D3 single point of the dimer
|  2> ! wB97X-D3 def2-TZVP TIGHTSCF CHELPG PMODEL PAL8
|  3>
|  4> %base "6-175_DFT_AB"
|  5>
|  6> %scf
|  7> MaxIter 1000
|  8> end
|  9>
| 10> * xyz 0 1
| 11>   C                      3.470945             -7.871248            -6.865342
| 12>   O                      3.665469             -6.548684            -6.468324
| 13>   H                      4.557768             -6.491265            -6.276443
| 14>   H                      4.387833             -8.448434            -6.996690
| 15>   H                      2.867998             -8.443827            -6.204691
| 16>   H                      2.986948             -7.961744            -7.814579
| 17>   C                      2.251098             -3.006365            -5.096222
| 18>   O                      3.141196             -4.037506            -5.283602
| 19>   H                      2.896213             -4.674189            -5.962261
| 20>   H                      1.200443             -3.405278            -5.116812
| 21>   H                      2.410126             -2.554868            -4.177407
| 22>   H                      2.434176             -2.267994            -5.911534
| 23> *
| 24>
| 25> #Run DFT-D3 single point of the molecule with dimer basis set
| 26> $new_job
| 27> %base "6-175_DFT_A"
| 28> ! wB97X-D3 def2-TZVP TIGHTSCF CHELPG PMODEL
| 29>
| 30> %scf
| 31> MaxIter 1000
| 32> end
| 33>
| 34> * xyz 0 1
| 35>   C                      3.470945             -7.871248            -6.865342
| 36>   O                      3.665469             -6.548684            -6.468324
| 37>   H                      4.557768             -6.491265            -6.276443
| 38>   H                      4.387833             -8.448434            -6.996690
| 39>   H                      2.867998             -8.443827            -6.204691
| 40>   H                      2.986948             -7.961744            -7.814579
| 41>   C                    : 2.251098             -3.006365            -5.096222
| 42>   O                    : 3.141196             -4.037506            -5.283602
| 43>   H                    : 2.896213             -4.674189            -5.962261
| 44>   H                    : 1.200443             -3.405278            -5.116812
| 45>   H                    : 2.410126             -2.554868            -4.177407
| 46>   H                    : 2.434176             -2.267994            -5.911534
| 47> *
| 48>
| 49> #Run DFT-D3 single point of the particle with dimer basis set
| 50> $new_job
| 51> %base "6-175_DFT_B"
| 52> ! wB97X-D3 def2-TZVP TIGHTSCF CHELPG PMODEL
| 53>
| 54> %scf
| 55> MaxIter 1000
| 56> end
| 57>
| 58> * xyz 0 1
| 59>   C                    : 3.470945             -7.871248            -6.865342
| 60>   O                    : 3.665469             -6.548684            -6.468324
| 61>   H                    : 4.557768             -6.491265            -6.276443
| 62>   H                    : 4.387833             -8.448434            -6.996690
| 63>   H                    : 2.867998             -8.443827            -6.204691
| 64>   H                    : 2.986948             -7.961744            -7.814579
| 65>   C                      2.251098             -3.006365            -5.096222
| 66>   O                      3.141196             -4.037506            -5.283602
| 67>   H                      2.896213             -4.674189            -5.962261
| 68>   H                      1.200443             -3.405278            -5.116812
| 69>   H                      2.410126             -2.554868            -4.177407
| 70>   H                      2.434176             -2.267994            -5.911534
| 71> *
| 72>
| 73>                          ****END OF INPUT****
 Total Charge           Charge          ....    0
 Multiplicity           Mult            ....    1
 Number of Electrons    NEL             ....   36
Dispersion correction           -0.001264525
FINAL SINGLE POINT ENERGY      -231.468157909634
Dispersion correction           -0.000235997
FINAL SINGLE POINT ENERGY      -115.730826771072

CARTESIAN COORDINATES (ANGSTROEM)
---------------------------------
  C      3.470945   -7.871248   -6.865342
  O      3.665469   -6.548684   -6.468324
  H      4.557768   -6.491265   -6.276443
  H      4.387833   -8.448434   -6.996690
  H      2.867998   -8.443827   -6.204691
  H      2.986948   -7.961744   -7.814579
  C      2.251098   -3.006365   -5.096222
  O      3.141196   -4.037506   -5.283602
  H      2.896213   -4.674189   -5.962261
  H      1.200443   -3.405278   -5.116812
  H      2.410126   -2.554868   -4.177407
  H      2.434176   -2.267994   -5.911534

 Multiplicity           Mult            ....    1
 Number of Electrons    NEL             ....   18
 Basis Dimension        Dim             ....  172

ORBITAL ENERGIES
----------------

  NO   OCC          E(Eh)            E(eV)
   0   2.0000     -19.223706      -523.1036
   1   2.0000     -10.309100      -280.5249
   2   2.0000      -1.142215       -31.0813
   3   2.0000      -0.797782       -21.7088
   4   2.0000      -0.612031       -16.6542
   5   2.0000      -0.548669       -14.9300
   6   2.0000      -0.540053       -14.6956
   7   2.0000      -0.420511       -11.4427
   8   2.0000      -0.367196        -9.9919
   9   0.0000       0.077993         2.1223
  10   0.0000       0.123171         3.3517
  11   0.0000       0.154075         4.1926
  12   0.0000       0.182160         4.9568
  13   0.0000       0.199284         5.4228

MULLIKEN ATOMIC CHARGES
-----------------------
   0 C :   -0.000406
   1 O :   -0.000598
   2 H :   -0.001070
   3 H :    0.000005
   4 H :   -0.000001
   5 H :    0.000024
   6 C :   -0.146745
   7 O :   -0.477115
   8 H :    0.316764
   9 H :    0.092257
  10 H :    0.122045
  11 H :    0.094839
Sum of atomic charges:   -0.0000000

LOEWDIN ATOMIC CHARGES
----------------------
   0 C :   -0.000987
   1 O :   -0.013758
   2 H :   -0.002165
   3 H :   -0.000028
   4 H :   -0.000039
   5 H :   -0.000029
   6 C :   -0.402896
   7 O :   -0.049009
   8 H :    0.176710
   9 H :    0.100005
  10 H :    0.093549
  11 H :    0.098648

  Mayer bond orders larger than 0.1
B(  6-C ,  7-O ) :   0.9952 B(  6-C ,  9-H ) :   0.9833 B(  6-C , 10-H ) :   0.9707
B(  6-C , 11-H ) :   0.9832 B(  7-O ,  8-H ) :   0.8927

Dispersion correction           -0.000227885
FINAL SINGLE POINT ENERGY      -115.731284689640

DIPOLE MOMENT
-------------
                                X             Y             Z
Electronic contribution:      1.21380      -1.22524      -0.04376
Nuclear contribution   :     -1.71325       1.20576      -0.29217
                        -----------------------------------------
Total Dipole Moment    :     -0.49945      -0.01947      -0.33593
                        -----------------------------------------
Magnitude (a.u.)       :      0.60223
Magnitude (Debye)      :      1.53075

Rotational constants in cm-1:     4.307333     0.865410     0.843584
Rotational constants in MHz : 129130.599607 25944.341411 25290.004072

                             ****ORCA TERMINATED NORMALLY****
TOTAL RUN TIME: 0 days 0 hours 1 minutes 5 seconds 760 msec
