                         Program Version 4.1.2  - RELEASE  -
|  1> #Run DFT-D3 single point of the dimer
|  2> ! wB97X-D3 def2-TZVP TIGHTSCF CHELPG PMODEL PAL8
|  3>
|  4> %base "10-6_DFT_AB"
|  5>
|  6> %scf
|  7> MaxIter 1000
|  8> end
|  9>
| 10> * xyz 0 1
| 11>   C                      -6.423069            5.566092             9.013381
| 12>   O                      -6.490406            6.939785             8.703720
| 13>   H                      -5.816488            7.100692             8.090013
| 14>   H                      -7.316964            5.205827             9.520099
| 15>   H                      -6.371598            4.942767             8.107187
| 16>   H                      -5.565183            5.306817             9.669080
| 17>   C                      -9.038781            2.382925             10.671437
| 18>   O                      -9.148881            2.405366             9.247341
| 19>   H                      -8.234195            2.152081             9.055824
| 20>   H                      -9.097969            1.345778             11.088564
| 21>   H                      -8.193476            2.976226             11.111327
| 22>   H                      -9.900120            2.850462             11.183884
| 23> *
| 24>
| 25> #Run DFT-D3 single point of the molecule with dimer basis set
| 26> $new_job
| 27> %base "10-6_DFT_A"
| 28> ! wB97X-D3 def2-TZVP TIGHTSCF CHELPG PMODEL
| 29>
| 30> %scf
| 31> MaxIter 1000
| 32> end
| 33>
| 34> * xyz 0 1
| 35>   C                      -6.423069            5.566092             9.013381
| 36>   O                      -6.490406            6.939785             8.703720
| 37>   H                      -5.816488            7.100692             8.090013
| 38>   H                      -7.316964            5.205827             9.520099
| 39>   H                      -6.371598            4.942767             8.107187
| 40>   H                      -5.565183            5.306817             9.669080
| 41>   C                    : -9.038781            2.382925             10.671437
| 42>   O                    : -9.148881            2.405366             9.247341
| 43>   H                    : -8.234195            2.152081             9.055824
| 44>   H                    : -9.097969            1.345778             11.088564
| 45>   H                    : -8.193476            2.976226             11.111327
| 46>   H                    : -9.900120            2.850462             11.183884
| 47> *
| 48>
| 49> #Run DFT-D3 single point of the particle with dimer basis set
| 50> $new_job
| 51> %base "10-6_DFT_B"
| 52> ! wB97X-D3 def2-TZVP TIGHTSCF CHELPG PMODEL
| 53>
| 54> %scf
| 55> MaxIter 1000
| 56> end
| 57>
| 58> * xyz 0 1
| 59>   C                    : -6.423069            5.566092             9.013381
| 60>   O                    : -6.490406            6.939785             8.703720
| 61>   H                    : -5.816488            7.100692             8.090013
| 62>   H                    : -7.316964            5.205827             9.520099
| 63>   H                    : -6.371598            4.942767             8.107187
| 64>   H                    : -5.565183            5.306817             9.669080
| 65>   C                      -9.038781            2.382925             10.671437
| 66>   O                      -9.148881            2.405366             9.247341
| 67>   H                      -8.234195            2.152081             9.055824
| 68>   H                      -9.097969            1.345778             11.088564
| 69>   H                      -8.193476            2.976226             11.111327
| 70>   H                      -9.900120            2.850462             11.183884
| 71> *
| 72>
| 73>                          ****END OF INPUT****
 Total Charge           Charge          ....    0
 Multiplicity           Mult            ....    1
 Number of Electrons    NEL             ....   36
Dispersion correction           -0.001335197
FINAL SINGLE POINT ENERGY      -231.464480884909
Dispersion correction           -0.000241908
FINAL SINGLE POINT ENERGY      -115.734924998452

CARTESIAN COORDINATES (ANGSTROEM)
---------------------------------
  C     -6.423069    5.566092    9.013381
  O     -6.490406    6.939785    8.703720
  H     -5.816488    7.100692    8.090013
  H     -7.316964    5.205827    9.520099
  H     -6.371598    4.942767    8.107187
  H     -5.565183    5.306817    9.669080
  C     -9.038781    2.382925   10.671437
  O     -9.148881    2.405366    9.247341
  H     -8.234195    2.152081    9.055824
  H     -9.097969    1.345778   11.088564
  H     -8.193476    2.976226   11.111327
  H     -9.900120    2.850462   11.183884

 Multiplicity           Mult            ....    1
 Number of Electrons    NEL             ....   18
 Basis Dimension        Dim             ....  172

ORBITAL ENERGIES
----------------

  NO   OCC          E(Eh)            E(eV)
   0   2.0000     -19.240678      -523.5655
   1   2.0000     -10.321257      -280.8557
   2   2.0000      -1.141022       -31.0488
   3   2.0000      -0.789623       -21.4867
   4   2.0000      -0.603282       -16.4161
   5   2.0000      -0.542084       -14.7508
   6   2.0000      -0.525953       -14.3119
   7   2.0000      -0.436707       -11.8834
   8   2.0000      -0.380028       -10.3411
   9   0.0000       0.080449         2.1891
  10   0.0000       0.121059         3.2942
  11   0.0000       0.144276         3.9259
  12   0.0000       0.172431         4.6921
  13   0.0000       0.192235         5.2310

MULLIKEN ATOMIC CHARGES
-----------------------
   0 C :   -0.001087
   1 O :   -0.000029
   2 H :   -0.000007
   3 H :    0.000073
   4 H :   -0.000404
   5 H :   -0.000052
   6 C :   -0.211808
   7 O :   -0.448812
   8 H :    0.319268
   9 H :    0.113354
  10 H :    0.111165
  11 H :    0.118341
Sum of atomic charges:   -0.0000000

LOEWDIN ATOMIC CHARGES
----------------------
   0 C :   -0.001498
   1 O :   -0.000016
   2 H :   -0.000002
   3 H :   -0.001614
   4 H :   -0.000318
   5 H :   -0.000044
   6 C :   -0.406960
   7 O :   -0.081582
   8 H :    0.180965
   9 H :    0.101042
  10 H :    0.101275
  11 H :    0.108751

  Mayer bond orders larger than 0.1
B(  6-C ,  7-O ) :   1.0043 B(  6-C ,  9-H ) :   0.9749 B(  6-C , 10-H ) :   0.9703
B(  6-C , 11-H ) :   0.9748 B(  7-O ,  8-H ) :   0.9009

Dispersion correction           -0.000253781
FINAL SINGLE POINT ENERGY      -115.728984153293

DIPOLE MOMENT
-------------
                                X             Y             Z
Electronic contribution:     -0.23919       0.06498      -2.02676
Nuclear contribution   :      0.80331      -0.21168       2.45613
                        -----------------------------------------
Total Dipole Moment    :      0.56412      -0.14670       0.42938
                        -----------------------------------------
Magnitude (a.u.)       :      0.72396
Magnitude (Debye)      :      1.84017

Rotational constants in cm-1:     4.216797     0.807403     0.785937
Rotational constants in MHz : 126416.392252 24205.323603 23561.796300

                             ****ORCA TERMINATED NORMALLY****
TOTAL RUN TIME: 0 days 0 hours 1 minutes 5 seconds 976 msec
