                         Program Version 4.1.2  - RELEASE  -
|  1> #Run DFT-D3 single point of the dimer
|  2> ! wB97X-D3 def2-TZVP TIGHTSCF CHELPG PMODEL PAL8
|  3>
|  4> %base "19-77_DFT_AB"
|  5>
|  6> %scf
|  7> MaxIter 1000
|  8> end
|  9>
| 10> * xyz 0 1
| 11>   C                      -4.824653            -10.147423           5.995258
| 12>   O                      -3.540694            -9.794573            6.520729
| 13>   H                      -3.402781            -8.849417            6.277806
| 14>   H                      -5.412021            -9.291457            5.854448
| 15>   H                      -4.591156            -10.588656           5.073679
| 16>   H                      -5.447185            -10.807198           6.600243
| 17>   C                      -3.557479            -7.362390            3.519988
| 18>   O                      -2.721320            -8.442508            3.756280
| 19>   H                      -2.822372            -9.065009            3.006001
| 20>   H                      -3.327990            -6.455389            4.137939
| 21>   H                      -3.609330            -6.983526            2.487599
| 22>   H                      -4.582899            -7.558906            3.878854
| 23> *
| 24>
| 25> #Run DFT-D3 single point of the molecule with dimer basis set
| 26> $new_job
| 27> %base "19-77_DFT_A"
| 28> ! wB97X-D3 def2-TZVP TIGHTSCF CHELPG PMODEL
| 29>
| 30> %scf
| 31> MaxIter 1000
| 32> end
| 33>
| 34> * xyz 0 1
| 35>   C                      -4.824653            -10.147423           5.995258
| 36>   O                      -3.540694            -9.794573            6.520729
| 37>   H                      -3.402781            -8.849417            6.277806
| 38>   H                      -5.412021            -9.291457            5.854448
| 39>   H                      -4.591156            -10.588656           5.073679
| 40>   H                      -5.447185            -10.807198           6.600243
| 41>   C                    : -3.557479            -7.362390            3.519988
| 42>   O                    : -2.721320            -8.442508            3.756280
| 43>   H                    : -2.822372            -9.065009            3.006001
| 44>   H                    : -3.327990            -6.455389            4.137939
| 45>   H                    : -3.609330            -6.983526            2.487599
| 46>   H                    : -4.582899            -7.558906            3.878854
| 47> *
| 48>
| 49> #Run DFT-D3 single point of the particle with dimer basis set
| 50> $new_job
| 51> %base "19-77_DFT_B"
| 52> ! wB97X-D3 def2-TZVP TIGHTSCF CHELPG PMODEL
| 53>
| 54> %scf
| 55> MaxIter 1000
| 56> end
| 57>
| 58> * xyz 0 1
| 59>   C                    : -4.824653            -10.147423           5.995258
| 60>   O                    : -3.540694            -9.794573            6.520729
| 61>   H                    : -3.402781            -8.849417            6.277806
| 62>   H                    : -5.412021            -9.291457            5.854448
| 63>   H                    : -4.591156            -10.588656           5.073679
| 64>   H                    : -5.447185            -10.807198           6.600243
| 65>   C                      -3.557479            -7.362390            3.519988
| 66>   O                      -2.721320            -8.442508            3.756280
| 67>   H                      -2.822372            -9.065009            3.006001
| 68>   H                      -3.327990            -6.455389            4.137939
| 69>   H                      -3.609330            -6.983526            2.487599
| 70>   H                      -4.582899            -7.558906            3.878854
| 71> *
| 72>
| 73>                          ****END OF INPUT****
 Total Charge           Charge          ....    0
 Multiplicity           Mult            ....    1
 Number of Electrons    NEL             ....   36
Dispersion correction           -0.002234744
FINAL SINGLE POINT ENERGY      -231.463052475738
Dispersion correction           -0.000224396
FINAL SINGLE POINT ENERGY      -115.728365383940

CARTESIAN COORDINATES (ANGSTROEM)
---------------------------------
  C     -4.824653  -10.147423    5.995258
  O     -3.540694   -9.794573    6.520729
  H     -3.402781   -8.849417    6.277806
  H     -5.412021   -9.291457    5.854448
  H     -4.591156  -10.588656    5.073679
  H     -5.447185  -10.807198    6.600243
  C     -3.557479   -7.362390    3.519988
  O     -2.721320   -8.442508    3.756280
  H     -2.822372   -9.065009    3.006001
  H     -3.327990   -6.455389    4.137939
  H     -3.609330   -6.983526    2.487599
  H     -4.582899   -7.558906    3.878854

 Multiplicity           Mult            ....    1
 Number of Electrons    NEL             ....   18
 Basis Dimension        Dim             ....  172

ORBITAL ENERGIES
----------------

  NO   OCC          E(Eh)            E(eV)
   0   2.0000     -19.237902      -523.4899
   1   2.0000     -10.315083      -280.6877
   2   2.0000      -1.144504       -31.1435
   3   2.0000      -0.792141       -21.5552
   4   2.0000      -0.616319       -16.7709
   5   2.0000      -0.541948       -14.7472
   6   2.0000      -0.529554       -14.4099
   7   2.0000      -0.429950       -11.6995
   8   2.0000      -0.372565       -10.1380
   9   0.0000       0.091087         2.4786
  10   0.0000       0.127502         3.4695
  11   0.0000       0.146636         3.9902
  12   0.0000       0.180481         4.9111
  13   0.0000       0.190489         5.1835

MULLIKEN ATOMIC CHARGES
-----------------------
   0 C :    0.003180
   1 O :    0.002078
   2 H :   -0.001605
   3 H :   -0.000349
   4 H :   -0.007189
   5 H :   -0.000262
   6 C :   -0.177612
   7 O :   -0.464089
   8 H :    0.322036
   9 H :    0.114807
  10 H :    0.111216
  11 H :    0.097788
Sum of atomic charges:   -0.0000000

LOEWDIN ATOMIC CHARGES
----------------------
   0 C :   -0.005862
   1 O :   -0.003006
   2 H :   -0.006645
   3 H :   -0.001258
   4 H :   -0.002651
   5 H :   -0.000085
   6 C :   -0.424261
   7 O :   -0.047809
   8 H :    0.187195
   9 H :    0.112818
  10 H :    0.096570
  11 H :    0.094993

  Mayer bond orders larger than 0.1
B(  6-C ,  7-O ) :   1.0048 B(  6-C ,  9-H ) :   0.9742 B(  6-C , 10-H ) :   0.9731
B(  6-C , 11-H ) :   0.9778 B(  7-O ,  8-H ) :   0.8907

Dispersion correction           -0.000255659
FINAL SINGLE POINT ENERGY      -115.732670772037

DIPOLE MOMENT
-------------
                                X             Y             Z
Electronic contribution:      1.29268      -1.48753       0.34048
Nuclear contribution   :     -1.65294       1.51323      -0.90785
                        -----------------------------------------
Total Dipole Moment    :     -0.36025       0.02570      -0.56737
                        -----------------------------------------
Magnitude (a.u.)       :      0.67257
Magnitude (Debye)      :      1.70955

Rotational constants in cm-1:     4.355676     0.840539     0.808754
Rotational constants in MHz : 130579.869235 25198.728197 24245.844543

                             ****ORCA TERMINATED NORMALLY****
TOTAL RUN TIME: 0 days 0 hours 2 minutes 24 seconds 176 msec
