                         Program Version 4.1.2  - RELEASE  -
|  1> #Run DFT-D3 single point of the dimer
|  2> ! wB97X-D3 def2-TZVP TIGHTSCF CHELPG PMODEL PAL8
|  3>
|  4> %base "13-25_DFT_AB"
|  5>
|  6> %scf
|  7> MaxIter 1000
|  8> end
|  9>
| 10> * xyz 0 1
| 11>   C                      8.730308             3.899226             2.149717
| 12>   O                      8.727510             4.515731             3.391171
| 13>   H                      8.971102             3.845364             4.096785
| 14>   H                      7.977863             3.093714             1.981061
| 15>   H                      8.611493             4.563490             1.375801
| 16>   H                      9.723099             3.443428             1.923112
| 17>   C                      6.434356             -0.699909            0.170540
| 18>   O                      5.365112             -0.900718            -0.728874
| 19>   H                      5.747872             -1.539752            -1.360051
| 20>   H                      7.251423             -0.122090            -0.272129
| 21>   H                      6.045687             -0.224587            1.058624
| 22>   H                      6.784626             -1.682548            0.522621
| 23> *
| 24>
| 25> #Run DFT-D3 single point of the molecule with dimer basis set
| 26> $new_job
| 27> %base "13-25_DFT_A"
| 28> ! wB97X-D3 def2-TZVP TIGHTSCF CHELPG PMODEL
| 29>
| 30> %scf
| 31> MaxIter 1000
| 32> end
| 33>
| 34> * xyz 0 1
| 35>   C                      8.730308             3.899226             2.149717
| 36>   O                      8.727510             4.515731             3.391171
| 37>   H                      8.971102             3.845364             4.096785
| 38>   H                      7.977863             3.093714             1.981061
| 39>   H                      8.611493             4.563490             1.375801
| 40>   H                      9.723099             3.443428             1.923112
| 41>   C                    : 6.434356             -0.699909            0.170540
| 42>   O                    : 5.365112             -0.900718            -0.728874
| 43>   H                    : 5.747872             -1.539752            -1.360051
| 44>   H                    : 7.251423             -0.122090            -0.272129
| 45>   H                    : 6.045687             -0.224587            1.058624
| 46>   H                    : 6.784626             -1.682548            0.522621
| 47> *
| 48>
| 49> #Run DFT-D3 single point of the particle with dimer basis set
| 50> $new_job
| 51> %base "13-25_DFT_B"
| 52> ! wB97X-D3 def2-TZVP TIGHTSCF CHELPG PMODEL
| 53>
| 54> %scf
| 55> MaxIter 1000
| 56> end
| 57>
| 58> * xyz 0 1
| 59>   C                    : 8.730308             3.899226             2.149717
| 60>   O                    : 8.727510             4.515731             3.391171
| 61>   H                    : 8.971102             3.845364             4.096785
| 62>   H                    : 7.977863             3.093714             1.981061
| 63>   H                    : 8.611493             4.563490             1.375801
| 64>   H                    : 9.723099             3.443428             1.923112
| 65>   C                      6.434356             -0.699909            0.170540
| 66>   O                      5.365112             -0.900718            -0.728874
| 67>   H                      5.747872             -1.539752            -1.360051
| 68>   H                      7.251423             -0.122090            -0.272129
| 69>   H                      6.045687             -0.224587            1.058624
| 70>   H                      6.784626             -1.682548            0.522621
| 71> *
| 72>
| 73>                          ****END OF INPUT****
 Total Charge           Charge          ....    0
 Multiplicity           Mult            ....    1
 Number of Electrons    NEL             ....   36
Dispersion correction           -0.000650771
FINAL SINGLE POINT ENERGY      -231.464938354396
Dispersion correction           -0.000250196
FINAL SINGLE POINT ENERGY      -115.730042074328

CARTESIAN COORDINATES (ANGSTROEM)
---------------------------------
  C      8.730308    3.899226    2.149717
  O      8.727510    4.515731    3.391171
  H      8.971102    3.845364    4.096785
  H      7.977863    3.093714    1.981061
  H      8.611493    4.563490    1.375801
  H      9.723099    3.443428    1.923112
  C      6.434356   -0.699909    0.170540
  O      5.365112   -0.900718   -0.728874
  H      5.747872   -1.539752   -1.360051
  H      7.251423   -0.122090   -0.272129
  H      6.045687   -0.224587    1.058624
  H      6.784626   -1.682548    0.522621

 Multiplicity           Mult            ....    1
 Number of Electrons    NEL             ....   18
 Basis Dimension        Dim             ....  172

ORBITAL ENERGIES
----------------

  NO   OCC          E(Eh)            E(eV)
   0   2.0000     -19.231459      -523.3146
   1   2.0000     -10.311477      -280.5895
   2   2.0000      -1.137386       -30.9498
   3   2.0000      -0.791015       -21.5246
   4   2.0000      -0.606561       -16.5054
   5   2.0000      -0.548821       -14.9342
   6   2.0000      -0.524432       -14.2705
   7   2.0000      -0.436377       -11.8744
   8   2.0000      -0.374047       -10.1783
   9   0.0000       0.084942         2.3114
  10   0.0000       0.112687         3.0664
  11   0.0000       0.146070         3.9748
  12   0.0000       0.167227         4.5505
  13   0.0000       0.194278         5.2866

MULLIKEN ATOMIC CHARGES
-----------------------
   0 C :    0.000057
   1 O :   -0.000001
   2 H :   -0.000000
   3 H :   -0.000143
   4 H :   -0.000006
   5 H :   -0.000011
   6 C :   -0.163824
   7 O :   -0.463844
   8 H :    0.313957
   9 H :    0.102812
  10 H :    0.116886
  11 H :    0.094118
Sum of atomic charges:    0.0000000

LOEWDIN ATOMIC CHARGES
----------------------
   0 C :   -0.000037
   1 O :   -0.000001
   2 H :   -0.000000
   3 H :   -0.000099
   4 H :   -0.000001
   5 H :   -0.000003
   6 C :   -0.391568
   7 O :   -0.083693
   8 H :    0.180820
   9 H :    0.094379
  10 H :    0.104859
  11 H :    0.095343

  Mayer bond orders larger than 0.1
B(  6-C ,  7-O ) :   1.0035 B(  6-C ,  9-H ) :   0.9709 B(  6-C , 10-H ) :   0.9749
B(  6-C , 11-H ) :   0.9846 B(  7-O ,  8-H ) :   0.9013

Dispersion correction           -0.000217383
FINAL SINGLE POINT ENERGY      -115.734810031561

DIPOLE MOMENT
-------------
                                X             Y             Z
Electronic contribution:     -1.43755      -0.06547      -1.10042
Nuclear contribution   :      2.07117      -0.25581       1.07775
                        -----------------------------------------
Total Dipole Moment    :      0.63362      -0.32128      -0.02266
                        -----------------------------------------
Magnitude (a.u.)       :      0.71078
Magnitude (Debye)      :      1.80665

Rotational constants in cm-1:     4.180320     0.842694     0.815318
Rotational constants in MHz : 125322.845311 25263.328122 24442.608645

                             ****ORCA TERMINATED NORMALLY****
TOTAL RUN TIME: 0 days 0 hours 1 minutes 2 seconds 987 msec
