                         Program Version 4.1.2  - RELEASE  -
|  1> #Run DFT-D3 single point of the dimer
|  2> ! wB97X-D3 def2-TZVP TIGHTSCF CHELPG PMODEL PAL8
|  3>
|  4> %base "8-193_DFT_AB"
|  5>
|  6> %scf
|  7> MaxIter 1000
|  8> end
|  9>
| 10> * xyz 0 1
| 11>   C                      -1.523092            -3.085054            -4.626806
| 12>   O                      -0.408437            -2.272487            -4.951602
| 13>   H                      -0.333065            -2.187968            -5.897498
| 14>   H                      -1.220030            -4.200989            -4.574410
| 15>   H                      -1.929081            -2.720365            -3.656074
| 16>   H                      -2.337389            -2.885458            -5.353517
| 17>   C                      -0.151003            -2.035609            -8.821723
| 18>   O                      -0.924824            -1.536299            -7.733373
| 19>   H                      -1.828442            -1.692329            -7.979716
| 20>   H                      -0.282953            -1.539425            -9.797442
| 21>   H                      0.915134             -1.846635            -8.655497
| 22>   H                      -0.344206            -3.076921            -8.978535
| 23> *
| 24>
| 25> #Run DFT-D3 single point of the molecule with dimer basis set
| 26> $new_job
| 27> %base "8-193_DFT_A"
| 28> ! wB97X-D3 def2-TZVP TIGHTSCF CHELPG PMODEL
| 29>
| 30> %scf
| 31> MaxIter 1000
| 32> end
| 33>
| 34> * xyz 0 1
| 35>   C                      -1.523092            -3.085054            -4.626806
| 36>   O                      -0.408437            -2.272487            -4.951602
| 37>   H                      -0.333065            -2.187968            -5.897498
| 38>   H                      -1.220030            -4.200989            -4.574410
| 39>   H                      -1.929081            -2.720365            -3.656074
| 40>   H                      -2.337389            -2.885458            -5.353517
| 41>   C                    : -0.151003            -2.035609            -8.821723
| 42>   O                    : -0.924824            -1.536299            -7.733373
| 43>   H                    : -1.828442            -1.692329            -7.979716
| 44>   H                    : -0.282953            -1.539425            -9.797442
| 45>   H                    : 0.915134             -1.846635            -8.655497
| 46>   H                    : -0.344206            -3.076921            -8.978535
| 47> *
| 48>
| 49> #Run DFT-D3 single point of the particle with dimer basis set
| 50> $new_job
| 51> %base "8-193_DFT_B"
| 52> ! wB97X-D3 def2-TZVP TIGHTSCF CHELPG PMODEL
| 53>
| 54> %scf
| 55> MaxIter 1000
| 56> end
| 57>
| 58> * xyz 0 1
| 59>   C                    : -1.523092            -3.085054            -4.626806
| 60>   O                    : -0.408437            -2.272487            -4.951602
| 61>   H                    : -0.333065            -2.187968            -5.897498
| 62>   H                    : -1.220030            -4.200989            -4.574410
| 63>   H                    : -1.929081            -2.720365            -3.656074
| 64>   H                    : -2.337389            -2.885458            -5.353517
| 65>   C                      -0.151003            -2.035609            -8.821723
| 66>   O                      -0.924824            -1.536299            -7.733373
| 67>   H                      -1.828442            -1.692329            -7.979716
| 68>   H                      -0.282953            -1.539425            -9.797442
| 69>   H                      0.915134             -1.846635            -8.655497
| 70>   H                      -0.344206            -3.076921            -8.978535
| 71> *
| 72>
| 73>                          ****END OF INPUT****
 Total Charge           Charge          ....    0
 Multiplicity           Mult            ....    1
 Number of Electrons    NEL             ....   36
Dispersion correction           -0.001795209
FINAL SINGLE POINT ENERGY      -231.474532600349
Dispersion correction           -0.000255312
FINAL SINGLE POINT ENERGY      -115.733266460042

CARTESIAN COORDINATES (ANGSTROEM)
---------------------------------
  C     -1.523092   -3.085054   -4.626806
  O     -0.408437   -2.272487   -4.951602
  H     -0.333065   -2.187968   -5.897498
  H     -1.220030   -4.200989   -4.574410
  H     -1.929081   -2.720365   -3.656074
  H     -2.337389   -2.885458   -5.353517
  C     -0.151003   -2.035609   -8.821723
  O     -0.924824   -1.536299   -7.733373
  H     -1.828442   -1.692329   -7.979716
  H     -0.282953   -1.539425   -9.797442
  H      0.915134   -1.846635   -8.655497
  H     -0.344206   -3.076921   -8.978535

 Multiplicity           Mult            ....    1
 Number of Electrons    NEL             ....   18
 Basis Dimension        Dim             ....  172

ORBITAL ENERGIES
----------------

  NO   OCC          E(Eh)            E(eV)
   0   2.0000     -19.233910      -523.3813
   1   2.0000     -10.312994      -280.6308
   2   2.0000      -1.138460       -30.9791
   3   2.0000      -0.799041       -21.7430
   4   2.0000      -0.612494       -16.6668
   5   2.0000      -0.546843       -14.8804
   6   2.0000      -0.520381       -14.1603
   7   2.0000      -0.439473       -11.9587
   8   2.0000      -0.377127       -10.2621
   9   0.0000       0.095285         2.5928
  10   0.0000       0.128371         3.4932
  11   0.0000       0.150268         4.0890
  12   0.0000       0.185053         5.0355
  13   0.0000       0.201045         5.4707

MULLIKEN ATOMIC CHARGES
-----------------------
   0 C :    0.000532
   1 O :    0.000086
   2 H :   -0.004397
   3 H :    0.000074
   4 H :   -0.000459
   5 H :   -0.005001
   6 C :   -0.179704
   7 O :   -0.463220
   8 H :    0.313219
   9 H :    0.102823
  10 H :    0.124580
  11 H :    0.111465
Sum of atomic charges:    0.0000000

LOEWDIN ATOMIC CHARGES
----------------------
   0 C :   -0.004634
   1 O :   -0.004976
   2 H :   -0.033173
   3 H :   -0.000047
   4 H :   -0.000078
   5 H :   -0.002506
   6 C :   -0.380103
   7 O :   -0.038776
   8 H :    0.163586
   9 H :    0.097922
  10 H :    0.111511
  11 H :    0.091275

  Mayer bond orders larger than 0.1
B(  6-C ,  7-O ) :   0.9911 B(  6-C ,  9-H ) :   0.9649 B(  6-C , 10-H ) :   0.9775
B(  6-C , 11-H ) :   0.9778 B(  7-O ,  8-H ) :   0.9008

Dispersion correction           -0.000246510
FINAL SINGLE POINT ENERGY      -115.734607146259

DIPOLE MOMENT
-------------
                                X             Y             Z
Electronic contribution:     -0.92362       0.65662       1.52782
Nuclear contribution   :      0.67667      -0.94245      -2.13315
                        -----------------------------------------
Total Dipole Moment    :     -0.24695      -0.28583      -0.60533
                        -----------------------------------------
Magnitude (a.u.)       :      0.71352
Magnitude (Debye)      :      1.81362

Rotational constants in cm-1:     4.416876     0.817560     0.787064
Rotational constants in MHz : 132414.602736 24509.843451 23595.578373

                             ****ORCA TERMINATED NORMALLY****
TOTAL RUN TIME: 0 days 0 hours 0 minutes 45 seconds 140 msec
