                         Program Version 4.1.2  - RELEASE  -
|  1> #Run DFT-D3 single point of the dimer
|  2> ! wB97X-D3 def2-TZVP TIGHTSCF CHELPG PMODEL PAL8
|  3>
|  4> %base "7-160_DFT_AB"
|  5>
|  6> %scf
|  7> MaxIter 1000
|  8> end
|  9>
| 10> * xyz 0 1
| 11>   C                      7.566947             5.501724             -7.688367
| 12>   O                      8.871619             5.154170             -7.252014
| 13>   H                      9.390646             4.968212             -8.055029
| 14>   H                      7.136891             4.654805             -8.248062
| 15>   H                      6.874358             5.827062             -6.924543
| 16>   H                      7.614516             6.193306             -8.485146
| 17>   C                      9.249348             3.887133             -10.934011
| 18>   O                      9.697563             3.561478             -9.597869
| 19>   H                      10.339253            2.835095             -9.668018
| 20>   H                      8.978383             5.007794             -10.990049
| 21>   H                      10.071252            3.732758             -11.620679
| 22>   H                      8.289812             3.395133             -11.245010
| 23> *
| 24>
| 25> #Run DFT-D3 single point of the molecule with dimer basis set
| 26> $new_job
| 27> %base "7-160_DFT_A"
| 28> ! wB97X-D3 def2-TZVP TIGHTSCF CHELPG PMODEL
| 29>
| 30> %scf
| 31> MaxIter 1000
| 32> end
| 33>
| 34> * xyz 0 1
| 35>   C                      7.566947             5.501724             -7.688367
| 36>   O                      8.871619             5.154170             -7.252014
| 37>   H                      9.390646             4.968212             -8.055029
| 38>   H                      7.136891             4.654805             -8.248062
| 39>   H                      6.874358             5.827062             -6.924543
| 40>   H                      7.614516             6.193306             -8.485146
| 41>   C                    : 9.249348             3.887133             -10.934011
| 42>   O                    : 9.697563             3.561478             -9.597869
| 43>   H                    : 10.339253            2.835095             -9.668018
| 44>   H                    : 8.978383             5.007794             -10.990049
| 45>   H                    : 10.071252            3.732758             -11.620679
| 46>   H                    : 8.289812             3.395133             -11.245010
| 47> *
| 48>
| 49> #Run DFT-D3 single point of the particle with dimer basis set
| 50> $new_job
| 51> %base "7-160_DFT_B"
| 52> ! wB97X-D3 def2-TZVP TIGHTSCF CHELPG PMODEL
| 53>
| 54> %scf
| 55> MaxIter 1000
| 56> end
| 57>
| 58> * xyz 0 1
| 59>   C                    : 7.566947             5.501724             -7.688367
| 60>   O                    : 8.871619             5.154170             -7.252014
| 61>   H                    : 9.390646             4.968212             -8.055029
| 62>   H                    : 7.136891             4.654805             -8.248062
| 63>   H                    : 6.874358             5.827062             -6.924543
| 64>   H                    : 7.614516             6.193306             -8.485146
| 65>   C                      9.249348             3.887133             -10.934011
| 66>   O                      9.697563             3.561478             -9.597869
| 67>   H                      10.339253            2.835095             -9.668018
| 68>   H                      8.978383             5.007794             -10.990049
| 69>   H                      10.071252            3.732758             -11.620679
| 70>   H                      8.289812             3.395133             -11.245010
| 71> *
| 72>
| 73>                          ****END OF INPUT****
 Total Charge           Charge          ....    0
 Multiplicity           Mult            ....    1
 Number of Electrons    NEL             ....   36
Dispersion correction           -0.002061572
FINAL SINGLE POINT ENERGY      -231.468518918278
Dispersion correction           -0.000222908
FINAL SINGLE POINT ENERGY      -115.730369762284

CARTESIAN COORDINATES (ANGSTROEM)
---------------------------------
  C      7.566947    5.501724   -7.688367
  O      8.871619    5.154170   -7.252014
  H      9.390646    4.968212   -8.055029
  H      7.136891    4.654805   -8.248062
  H      6.874358    5.827062   -6.924543
  H      7.614516    6.193306   -8.485146
  C      9.249348    3.887133  -10.934011
  O      9.697563    3.561478   -9.597869
  H     10.339253    2.835095   -9.668018
  H      8.978383    5.007794  -10.990049
  H     10.071252    3.732758  -11.620679
  H      8.289812    3.395133  -11.245010

 Multiplicity           Mult            ....    1
 Number of Electrons    NEL             ....   18
 Basis Dimension        Dim             ....  172

ORBITAL ENERGIES
----------------

  NO   OCC          E(Eh)            E(eV)
   0   2.0000     -19.233371      -523.3666
   1   2.0000     -10.324319      -280.9390
   2   2.0000      -1.125796       -30.6345
   3   2.0000      -0.790357       -21.5067
   4   2.0000      -0.603534       -16.4230
   5   2.0000      -0.541407       -14.7324
   6   2.0000      -0.516560       -14.0563
   7   2.0000      -0.431805       -11.7500
   8   2.0000      -0.375127       -10.2077
   9   0.0000       0.096138         2.6160
  10   0.0000       0.125691         3.4202
  11   0.0000       0.145883         3.9697
  12   0.0000       0.181652         4.9430
  13   0.0000       0.196016         5.3339

MULLIKEN ATOMIC CHARGES
-----------------------
   0 C :    0.004468
   1 O :    0.001003
   2 H :   -0.010507
   3 H :   -0.002876
   4 H :   -0.000007
   5 H :   -0.001110
   6 C :   -0.180912
   7 O :   -0.466890
   8 H :    0.313485
   9 H :    0.117962
  10 H :    0.117562
  11 H :    0.107821
Sum of atomic charges:    0.0000000

LOEWDIN ATOMIC CHARGES
----------------------
   0 C :   -0.003817
   1 O :   -0.004394
   2 H :   -0.028064
   3 H :   -0.001588
   4 H :   -0.000029
   5 H :   -0.000517
   6 C :   -0.373297
   7 O :   -0.074749
   8 H :    0.172730
   9 H :    0.117197
  10 H :    0.095179
  11 H :    0.101348

  Mayer bond orders larger than 0.1
B(  6-C ,  7-O ) :   1.0012 B(  6-C ,  9-H ) :   0.9763 B(  6-C , 10-H ) :   0.9774
B(  6-C , 11-H ) :   0.9657 B(  7-O ,  8-H ) :   0.8978

Dispersion correction           -0.000272767
FINAL SINGLE POINT ENERGY      -115.731380413663

DIPOLE MOMENT
-------------
                                X             Y             Z
Electronic contribution:      0.52250      -0.45485       1.71840
Nuclear contribution   :     -0.27810       0.13424      -2.31973
                        -----------------------------------------
Total Dipole Moment    :      0.24441      -0.32061      -0.60133
                        -----------------------------------------
Magnitude (a.u.)       :      0.72396
Magnitude (Debye)      :      1.84017

Rotational constants in cm-1:     4.155797     0.792622     0.765569
Rotational constants in MHz : 124587.666786 23762.207160 22951.189753

                             ****ORCA TERMINATED NORMALLY****
TOTAL RUN TIME: 0 days 0 hours 1 minutes 14 seconds 365 msec
