                         Program Version 4.1.2  - RELEASE  -
|  1> #Run DFT-D3 single point of the dimer
|  2> ! wB97X-D3 def2-TZVP TIGHTSCF  CHELPG PAL8
|  3>
|  4> %base "78_charges"
|  5>
|  6> %scf
|  7> MaxIter 1000
|  8> end
|  9> %output
| 10>   Print[ P_Mayer ] 1
| 11>   Print[ P_NatPop ] 1
| 12>   Print[ P_Hirshfeld ] 1
| 13>   Print[ P_Mulliken ] 1
| 14>   Print [ P_Loewdin ] 1
| 15> end
| 16>
| 17> * xyz 0 1
| 18>   C                      -6.382713            0.616906             2.109065
| 19>   O                      -6.063089            -0.623811            1.557926
| 20>   H                      -5.789878            -1.177674            2.303079
| 21>   H                      -7.235176            1.066133             1.618019
| 22>   H                      -6.626538            0.560739             3.087833
| 23>   H                      -5.597071            1.335384             2.021077
| 24> *
| 25>
| 26>                          ****END OF INPUT****

CARTESIAN COORDINATES (ANGSTROEM)
---------------------------------
  C     -6.382713    0.616906    2.109065
  O     -6.063089   -0.623811    1.557926
  H     -5.789878   -1.177674    2.303079
  H     -7.235176    1.066133    1.618019
  H     -6.626538    0.560739    3.087833
  H     -5.597071    1.335384    2.021077

 Total Charge           Charge          ....    0
 Multiplicity           Mult            ....    1
 Number of Electrons    NEL             ....   18
 Basis Dimension        Dim             ....   86

ORBITAL ENERGIES
----------------

  NO   OCC          E(Eh)            E(eV)
   0   2.0000     -19.230993      -523.3019
   1   2.0000     -10.296542      -280.1832
   2   2.0000      -1.141886       -31.0723
   3   2.0000      -0.803893       -21.8750
   4   2.0000      -0.620802       -16.8929
   5   2.0000      -0.544549       -14.8179
   6   2.0000      -0.532267       -14.4837
   7   2.0000      -0.438663       -11.9366
   8   2.0000      -0.372966       -10.1489
   9   0.0000       0.114971         3.1285
  10   0.0000       0.157925         4.2973
  11   0.0000       0.205342         5.5876
  12   0.0000       0.214757         5.8438
  13   0.0000       0.239960         6.5297

MULLIKEN ATOMIC CHARGES
-----------------------
   0 C :   -0.158661
   1 O :   -0.467802
   2 H :    0.315846
   3 H :    0.106534
   4 H :    0.107762
   5 H :    0.096320
Sum of atomic charges:    0.0000000

LOEWDIN ATOMIC CHARGES
----------------------
   0 C :   -0.388478
   1 O :   -0.063025
   2 H :    0.177771
   3 H :    0.104296
   4 H :    0.077967
   5 H :    0.091470

  Mayer bond orders larger than 0.1
B(  0-C ,  1-O ) :   1.0162 B(  0-C ,  3-H ) :   0.9785 B(  0-C ,  4-H ) :   0.9878
B(  0-C ,  5-H ) :   0.9781 B(  1-O ,  2-H ) :   0.9006

Dispersion correction           -0.000224305
FINAL SINGLE POINT ENERGY      -115.729496059534

DIPOLE MOMENT
-------------
                                X             Y             Z
Electronic contribution:      0.39508      -1.63096      -0.79436
Nuclear contribution   :     -0.36524       1.75578       1.51530
                        -----------------------------------------
Total Dipole Moment    :      0.02984       0.12482       0.72094
                        -----------------------------------------
Magnitude (a.u.)       :      0.73227
Magnitude (Debye)      :      1.86128

Rotational constants in cm-1:     4.618840     0.853730     0.823247
Rotational constants in MHz : 138469.336120 25594.174270 24680.338513

                             ****ORCA TERMINATED NORMALLY****
TOTAL RUN TIME: 0 days 0 hours 0 minutes 40 seconds 657 msec
