                         Program Version 4.1.2  - RELEASE  -
|  1> #Run DFT-D3 single point of the dimer
|  2> ! wB97X-D3 def2-TZVP TIGHTSCF CHELPG PMODEL PAL8
|  3>
|  4> %base "22-10_DFT_AB"
|  5>
|  6> %scf
|  7> MaxIter 1000
|  8> end
|  9>
| 10> * xyz 0 1
| 11>   C                      -3.366488            1.354718             8.299496
| 12>   O                      -2.747762            2.580068             8.513952
| 13>   H                      -2.097212            2.607204             7.804503
| 14>   H                      -3.091532            0.606645             9.087924
| 15>   H                      -4.464560            1.385830             8.357553
| 16>   H                      -3.098089            0.935276             7.304372
| 17>   C                      -7.462364            2.881088             7.041855
| 18>   O                      -8.217421            2.731120             5.869202
| 19>   H                      -9.084535            3.069774             6.088496
| 20>   H                      -7.792425            2.232148             7.906931
| 21>   H                      -6.414661            2.636458             6.894148
| 22>   H                      -7.439216            3.915074             7.389112
| 23> *
| 24>
| 25> #Run DFT-D3 single point of the molecule with dimer basis set
| 26> $new_job
| 27> %base "22-10_DFT_A"
| 28> ! wB97X-D3 def2-TZVP TIGHTSCF CHELPG PMODEL
| 29>
| 30> %scf
| 31> MaxIter 1000
| 32> end
| 33>
| 34> * xyz 0 1
| 35>   C                      -3.366488            1.354718             8.299496
| 36>   O                      -2.747762            2.580068             8.513952
| 37>   H                      -2.097212            2.607204             7.804503
| 38>   H                      -3.091532            0.606645             9.087924
| 39>   H                      -4.464560            1.385830             8.357553
| 40>   H                      -3.098089            0.935276             7.304372
| 41>   C                    : -7.462364            2.881088             7.041855
| 42>   O                    : -8.217421            2.731120             5.869202
| 43>   H                    : -9.084535            3.069774             6.088496
| 44>   H                    : -7.792425            2.232148             7.906931
| 45>   H                    : -6.414661            2.636458             6.894148
| 46>   H                    : -7.439216            3.915074             7.389112
| 47> *
| 48>
| 49> #Run DFT-D3 single point of the particle with dimer basis set
| 50> $new_job
| 51> %base "22-10_DFT_B"
| 52> ! wB97X-D3 def2-TZVP TIGHTSCF CHELPG PMODEL
| 53>
| 54> %scf
| 55> MaxIter 1000
| 56> end
| 57>
| 58> * xyz 0 1
| 59>   C                    : -3.366488            1.354718             8.299496
| 60>   O                    : -2.747762            2.580068             8.513952
| 61>   H                    : -2.097212            2.607204             7.804503
| 62>   H                    : -3.091532            0.606645             9.087924
| 63>   H                    : -4.464560            1.385830             8.357553
| 64>   H                    : -3.098089            0.935276             7.304372
| 65>   C                      -7.462364            2.881088             7.041855
| 66>   O                      -8.217421            2.731120             5.869202
| 67>   H                      -9.084535            3.069774             6.088496
| 68>   H                      -7.792425            2.232148             7.906931
| 69>   H                      -6.414661            2.636458             6.894148
| 70>   H                      -7.439216            3.915074             7.389112
| 71> *
| 72>
| 73>                          ****END OF INPUT****
 Total Charge           Charge          ....    0
 Multiplicity           Mult            ....    1
 Number of Electrons    NEL             ....   36
Dispersion correction           -0.001059440
FINAL SINGLE POINT ENERGY      -231.468555844210
Dispersion correction           -0.000239875
FINAL SINGLE POINT ENERGY      -115.732539535153

CARTESIAN COORDINATES (ANGSTROEM)
---------------------------------
  C     -3.366488    1.354718    8.299496
  O     -2.747762    2.580068    8.513952
  H     -2.097212    2.607204    7.804503
  H     -3.091532    0.606645    9.087924
  H     -4.464560    1.385830    8.357553
  H     -3.098089    0.935276    7.304372
  C     -7.462364    2.881088    7.041855
  O     -8.217421    2.731120    5.869202
  H     -9.084535    3.069774    6.088496
  H     -7.792425    2.232148    7.906931
  H     -6.414661    2.636458    6.894148
  H     -7.439216    3.915074    7.389112

 Multiplicity           Mult            ....    1
 Number of Electrons    NEL             ....   18
 Basis Dimension        Dim             ....  172

ORBITAL ENERGIES
----------------

  NO   OCC          E(Eh)            E(eV)
   0   2.0000     -19.234387      -523.3943
   1   2.0000     -10.314646      -280.6758
   2   2.0000      -1.144163       -31.1342
   3   2.0000      -0.794224       -21.6119
   4   2.0000      -0.613238       -16.6871
   5   2.0000      -0.540007       -14.6943
   6   2.0000      -0.531038       -14.4503
   7   2.0000      -0.434771       -11.8307
   8   2.0000      -0.375571       -10.2198
   9   0.0000       0.085915         2.3379
  10   0.0000       0.117174         3.1885
  11   0.0000       0.147954         4.0260
  12   0.0000       0.170090         4.6284
  13   0.0000       0.186008         5.0615

MULLIKEN ATOMIC CHARGES
-----------------------
   0 C :    0.000113
   1 O :   -0.000010
   2 H :   -0.000007
   3 H :   -0.000024
   4 H :   -0.000602
   5 H :   -0.000051
   6 C :   -0.175625
   7 O :   -0.461608
   8 H :    0.317245
   9 H :    0.095942
  10 H :    0.122176
  11 H :    0.102450
Sum of atomic charges:   -0.0000000

LOEWDIN ATOMIC CHARGES
----------------------
   0 C :   -0.001065
   1 O :   -0.000005
   2 H :   -0.000004
   3 H :   -0.000006
   4 H :   -0.001533
   5 H :   -0.000045
   6 C :   -0.404803
   7 O :   -0.063055
   8 H :    0.170749
   9 H :    0.099658
  10 H :    0.106655
  11 H :    0.093454

  Mayer bond orders larger than 0.1
B(  6-C ,  7-O ) :   1.0107 B(  6-C ,  9-H ) :   0.9721 B(  6-C , 10-H ) :   0.9743
B(  6-C , 11-H ) :   0.9753 B(  7-O ,  8-H ) :   0.8991

Dispersion correction           -0.000244002
FINAL SINGLE POINT ENERGY      -115.735192065302

DIPOLE MOMENT
-------------
                                X             Y             Z
Electronic contribution:     -0.92340      -0.26574      -1.70999
Nuclear contribution   :      0.68679       0.54965       2.27981
                        -----------------------------------------
Total Dipole Moment    :     -0.23661       0.28391       0.56982
                        -----------------------------------------
Magnitude (a.u.)       :      0.67918
Magnitude (Debye)      :      1.72633

Rotational constants in cm-1:     4.333820     0.831821     0.806671
Rotational constants in MHz : 129924.660970 24937.380940 24183.373442

                             ****ORCA TERMINATED NORMALLY****
TOTAL RUN TIME: 0 days 0 hours 0 minutes 53 seconds 633 msec
