                         Program Version 4.1.2  - RELEASE  -
|  1> #Run DFT-D3 single point of the dimer
|  2> ! wB97X-D3 def2-TZVP TIGHTSCF CHELPG PMODEL PAL8
|  3>
|  4> %base "20-199_DFT_AB"
|  5>
|  6> %scf
|  7> MaxIter 1000
|  8> end
|  9>
| 10> * xyz 0 1
| 11>   C                      -7.614321            -1.482426            -2.334530
| 12>   O                      -8.009043            -0.873774            -1.125969
| 13>   H                      -7.748097            0.081051             -1.170580
| 14>   H                      -7.865185            -0.945914            -3.205777
| 15>   H                      -6.470210            -1.582579            -2.381032
| 16>   H                      -7.997989            -2.487817            -2.512743
| 17>   C                      -9.710998            2.179214             -0.109138
| 18>   O                      -8.860415            1.325623             0.616860
| 19>   H                      -9.517758            0.705625             0.956050
| 20>   H                      -10.707104           2.107641             0.293463
| 21>   H                      -9.473880            3.273409             0.136676
| 22>   H                      -9.885433            2.028384             -1.196129
| 23> *
| 24>
| 25> #Run DFT-D3 single point of the molecule with dimer basis set
| 26> $new_job
| 27> %base "20-199_DFT_A"
| 28> ! wB97X-D3 def2-TZVP TIGHTSCF CHELPG PMODEL
| 29>
| 30> %scf
| 31> MaxIter 1000
| 32> end
| 33>
| 34> * xyz 0 1
| 35>   C                      -7.614321            -1.482426            -2.334530
| 36>   O                      -8.009043            -0.873774            -1.125969
| 37>   H                      -7.748097            0.081051             -1.170580
| 38>   H                      -7.865185            -0.945914            -3.205777
| 39>   H                      -6.470210            -1.582579            -2.381032
| 40>   H                      -7.997989            -2.487817            -2.512743
| 41>   C                    : -9.710998            2.179214             -0.109138
| 42>   O                    : -8.860415            1.325623             0.616860
| 43>   H                    : -9.517758            0.705625             0.956050
| 44>   H                    : -10.707104           2.107641             0.293463
| 45>   H                    : -9.473880            3.273409             0.136676
| 46>   H                    : -9.885433            2.028384             -1.196129
| 47> *
| 48>
| 49> #Run DFT-D3 single point of the particle with dimer basis set
| 50> $new_job
| 51> %base "20-199_DFT_B"
| 52> ! wB97X-D3 def2-TZVP TIGHTSCF CHELPG PMODEL
| 53>
| 54> %scf
| 55> MaxIter 1000
| 56> end
| 57>
| 58> * xyz 0 1
| 59>   C                    : -7.614321            -1.482426            -2.334530
| 60>   O                    : -8.009043            -0.873774            -1.125969
| 61>   H                    : -7.748097            0.081051             -1.170580
| 62>   H                    : -7.865185            -0.945914            -3.205777
| 63>   H                    : -6.470210            -1.582579            -2.381032
| 64>   H                    : -7.997989            -2.487817            -2.512743
| 65>   C                      -9.710998            2.179214             -0.109138
| 66>   O                      -8.860415            1.325623             0.616860
| 67>   H                      -9.517758            0.705625             0.956050
| 68>   H                      -10.707104           2.107641             0.293463
| 69>   H                      -9.473880            3.273409             0.136676
| 70>   H                      -9.885433            2.028384             -1.196129
| 71> *
| 72>
| 73>                          ****END OF INPUT****
 Total Charge           Charge          ....    0
 Multiplicity           Mult            ....    1
 Number of Electrons    NEL             ....   36
Dispersion correction           -0.001600890
FINAL SINGLE POINT ENERGY      -231.460966216346
Dispersion correction           -0.000252437
FINAL SINGLE POINT ENERGY      -115.731134703000

CARTESIAN COORDINATES (ANGSTROEM)
---------------------------------
  C     -7.614321   -1.482426   -2.334530
  O     -8.009043   -0.873774   -1.125969
  H     -7.748097    0.081051   -1.170580
  H     -7.865185   -0.945914   -3.205777
  H     -6.470210   -1.582579   -2.381032
  H     -7.997989   -2.487817   -2.512743
  C     -9.710998    2.179214   -0.109138
  O     -8.860415    1.325623    0.616860
  H     -9.517758    0.705625    0.956050
  H    -10.707104    2.107641    0.293463
  H     -9.473880    3.273409    0.136676
  H     -9.885433    2.028384   -1.196129

 Multiplicity           Mult            ....    1
 Number of Electrons    NEL             ....   18
 Basis Dimension        Dim             ....  172

ORBITAL ENERGIES
----------------

  NO   OCC          E(Eh)            E(eV)
   0   2.0000     -19.239215      -523.5257
   1   2.0000     -10.318669      -280.7853
   2   2.0000      -1.147741       -31.2316
   3   2.0000      -0.789771       -21.4908
   4   2.0000      -0.618089       -16.8191
   5   2.0000      -0.542905       -14.7732
   6   2.0000      -0.523483       -14.2447
   7   2.0000      -0.433469       -11.7953
   8   2.0000      -0.379837       -10.3359
   9   0.0000       0.090671         2.4673
  10   0.0000       0.114521         3.1163
  11   0.0000       0.147926         4.0253
  12   0.0000       0.180753         4.9185
  13   0.0000       0.192762         5.2453

MULLIKEN ATOMIC CHARGES
-----------------------
   0 C :   -0.001168
   1 O :   -0.002331
   2 H :   -0.004730
   3 H :    0.000070
   4 H :    0.000040
   5 H :    0.000016
   6 C :   -0.194821
   7 O :   -0.441927
   8 H :    0.319340
   9 H :    0.103585
  10 H :    0.110916
  11 H :    0.111009
Sum of atomic charges:   -0.0000000

LOEWDIN ATOMIC CHARGES
----------------------
   0 C :   -0.000532
   1 O :   -0.008911
   2 H :   -0.013311
   3 H :   -0.000016
   4 H :   -0.000010
   5 H :   -0.000014
   6 C :   -0.413881
   7 O :   -0.050211
   8 H :    0.181510
   9 H :    0.091964
  10 H :    0.113873
  11 H :    0.099538

  Mayer bond orders larger than 0.1
B(  6-C ,  7-O ) :   1.0122 B(  6-C ,  9-H ) :   0.9911 B(  6-C , 10-H ) :   0.9751
B(  6-C , 11-H ) :   0.9598 B(  7-O ,  8-H ) :   0.9008

Dispersion correction           -0.000246452
FINAL SINGLE POINT ENERGY      -115.726015585050

DIPOLE MOMENT
-------------
                                X             Y             Z
Electronic contribution:      1.42255      -1.17886       0.83168
Nuclear contribution   :     -2.19420       1.09985      -0.84138
                        -----------------------------------------
Total Dipole Moment    :     -0.77165      -0.07901      -0.00969
                        -----------------------------------------
Magnitude (a.u.)       :      0.77574
Magnitude (Debye)      :      1.97178

Rotational constants in cm-1:     4.249149     0.830836     0.806515
Rotational constants in MHz : 127386.282702 24907.822085 24178.726024

                             ****ORCA TERMINATED NORMALLY****
TOTAL RUN TIME: 0 days 0 hours 1 minutes 7 seconds 432 msec
