                         Program Version 4.1.2  - RELEASE  -
|  1> #Run DFT-D3 single point of the dimer
|  2> ! wB97X-D3 def2-TZVP TIGHTSCF CHELPG PMODEL PAL8
|  3>
|  4> %base "19-182_DFT_AB"
|  5>
|  6> %scf
|  7> MaxIter 1000
|  8> end
|  9>
| 10> * xyz 0 1
| 11>   C                      5.601645             2.865781             -2.937412
| 12>   O                      6.469794             3.049377             -4.069682
| 13>   H                      7.333711             3.399525             -3.798781
| 14>   H                      5.628178             3.723211             -2.224318
| 15>   H                      4.562722             2.880509             -3.237617
| 16>   H                      5.848391             1.946578             -2.433106
| 17>   C                      9.562394             5.317390             -3.527046
| 18>   O                      8.176050             5.117132             -3.243014
| 19>   H                      7.870844             5.866545             -2.744694
| 20>   H                      9.716728             5.812961             -4.484793
| 21>   H                      10.097111            5.912034             -2.712506
| 22>   H                      10.143364            4.380377             -3.546100
| 23> *
| 24>
| 25> #Run DFT-D3 single point of the molecule with dimer basis set
| 26> $new_job
| 27> %base "19-182_DFT_A"
| 28> ! wB97X-D3 def2-TZVP TIGHTSCF CHELPG PMODEL
| 29>
| 30> %scf
| 31> MaxIter 1000
| 32> end
| 33>
| 34> * xyz 0 1
| 35>   C                      5.601645             2.865781             -2.937412
| 36>   O                      6.469794             3.049377             -4.069682
| 37>   H                      7.333711             3.399525             -3.798781
| 38>   H                      5.628178             3.723211             -2.224318
| 39>   H                      4.562722             2.880509             -3.237617
| 40>   H                      5.848391             1.946578             -2.433106
| 41>   C                    : 9.562394             5.317390             -3.527046
| 42>   O                    : 8.176050             5.117132             -3.243014
| 43>   H                    : 7.870844             5.866545             -2.744694
| 44>   H                    : 9.716728             5.812961             -4.484793
| 45>   H                    : 10.097111            5.912034             -2.712506
| 46>   H                    : 10.143364            4.380377             -3.546100
| 47> *
| 48>
| 49> #Run DFT-D3 single point of the particle with dimer basis set
| 50> $new_job
| 51> %base "19-182_DFT_B"
| 52> ! wB97X-D3 def2-TZVP TIGHTSCF CHELPG PMODEL
| 53>
| 54> %scf
| 55> MaxIter 1000
| 56> end
| 57>
| 58> * xyz 0 1
| 59>   C                    : 5.601645             2.865781             -2.937412
| 60>   O                    : 6.469794             3.049377             -4.069682
| 61>   H                    : 7.333711             3.399525             -3.798781
| 62>   H                    : 5.628178             3.723211             -2.224318
| 63>   H                    : 4.562722             2.880509             -3.237617
| 64>   H                    : 5.848391             1.946578             -2.433106
| 65>   C                      9.562394             5.317390             -3.527046
| 66>   O                      8.176050             5.117132             -3.243014
| 67>   H                      7.870844             5.866545             -2.744694
| 68>   H                      9.716728             5.812961             -4.484793
| 69>   H                      10.097111            5.912034             -2.712506
| 70>   H                      10.143364            4.380377             -3.546100
| 71> *
| 72>
| 73>                          ****END OF INPUT****
 Total Charge           Charge          ....    0
 Multiplicity           Mult            ....    1
 Number of Electrons    NEL             ....   36
Dispersion correction           -0.001742821
FINAL SINGLE POINT ENERGY      -231.473436723129
Dispersion correction           -0.000263335
FINAL SINGLE POINT ENERGY      -115.734683005774

CARTESIAN COORDINATES (ANGSTROEM)
---------------------------------
  C      5.601645    2.865781   -2.937412
  O      6.469794    3.049377   -4.069682
  H      7.333711    3.399525   -3.798781
  H      5.628178    3.723211   -2.224318
  H      4.562722    2.880509   -3.237617
  H      5.848391    1.946578   -2.433106
  C      9.562394    5.317390   -3.527046
  O      8.176050    5.117132   -3.243014
  H      7.870844    5.866545   -2.744694
  H      9.716728    5.812961   -4.484793
  H     10.097111    5.912034   -2.712506
  H     10.143364    4.380377   -3.546100

 Multiplicity           Mult            ....    1
 Number of Electrons    NEL             ....   18
 Basis Dimension        Dim             ....  172

ORBITAL ENERGIES
----------------

  NO   OCC          E(Eh)            E(eV)
   0   2.0000     -19.232830      -523.3519
   1   2.0000     -10.320592      -280.8376
   2   2.0000      -1.135274       -30.8924
   3   2.0000      -0.794866       -21.6294
   4   2.0000      -0.608716       -16.5640
   5   2.0000      -0.541366       -14.7313
   6   2.0000      -0.524742       -14.2790
   7   2.0000      -0.430518       -11.7150
   8   2.0000      -0.377922       -10.2838
   9   0.0000       0.099716         2.7134
  10   0.0000       0.124105         3.3771
  11   0.0000       0.149155         4.0587
  12   0.0000       0.183434         4.9915
  13   0.0000       0.202305         5.5050

MULLIKEN ATOMIC CHARGES
-----------------------
   0 C :    0.001276
   1 O :    0.003368
   2 H :   -0.010938
   3 H :   -0.003580
   4 H :   -0.000199
   5 H :   -0.000241
   6 C :   -0.176558
   7 O :   -0.464201
   8 H :    0.315780
   9 H :    0.110030
  10 H :    0.103354
  11 H :    0.121910
Sum of atomic charges:    0.0000000

LOEWDIN ATOMIC CHARGES
----------------------
   0 C :   -0.005356
   1 O :   -0.007529
   2 H :   -0.033216
   3 H :   -0.001954
   4 H :   -0.000060
   5 H :   -0.000073
   6 C :   -0.379888
   7 O :   -0.043300
   8 H :    0.163619
   9 H :    0.094797
  10 H :    0.105400
  11 H :    0.107561

  Mayer bond orders larger than 0.1
B(  6-C ,  7-O ) :   0.9980 B(  6-C ,  9-H ) :   0.9710 B(  6-C , 10-H ) :   0.9756
B(  6-C , 11-H ) :   0.9739 B(  7-O ,  8-H ) :   0.8983

Dispersion correction           -0.000266495
FINAL SINGLE POINT ENERGY      -115.734094593719

DIPOLE MOMENT
-------------
                                X             Y             Z
Electronic contribution:     -1.86559      -0.39103       0.23762
Nuclear contribution   :      2.24192       0.94945      -0.02185
                        -----------------------------------------
Total Dipole Moment    :      0.37634       0.55842       0.21577
                        -----------------------------------------
Magnitude (a.u.)       :      0.70712
Magnitude (Debye)      :      1.79735

Rotational constants in cm-1:     4.288305     0.804631     0.780065
Rotational constants in MHz : 128560.150122 24122.242590 23385.747526

                             ****ORCA TERMINATED NORMALLY****
TOTAL RUN TIME: 0 days 0 hours 1 minutes 33 seconds 263 msec
