                         Program Version 4.1.2  - RELEASE  -
|  1> #Run DFT-D3 single point of the dimer
|  2> ! wB97X-D3 def2-TZVP TIGHTSCF CHELPG PMODEL PAL8
|  3>
|  4> %base "18-14_DFT_AB"
|  5>
|  6> %scf
|  7> MaxIter 1000
|  8> end
|  9>
| 10> * xyz 0 1
| 11>   C                      1.789285             9.798423             -2.464702
| 12>   O                      2.889570             10.586637            -2.007297
| 13>   H                      2.798921             10.643839            -1.020595
| 14>   H                      1.306149             10.392855            -3.281718
| 15>   H                      2.071224             8.818361             -2.858965
| 16>   H                      0.975558             9.695420             -1.724452
| 17>   C                      6.048813             9.651017             -3.707883
| 18>   O                      4.716885             9.186675             -3.715055
| 19>   H                      4.268644             9.806870             -3.109289
| 20>   H                      6.727350             9.067338             -4.428310
| 21>   H                      5.985617             10.765569            -3.988277
| 22>   H                      6.523864             9.634427             -2.653357
| 23> *
| 24>
| 25> #Run DFT-D3 single point of the molecule with dimer basis set
| 26> $new_job
| 27> %base "18-14_DFT_A"
| 28> ! wB97X-D3 def2-TZVP TIGHTSCF CHELPG PMODEL
| 29>
| 30> %scf
| 31> MaxIter 1000
| 32> end
| 33>
| 34> * xyz 0 1
| 35>   C                      1.789285             9.798423             -2.464702
| 36>   O                      2.889570             10.586637            -2.007297
| 37>   H                      2.798921             10.643839            -1.020595
| 38>   H                      1.306149             10.392855            -3.281718
| 39>   H                      2.071224             8.818361             -2.858965
| 40>   H                      0.975558             9.695420             -1.724452
| 41>   C                    : 6.048813             9.651017             -3.707883
| 42>   O                    : 4.716885             9.186675             -3.715055
| 43>   H                    : 4.268644             9.806870             -3.109289
| 44>   H                    : 6.727350             9.067338             -4.428310
| 45>   H                    : 5.985617             10.765569            -3.988277
| 46>   H                    : 6.523864             9.634427             -2.653357
| 47> *
| 48>
| 49> #Run DFT-D3 single point of the particle with dimer basis set
| 50> $new_job
| 51> %base "18-14_DFT_B"
| 52> ! wB97X-D3 def2-TZVP TIGHTSCF CHELPG PMODEL
| 53>
| 54> %scf
| 55> MaxIter 1000
| 56> end
| 57>
| 58> * xyz 0 1
| 59>   C                    : 1.789285             9.798423             -2.464702
| 60>   O                    : 2.889570             10.586637            -2.007297
| 61>   H                    : 2.798921             10.643839            -1.020595
| 62>   H                    : 1.306149             10.392855            -3.281718
| 63>   H                    : 2.071224             8.818361             -2.858965
| 64>   H                    : 0.975558             9.695420             -1.724452
| 65>   C                      6.048813             9.651017             -3.707883
| 66>   O                      4.716885             9.186675             -3.715055
| 67>   H                      4.268644             9.806870             -3.109289
| 68>   H                      6.727350             9.067338             -4.428310
| 69>   H                      5.985617             10.765569            -3.988277
| 70>   H                      6.523864             9.634427             -2.653357
| 71> *
| 72>
| 73>                          ****END OF INPUT****
 Total Charge           Charge          ....    0
 Multiplicity           Mult            ....    1
 Number of Electrons    NEL             ....   36
Dispersion correction           -0.001760149
FINAL SINGLE POINT ENERGY      -231.470194517893
Dispersion correction           -0.000263189
FINAL SINGLE POINT ENERGY      -115.733008887670

CARTESIAN COORDINATES (ANGSTROEM)
---------------------------------
  C      1.789285    9.798423   -2.464702
  O      2.889570   10.586637   -2.007297
  H      2.798921   10.643839   -1.020595
  H      1.306149   10.392855   -3.281718
  H      2.071224    8.818361   -2.858965
  H      0.975558    9.695420   -1.724452
  C      6.048813    9.651017   -3.707883
  O      4.716885    9.186675   -3.715055
  H      4.268644    9.806870   -3.109289
  H      6.727350    9.067338   -4.428310
  H      5.985617   10.765569   -3.988277
  H      6.523864    9.634427   -2.653357

 Multiplicity           Mult            ....    1
 Number of Electrons    NEL             ....   18
 Basis Dimension        Dim             ....  172

ORBITAL ENERGIES
----------------

  NO   OCC          E(Eh)            E(eV)
   0   2.0000     -19.235787      -523.4324
   1   2.0000     -10.332934      -281.1734
   2   2.0000      -1.140599       -31.0373
   3   2.0000      -0.778154       -21.1746
   4   2.0000      -0.608175       -16.5493
   5   2.0000      -0.534657       -14.5488
   6   2.0000      -0.524725       -14.2785
   7   2.0000      -0.437428       -11.9030
   8   2.0000      -0.369169       -10.0456
   9   0.0000       0.074161         2.0180
  10   0.0000       0.123704         3.3662
  11   0.0000       0.157240         4.2787
  12   0.0000       0.166911         4.5419
  13   0.0000       0.189175         5.1477

MULLIKEN ATOMIC CHARGES
-----------------------
   0 C :   -0.000778
   1 O :   -0.001621
   2 H :   -0.000087
   3 H :    0.000204
   4 H :   -0.002700
   5 H :    0.000137
   6 C :   -0.193057
   7 O :   -0.449845
   8 H :    0.316740
   9 H :    0.126377
  10 H :    0.102815
  11 H :    0.101813
Sum of atomic charges:   -0.0000000

LOEWDIN ATOMIC CHARGES
----------------------
   0 C :   -0.011028
   1 O :   -0.019463
   2 H :   -0.000953
   3 H :   -0.000296
   4 H :   -0.003604
   5 H :   -0.000102
   6 C :   -0.412965
   7 O :   -0.068842
   8 H :    0.196833
   9 H :    0.117423
  10 H :    0.102503
  11 H :    0.100494

  Mayer bond orders larger than 0.1
B(  6-C ,  7-O ) :   0.9919 B(  6-C ,  9-H ) :   0.9672 B(  6-C , 10-H ) :   0.9823
B(  6-C , 11-H ) :   0.9664 B(  7-O ,  8-H ) :   0.8978

Dispersion correction           -0.000240354
FINAL SINGLE POINT ENERGY      -115.728204688199

DIPOLE MOMENT
-------------
                                X             Y             Z
Electronic contribution:     -1.70235      -0.87560      -0.18926
Nuclear contribution   :      1.92049       1.41592       0.54805
                        -----------------------------------------
Total Dipole Moment    :      0.21815       0.54032       0.35878
                        -----------------------------------------
Magnitude (a.u.)       :      0.68429
Magnitude (Debye)      :      1.73934

Rotational constants in cm-1:     3.873180     0.834230     0.794899
Rotational constants in MHz : 116115.015566 25009.582301 23830.485372

                             ****ORCA TERMINATED NORMALLY****
TOTAL RUN TIME: 0 days 0 hours 1 minutes 0 seconds 324 msec
