                         Program Version 4.1.2  - RELEASE  -
|  1> #Run DFT-D3 single point of the dimer
|  2> ! wB97X-D3 def2-TZVP TIGHTSCF CHELPG PMODEL PAL8
|  3>
|  4> %base "18-196_DFT_AB"
|  5>
|  6> %scf
|  7> MaxIter 1000
|  8> end
|  9>
| 10> * xyz 0 1
| 11>   C                      10.644706            -2.358015            3.789917
| 12>   O                      10.734872            -1.007885            3.712842
| 13>   H                      9.884478             -0.685312            4.126290
| 14>   H                      9.641086             -2.583807            4.212031
| 15>   H                      10.859661            -2.765853            2.749649
| 16>   H                      11.340381            -2.791470            4.440976
| 17>   C                      8.421190             1.028016             5.687879
| 18>   O                      8.383752             -0.244949            5.106068
| 19>   H                      7.462672             -0.245862            4.804727
| 20>   H                      9.285839             1.134991             6.240488
| 21>   H                      8.316216             1.900837             5.046537
| 22>   H                      7.621045             1.036768             6.430238
| 23> *
| 24>
| 25> #Run DFT-D3 single point of the molecule with dimer basis set
| 26> $new_job
| 27> %base "18-196_DFT_A"
| 28> ! wB97X-D3 def2-TZVP TIGHTSCF CHELPG PMODEL
| 29>
| 30> %scf
| 31> MaxIter 1000
| 32> end
| 33>
| 34> * xyz 0 1
| 35>   C                      10.644706            -2.358015            3.789917
| 36>   O                      10.734872            -1.007885            3.712842
| 37>   H                      9.884478             -0.685312            4.126290
| 38>   H                      9.641086             -2.583807            4.212031
| 39>   H                      10.859661            -2.765853            2.749649
| 40>   H                      11.340381            -2.791470            4.440976
| 41>   C                    : 8.421190             1.028016             5.687879
| 42>   O                    : 8.383752             -0.244949            5.106068
| 43>   H                    : 7.462672             -0.245862            4.804727
| 44>   H                    : 9.285839             1.134991             6.240488
| 45>   H                    : 8.316216             1.900837             5.046537
| 46>   H                    : 7.621045             1.036768             6.430238
| 47> *
| 48>
| 49> #Run DFT-D3 single point of the particle with dimer basis set
| 50> $new_job
| 51> %base "18-196_DFT_B"
| 52> ! wB97X-D3 def2-TZVP TIGHTSCF CHELPG PMODEL
| 53>
| 54> %scf
| 55> MaxIter 1000
| 56> end
| 57>
| 58> * xyz 0 1
| 59>   C                    : 10.644706            -2.358015            3.789917
| 60>   O                    : 10.734872            -1.007885            3.712842
| 61>   H                    : 9.884478             -0.685312            4.126290
| 62>   H                    : 9.641086             -2.583807            4.212031
| 63>   H                    : 10.859661            -2.765853            2.749649
| 64>   H                    : 11.340381            -2.791470            4.440976
| 65>   C                      8.421190             1.028016             5.687879
| 66>   O                      8.383752             -0.244949            5.106068
| 67>   H                      7.462672             -0.245862            4.804727
| 68>   H                      9.285839             1.134991             6.240488
| 69>   H                      8.316216             1.900837             5.046537
| 70>   H                      7.621045             1.036768             6.430238
| 71> *
| 72>
| 73>                          ****END OF INPUT****
 Total Charge           Charge          ....    0
 Multiplicity           Mult            ....    1
 Number of Electrons    NEL             ....   36
Dispersion correction           -0.001729115
FINAL SINGLE POINT ENERGY      -231.464133624698
Dispersion correction           -0.000211746
FINAL SINGLE POINT ENERGY      -115.723977990977

CARTESIAN COORDINATES (ANGSTROEM)
---------------------------------
  C     10.644706   -2.358015    3.789917
  O     10.734872   -1.007885    3.712842
  H      9.884478   -0.685312    4.126290
  H      9.641086   -2.583807    4.212031
  H     10.859661   -2.765853    2.749649
  H     11.340381   -2.791470    4.440976
  C      8.421190    1.028016    5.687879
  O      8.383752   -0.244949    5.106068
  H      7.462672   -0.245862    4.804727
  H      9.285839    1.134991    6.240488
  H      8.316216    1.900837    5.046537
  H      7.621045    1.036768    6.430238

 Multiplicity           Mult            ....    1
 Number of Electrons    NEL             ....   18
 Basis Dimension        Dim             ....  172

ORBITAL ENERGIES
----------------

  NO   OCC          E(Eh)            E(eV)
   0   2.0000     -19.234745      -523.4040
   1   2.0000     -10.304372      -280.3962
   2   2.0000      -1.146478       -31.1972
   3   2.0000      -0.797751       -21.7079
   4   2.0000      -0.612718       -16.6729
   5   2.0000      -0.548064       -14.9136
   6   2.0000      -0.532951       -14.5023
   7   2.0000      -0.443267       -12.0619
   8   2.0000      -0.374575       -10.1927
   9   0.0000       0.101996         2.7754
  10   0.0000       0.124174         3.3790
  11   0.0000       0.155862         4.2412
  12   0.0000       0.193117         5.2550
  13   0.0000       0.203193         5.5291

MULLIKEN ATOMIC CHARGES
-----------------------
   0 C :    0.004414
   1 O :   -0.001108
   2 H :   -0.008535
   3 H :   -0.005098
   4 H :   -0.000072
   5 H :   -0.000344
   6 C :   -0.166163
   7 O :   -0.455857
   8 H :    0.314953
   9 H :    0.122125
  10 H :    0.099490
  11 H :    0.096194
Sum of atomic charges:   -0.0000000

LOEWDIN ATOMIC CHARGES
----------------------
   0 C :   -0.005308
   1 O :   -0.005256
   2 H :   -0.050550
   3 H :   -0.004048
   4 H :   -0.000036
   5 H :   -0.000062
   6 C :   -0.391464
   7 O :   -0.013132
   8 H :    0.182002
   9 H :    0.095068
  10 H :    0.093820
  11 H :    0.098965

  Mayer bond orders larger than 0.1
B(  6-C ,  7-O ) :   0.9870 B(  6-C ,  9-H ) :   0.9811 B(  6-C , 10-H ) :   0.9656
B(  6-C , 11-H ) :   0.9848 B(  7-O ,  8-H ) :   0.9006

Dispersion correction           -0.000206523
FINAL SINGLE POINT ENERGY      -115.729473190270

DIPOLE MOMENT
-------------
                                X             Y             Z
Electronic contribution:      0.21608      -1.66266      -0.82992
Nuclear contribution   :     -0.74895       2.14195       0.89774
                        -----------------------------------------
Total Dipole Moment    :     -0.53287       0.47929       0.06783
                        -----------------------------------------
Magnitude (a.u.)       :      0.71991
Magnitude (Debye)      :      1.82987

Rotational constants in cm-1:     4.395168     0.856376     0.827562
Rotational constants in MHz : 131763.832270 25673.510529 24809.689971

                             ****ORCA TERMINATED NORMALLY****
TOTAL RUN TIME: 0 days 0 hours 1 minutes 1 seconds 5 msec
