                         Program Version 4.1.2  - RELEASE  -
|  1> #Run DFT-D3 single point of the dimer
|  2> ! wB97X-D3 def2-TZVP TIGHTSCF CHELPG PMODEL PAL8
|  3>
|  4> %base "15-165_DFT_AB"
|  5>
|  6> %scf
|  7> MaxIter 1000
|  8> end
|  9>
| 10> * xyz 0 1
| 11>   C                      -8.337797            2.416175             5.163144
| 12>   O                      -7.836893            3.630064             5.649020
| 13>   H                      -8.642181            4.245374             5.763971
| 14>   H                      -7.568641            1.935078             4.537271
| 15>   H                      -8.594351            1.681504             5.898508
| 16>   H                      -9.204598            2.572450             4.608800
| 17>   C                      -9.809337            4.625064             8.066705
| 18>   O                      -10.372612           4.382840             6.748951
| 19>   H                      -11.292812           4.100494             6.801585
| 20>   H                      -9.570127            3.753823             8.548412
| 21>   H                      -8.941450            5.281015             8.024271
| 22>   H                      -10.560343           5.100254             8.710756
| 23> *
| 24>
| 25> #Run DFT-D3 single point of the molecule with dimer basis set
| 26> $new_job
| 27> %base "15-165_DFT_A"
| 28> ! wB97X-D3 def2-TZVP TIGHTSCF CHELPG PMODEL
| 29>
| 30> %scf
| 31> MaxIter 1000
| 32> end
| 33>
| 34> * xyz 0 1
| 35>   C                      -8.337797            2.416175             5.163144
| 36>   O                      -7.836893            3.630064             5.649020
| 37>   H                      -8.642181            4.245374             5.763971
| 38>   H                      -7.568641            1.935078             4.537271
| 39>   H                      -8.594351            1.681504             5.898508
| 40>   H                      -9.204598            2.572450             4.608800
| 41>   C                    : -9.809337            4.625064             8.066705
| 42>   O                    : -10.372612           4.382840             6.748951
| 43>   H                    : -11.292812           4.100494             6.801585
| 44>   H                    : -9.570127            3.753823             8.548412
| 45>   H                    : -8.941450            5.281015             8.024271
| 46>   H                    : -10.560343           5.100254             8.710756
| 47> *
| 48>
| 49> #Run DFT-D3 single point of the particle with dimer basis set
| 50> $new_job
| 51> %base "15-165_DFT_B"
| 52> ! wB97X-D3 def2-TZVP TIGHTSCF CHELPG PMODEL
| 53>
| 54> %scf
| 55> MaxIter 1000
| 56> end
| 57>
| 58> * xyz 0 1
| 59>   C                    : -8.337797            2.416175             5.163144
| 60>   O                    : -7.836893            3.630064             5.649020
| 61>   H                    : -8.642181            4.245374             5.763971
| 62>   H                    : -7.568641            1.935078             4.537271
| 63>   H                    : -8.594351            1.681504             5.898508
| 64>   H                    : -9.204598            2.572450             4.608800
| 65>   C                      -9.809337            4.625064             8.066705
| 66>   O                      -10.372612           4.382840             6.748951
| 67>   H                      -11.292812           4.100494             6.801585
| 68>   H                      -9.570127            3.753823             8.548412
| 69>   H                      -8.941450            5.281015             8.024271
| 70>   H                      -10.560343           5.100254             8.710756
| 71> *
| 72>
| 73>                          ****END OF INPUT****
 Total Charge           Charge          ....    0
 Multiplicity           Mult            ....    1
 Number of Electrons    NEL             ....   36
Dispersion correction           -0.002173754
FINAL SINGLE POINT ENERGY      -231.469592044312
Dispersion correction           -0.000234756
FINAL SINGLE POINT ENERGY      -115.730228612153

CARTESIAN COORDINATES (ANGSTROEM)
---------------------------------
  C     -8.337797    2.416175    5.163144
  O     -7.836893    3.630064    5.649020
  H     -8.642181    4.245374    5.763971
  H     -7.568641    1.935078    4.537271
  H     -8.594351    1.681504    5.898508
  H     -9.204598    2.572450    4.608800
  C     -9.809337    4.625064    8.066705
  O    -10.372612    4.382840    6.748951
  H    -11.292812    4.100494    6.801585
  H     -9.570127    3.753823    8.548412
  H     -8.941450    5.281015    8.024271
  H    -10.560343    5.100254    8.710756

 Multiplicity           Mult            ....    1
 Number of Electrons    NEL             ....   18
 Basis Dimension        Dim             ....  172

ORBITAL ENERGIES
----------------

  NO   OCC          E(Eh)            E(eV)
   0   2.0000     -19.228195      -523.2258
   1   2.0000     -10.309770      -280.5431
   2   2.0000      -1.120741       -30.4969
   3   2.0000      -0.805212       -21.9109
   4   2.0000      -0.606600       -16.5064
   5   2.0000      -0.541979       -14.7480
   6   2.0000      -0.526739       -14.3333
   7   2.0000      -0.431846       -11.7511
   8   2.0000      -0.374929       -10.2023
   9   0.0000       0.097891         2.6637
  10   0.0000       0.130340         3.5467
  11   0.0000       0.148420         4.0387
  12   0.0000       0.184202         5.0124
  13   0.0000       0.196644         5.3509

MULLIKEN ATOMIC CHARGES
-----------------------
   0 C :    0.006769
   1 O :    0.000674
   2 H :   -0.004885
   3 H :   -0.000540
   4 H :   -0.003460
   5 H :   -0.005761
   6 C :   -0.163843
   7 O :   -0.489984
   8 H :    0.313126
   9 H :    0.115807
  10 H :    0.124107
  11 H :    0.107990
Sum of atomic charges:    0.0000000

LOEWDIN ATOMIC CHARGES
----------------------
   0 C :   -0.010988
   1 O :   -0.004284
   2 H :   -0.029923
   3 H :   -0.000154
   4 H :   -0.001026
   5 H :   -0.002747
   6 C :   -0.337631
   7 O :   -0.071867
   8 H :    0.166199
   9 H :    0.080840
  10 H :    0.110853
  11 H :    0.100728

  Mayer bond orders larger than 0.1
B(  6-C ,  7-O ) :   0.9821 B(  6-C ,  9-H ) :   0.9742 B(  6-C , 10-H ) :   0.9765
B(  6-C , 11-H ) :   0.9786 B(  7-O ,  8-H ) :   0.8967

Dispersion correction           -0.000253131
FINAL SINGLE POINT ENERGY      -115.731289756795

DIPOLE MOMENT
-------------
                                X             Y             Z
Electronic contribution:     -0.48293      -0.30874      -1.67851
Nuclear contribution   :      0.12721       0.23514       2.31041
                        -----------------------------------------
Total Dipole Moment    :     -0.35572      -0.07360       0.63190
                        -----------------------------------------
Magnitude (a.u.)       :      0.72887
Magnitude (Debye)      :      1.85263

Rotational constants in cm-1:     4.505663     0.795723     0.763172
Rotational constants in MHz : 135076.384187 23855.171635 22879.317707

                             ****ORCA TERMINATED NORMALLY****
TOTAL RUN TIME: 0 days 0 hours 1 minutes 3 seconds 996 msec
