                         Program Version 4.1.2  - RELEASE  -
|  1> #Run DFT-D3 single point of the dimer
|  2> ! wB97X-D3 def2-TZVP TIGHTSCF CHELPG PMODEL PAL8
|  3>
|  4> %base "20-148_DFT_AB"
|  5>
|  6> %scf
|  7> MaxIter 1000
|  8> end
|  9>
| 10> * xyz 0 1
| 11>   C                      -10.815946           -7.357765            -5.832672
| 12>   O                      -9.807173            -7.012819            -6.767564
| 13>   H                      -9.051649            -7.493465            -6.453725
| 14>   H                      -10.896860           -6.794769            -4.900034
| 15>   H                      -11.811929           -7.242348            -6.181496
| 16>   H                      -10.662162           -8.393658            -5.525683
| 17>   C                      -7.345479            -7.913174            -3.648446
| 18>   O                      -7.537338            -7.522742            -4.989362
| 19>   H                      -6.741590            -7.192778            -5.369914
| 20>   H                      -6.759192            -8.841699            -3.530227
| 21>   H                      -6.912197            -7.116349            -3.021945
| 22>   H                      -8.278591            -8.214600            -3.203922
| 23> *
| 24>
| 25> #Run DFT-D3 single point of the molecule with dimer basis set
| 26> $new_job
| 27> %base "20-148_DFT_A"
| 28> ! wB97X-D3 def2-TZVP TIGHTSCF CHELPG PMODEL
| 29>
| 30> %scf
| 31> MaxIter 1000
| 32> end
| 33>
| 34> * xyz 0 1
| 35>   C                      -10.815946           -7.357765            -5.832672
| 36>   O                      -9.807173            -7.012819            -6.767564
| 37>   H                      -9.051649            -7.493465            -6.453725
| 38>   H                      -10.896860           -6.794769            -4.900034
| 39>   H                      -11.811929           -7.242348            -6.181496
| 40>   H                      -10.662162           -8.393658            -5.525683
| 41>   C                    : -7.345479            -7.913174            -3.648446
| 42>   O                    : -7.537338            -7.522742            -4.989362
| 43>   H                    : -6.741590            -7.192778            -5.369914
| 44>   H                    : -6.759192            -8.841699            -3.530227
| 45>   H                    : -6.912197            -7.116349            -3.021945
| 46>   H                    : -8.278591            -8.214600            -3.203922
| 47> *
| 48>
| 49> #Run DFT-D3 single point of the particle with dimer basis set
| 50> $new_job
| 51> %base "20-148_DFT_B"
| 52> ! wB97X-D3 def2-TZVP TIGHTSCF CHELPG PMODEL
| 53>
| 54> %scf
| 55> MaxIter 1000
| 56> end
| 57>
| 58> * xyz 0 1
| 59>   C                    : -10.815946           -7.357765            -5.832672
| 60>   O                    : -9.807173            -7.012819            -6.767564
| 61>   H                    : -9.051649            -7.493465            -6.453725
| 62>   H                    : -10.896860           -6.794769            -4.900034
| 63>   H                    : -11.811929           -7.242348            -6.181496
| 64>   H                    : -10.662162           -8.393658            -5.525683
| 65>   C                      -7.345479            -7.913174            -3.648446
| 66>   O                      -7.537338            -7.522742            -4.989362
| 67>   H                      -6.741590            -7.192778            -5.369914
| 68>   H                      -6.759192            -8.841699            -3.530227
| 69>   H                      -6.912197            -7.116349            -3.021945
| 70>   H                      -8.278591            -8.214600            -3.203922
| 71> *
| 72>
| 73>                          ****END OF INPUT****
 Total Charge           Charge          ....    0
 Multiplicity           Mult            ....    1
 Number of Electrons    NEL             ....   36
Dispersion correction           -0.001893613
FINAL SINGLE POINT ENERGY      -231.472562608389
Dispersion correction           -0.000244826
FINAL SINGLE POINT ENERGY      -115.730531768153

CARTESIAN COORDINATES (ANGSTROEM)
---------------------------------
  C    -10.815946   -7.357765   -5.832672
  O     -9.807173   -7.012819   -6.767564
  H     -9.051649   -7.493465   -6.453725
  H    -10.896860   -6.794769   -4.900034
  H    -11.811929   -7.242348   -6.181496
  H    -10.662162   -8.393658   -5.525683
  C     -7.345479   -7.913174   -3.648446
  O     -7.537338   -7.522742   -4.989362
  H     -6.741590   -7.192778   -5.369914
  H     -6.759192   -8.841699   -3.530227
  H     -6.912197   -7.116349   -3.021945
  H     -8.278591   -8.214600   -3.203922

 Multiplicity           Mult            ....    1
 Number of Electrons    NEL             ....   18
 Basis Dimension        Dim             ....  172

ORBITAL ENERGIES
----------------

  NO   OCC          E(Eh)            E(eV)
   0   2.0000     -19.230350      -523.2844
   1   2.0000     -10.313468      -280.6437
   2   2.0000      -1.139972       -31.0202
   3   2.0000      -0.801034       -21.7973
   4   2.0000      -0.614782       -16.7291
   5   2.0000      -0.543962       -14.8020
   6   2.0000      -0.527915       -14.3653
   7   2.0000      -0.429698       -11.6927
   8   2.0000      -0.375835       -10.2270
   9   0.0000       0.100387         2.7317
  10   0.0000       0.129113         3.5134
  11   0.0000       0.149335         4.0636
  12   0.0000       0.190806         5.1921
  13   0.0000       0.202250         5.5035

MULLIKEN ATOMIC CHARGES
-----------------------
   0 C :    0.001235
   1 O :    0.001023
   2 H :   -0.009173
   3 H :   -0.001182
   4 H :   -0.000224
   5 H :   -0.001475
   6 C :   -0.155883
   7 O :   -0.470939
   8 H :    0.313671
   9 H :    0.098898
  10 H :    0.104166
  11 H :    0.119883
Sum of atomic charges:   -0.0000000

LOEWDIN ATOMIC CHARGES
----------------------
   0 C :   -0.005270
   1 O :   -0.005189
   2 H :   -0.029071
   3 H :   -0.000500
   4 H :   -0.000067
   5 H :   -0.000565
   6 C :   -0.387078
   7 O :   -0.030028
   8 H :    0.157701
   9 H :    0.096756
  10 H :    0.097776
  11 H :    0.105535

  Mayer bond orders larger than 0.1
B(  6-C ,  7-O ) :   0.9984 B(  6-C ,  9-H ) :   0.9727 B(  6-C , 10-H ) :   0.9734
B(  6-C , 11-H ) :   0.9763 B(  7-O ,  8-H ) :   0.8975

Dispersion correction           -0.000258878
FINAL SINGLE POINT ENERGY      -115.735553285355

DIPOLE MOMENT
-------------
                                X             Y             Z
Electronic contribution:     -0.34235       0.54394      -1.76461
Nuclear contribution   :      0.92393      -0.49323       2.06641
                        -----------------------------------------
Total Dipole Moment    :      0.58158       0.05071       0.30179
                        -----------------------------------------
Magnitude (a.u.)       :      0.65718
Magnitude (Debye)      :      1.67041

Rotational constants in cm-1:     4.457613     0.821940     0.798960
Rotational constants in MHz : 133635.881033 24641.145154 23952.233204

                             ****ORCA TERMINATED NORMALLY****
TOTAL RUN TIME: 0 days 0 hours 1 minutes 7 seconds 983 msec
