                         Program Version 4.1.2  - RELEASE  -
|  1> #Run DFT-D3 single point of the dimer
|  2> ! wB97X-D3 def2-TZVP TIGHTSCF  CHELPG PAL8
|  3>
|  4> %base "109_charges"
|  5>
|  6> %scf
|  7> MaxIter 1000
|  8> end
|  9> %output
| 10>   Print[ P_Mayer ] 1
| 11>   Print[ P_NatPop ] 1
| 12>   Print[ P_Hirshfeld ] 1
| 13>   Print[ P_Mulliken ] 1
| 14>   Print [ P_Loewdin ] 1
| 15> end
| 16>
| 17> * xyz 0 1
| 18>   C                      -6.680361            -8.236174            8.080573
| 19>   O                      -7.468222            -7.086363            7.862022
| 20>   H                      -6.975564            -6.624363            7.188072
| 21>   H                      -5.677859            -7.950119            7.800691
| 22>   H                      -6.661166            -8.598517            9.090119
| 23>   H                      -7.053821            -9.051168            7.352118
| 24> *
| 25>
| 26>                          ****END OF INPUT****

CARTESIAN COORDINATES (ANGSTROEM)
---------------------------------
  C     -6.680361   -8.236174    8.080573
  O     -7.468222   -7.086363    7.862022
  H     -6.975564   -6.624363    7.188072
  H     -5.677859   -7.950119    7.800691
  H     -6.661166   -8.598517    9.090119
  H     -7.053821   -9.051168    7.352118

 Total Charge           Charge          ....    0
 Multiplicity           Mult            ....    1
 Number of Electrons    NEL             ....   18
 Basis Dimension        Dim             ....   86

ORBITAL ENERGIES
----------------

  NO   OCC          E(Eh)            E(eV)
   0   2.0000     -19.228265      -523.2277
   1   2.0000     -10.316359      -280.7224
   2   2.0000      -1.142261       -31.0825
   3   2.0000      -0.790220       -21.5030
   4   2.0000      -0.611732       -16.6461
   5   2.0000      -0.542719       -14.7681
   6   2.0000      -0.531852       -14.4724
   7   2.0000      -0.435733       -11.8569
   8   2.0000      -0.370482       -10.0813
   9   0.0000       0.110900         3.0177
  10   0.0000       0.157624         4.2892
  11   0.0000       0.193762         5.2725
  12   0.0000       0.208390         5.6706
  13   0.0000       0.230162         6.2630

MULLIKEN ATOMIC CHARGES
-----------------------
   0 C :   -0.168824
   1 O :   -0.462527
   2 H :    0.314282
   3 H :    0.097996
   4 H :    0.122782
   5 H :    0.096292
Sum of atomic charges:    0.0000000

LOEWDIN ATOMIC CHARGES
----------------------
   0 C :   -0.387866
   1 O :   -0.077657
   2 H :    0.168609
   3 H :    0.092250
   4 H :    0.098866
   5 H :    0.105798

  Mayer bond orders larger than 0.1
B(  0-C ,  1-O ) :   1.0013 B(  0-C ,  3-H ) :   0.9946 B(  0-C ,  4-H ) :   0.9688
B(  0-C ,  5-H ) :   0.9750 B(  1-O ,  2-H ) :   0.9046

Dispersion correction           -0.000219238
FINAL SINGLE POINT ENERGY      -115.729499092882

DIPOLE MOMENT
-------------
                                X             Y             Z
Electronic contribution:     -1.11977       1.42828       0.00731
Nuclear contribution   :      1.75981      -1.55539      -0.32266
                        -----------------------------------------
Total Dipole Moment    :      0.64004      -0.12711      -0.31534
                        -----------------------------------------
Magnitude (a.u.)       :      0.72474
Magnitude (Debye)      :      1.84214

Rotational constants in cm-1:     4.154244     0.842118     0.818281
Rotational constants in MHz : 124541.088327 25246.052641 24531.440601

                             ****ORCA TERMINATED NORMALLY****
TOTAL RUN TIME: 0 days 0 hours 0 minutes 42 seconds 381 msec
