                         Program Version 4.1.2  - RELEASE  -
|  1> #Run DFT-D3 single point of the dimer
|  2> ! wB97X-D3 def2-TZVP TIGHTSCF CHELPG PMODEL PAL8
|  3>
|  4> %base "20-218_DFT_AB"
|  5>
|  6> %scf
|  7> MaxIter 1000
|  8> end
|  9>
| 10> * xyz 0 1
| 11>   C                      5.718998             8.214934             1.512964
| 12>   O                      5.060759             8.744820             0.379311
| 13>   H                      4.132313             8.465001             0.389582
| 14>   H                      6.533830             8.895619             1.891840
| 15>   H                      5.039414             8.171224             2.347437
| 16>   H                      6.088976             7.231516             1.309819
| 17>   C                      -0.477451            9.753074             0.223859
| 18>   O                      0.595951             9.626312             1.161011
| 19>   H                      1.213924             8.948302             0.696018
| 20>   H                      -1.393533            10.177866            0.700905
| 21>   H                      -0.201069            10.355538            -0.588821
| 22>   H                      -0.716064            8.808393             -0.265206
| 23> *
| 24>
| 25> #Run DFT-D3 single point of the molecule with dimer basis set
| 26> $new_job
| 27> %base "20-218_DFT_A"
| 28> ! wB97X-D3 def2-TZVP TIGHTSCF CHELPG PMODEL
| 29>
| 30> %scf
| 31> MaxIter 1000
| 32> end
| 33>
| 34> * xyz 0 1
| 35>   C                      5.718998             8.214934             1.512964
| 36>   O                      5.060759             8.744820             0.379311
| 37>   H                      4.132313             8.465001             0.389582
| 38>   H                      6.533830             8.895619             1.891840
| 39>   H                      5.039414             8.171224             2.347437
| 40>   H                      6.088976             7.231516             1.309819
| 41>   C                    : -0.477451            9.753074             0.223859
| 42>   O                    : 0.595951             9.626312             1.161011
| 43>   H                    : 1.213924             8.948302             0.696018
| 44>   H                    : -1.393533            10.177866            0.700905
| 45>   H                    : -0.201069            10.355538            -0.588821
| 46>   H                    : -0.716064            8.808393             -0.265206
| 47> *
| 48>
| 49> #Run DFT-D3 single point of the particle with dimer basis set
| 50> $new_job
| 51> %base "20-218_DFT_B"
| 52> ! wB97X-D3 def2-TZVP TIGHTSCF CHELPG PMODEL
| 53>
| 54> %scf
| 55> MaxIter 1000
| 56> end
| 57>
| 58> * xyz 0 1
| 59>   C                    : 5.718998             8.214934             1.512964
| 60>   O                    : 5.060759             8.744820             0.379311
| 61>   H                    : 4.132313             8.465001             0.389582
| 62>   H                    : 6.533830             8.895619             1.891840
| 63>   H                    : 5.039414             8.171224             2.347437
| 64>   H                    : 6.088976             7.231516             1.309819
| 65>   C                      -0.477451            9.753074             0.223859
| 66>   O                      0.595951             9.626312             1.161011
| 67>   H                      1.213924             8.948302             0.696018
| 68>   H                      -1.393533            10.177866            0.700905
| 69>   H                      -0.201069            10.355538            -0.588821
| 70>   H                      -0.716064            8.808393             -0.265206
| 71> *
| 72>
| 73>                          ****END OF INPUT****
 Total Charge           Charge          ....    0
 Multiplicity           Mult            ....    1
 Number of Electrons    NEL             ....   36
Dispersion correction           -0.000802711
FINAL SINGLE POINT ENERGY      -231.461169198655
Dispersion correction           -0.000240212
FINAL SINGLE POINT ENERGY      -115.733806302018

CARTESIAN COORDINATES (ANGSTROEM)
---------------------------------
  C      5.718998    8.214934    1.512964
  O      5.060759    8.744820    0.379311
  H      4.132313    8.465001    0.389582
  H      6.533830    8.895619    1.891840
  H      5.039414    8.171224    2.347437
  H      6.088976    7.231516    1.309819
  C     -0.477451    9.753074    0.223859
  O      0.595951    9.626312    1.161011
  H      1.213924    8.948302    0.696018
  H     -1.393533   10.177866    0.700905
  H     -0.201069   10.355538   -0.588821
  H     -0.716064    8.808393   -0.265206

 Multiplicity           Mult            ....    1
 Number of Electrons    NEL             ....   18
 Basis Dimension        Dim             ....  172

ORBITAL ENERGIES
----------------

  NO   OCC          E(Eh)            E(eV)
   0   2.0000     -19.237531      -523.4798
   1   2.0000     -10.310541      -280.5641
   2   2.0000      -1.122602       -30.5476
   3   2.0000      -0.791901       -21.5487
   4   2.0000      -0.603946       -16.4342
   5   2.0000      -0.537259       -14.6196
   6   2.0000      -0.521220       -14.1831
   7   2.0000      -0.441618       -12.0170
   8   2.0000      -0.371570       -10.1109
   9   0.0000       0.078097         2.1251
  10   0.0000       0.109095         2.9686
  11   0.0000       0.148130         4.0308
  12   0.0000       0.179461         4.8834
  13   0.0000       0.196439         5.3454

MULLIKEN ATOMIC CHARGES
-----------------------
   0 C :    0.000120
   1 O :    0.000081
   2 H :   -0.000905
   3 H :    0.000003
   4 H :   -0.000040
   5 H :   -0.000007
   6 C :   -0.177937
   7 O :   -0.466925
   8 H :    0.316463
   9 H :    0.118488
  10 H :    0.109454
  11 H :    0.101207
Sum of atomic charges:    0.0000000

LOEWDIN ATOMIC CHARGES
----------------------
   0 C :   -0.000014
   1 O :   -0.000025
   2 H :   -0.001041
   3 H :   -0.000001
   4 H :   -0.000009
   5 H :   -0.000001
   6 C :   -0.382784
   7 O :   -0.115406
   8 H :    0.208635
   9 H :    0.112636
  10 H :    0.084358
  11 H :    0.093654

  Mayer bond orders larger than 0.1
B(  6-C ,  7-O ) :   1.0058 B(  6-C ,  9-H ) :   0.9727 B(  6-C , 10-H ) :   0.9731
B(  6-C , 11-H ) :   0.9834 B(  7-O ,  8-H ) :   0.8932

Dispersion correction           -0.000233334
FINAL SINGLE POINT ENERGY      -115.728273713786

DIPOLE MOMENT
-------------
                                X             Y             Z
Electronic contribution:      1.28423      -0.00276       1.36952
Nuclear contribution   :     -1.33694      -0.35537      -2.03804
                        -----------------------------------------
Total Dipole Moment    :     -0.05271      -0.35812      -0.66852
                        -----------------------------------------
Magnitude (a.u.)       :      0.76023
Magnitude (Debye)      :      1.93234

Rotational constants in cm-1:     4.205075     0.825360     0.778836
Rotational constants in MHz : 126064.987419 24743.671478 23348.906839

                             ****ORCA TERMINATED NORMALLY****
TOTAL RUN TIME: 0 days 0 hours 0 minutes 58 seconds 154 msec
