                         Program Version 4.1.2  - RELEASE  -
|  1> #Run DFT-D3 single point of the dimer
|  2> ! wB97X-D3 def2-TZVP TIGHTSCF CHELPG PMODEL PAL8
|  3>
|  4> %base "17-195_DFT_AB"
|  5>
|  6> %scf
|  7> MaxIter 1000
|  8> end
|  9>
| 10> * xyz 0 1
| 11>   C                      -6.565968            -3.021015            -0.286961
| 12>   O                      -7.870317            -2.524230            -0.457635
| 13>   H                      -8.464050            -3.263168            -0.428365
| 14>   H                      -6.375784            -3.424887            0.682798
| 15>   H                      -6.358553            -3.812381            -1.019314
| 16>   H                      -5.921900            -2.184792            -0.507281
| 17>   C                      -7.895082            -0.450816            -3.438418
| 18>   O                      -6.790914            -1.236352            -2.968042
| 19>   H                      -6.962837            -1.616194            -2.049960
| 20>   H                      -8.781143            -1.121909            -3.639668
| 21>   H                      -8.113031            0.359831             -2.751344
| 22>   H                      -7.681932            -0.008726            -4.411791
| 23> *
| 24>
| 25> #Run DFT-D3 single point of the molecule with dimer basis set
| 26> $new_job
| 27> %base "17-195_DFT_A"
| 28> ! wB97X-D3 def2-TZVP TIGHTSCF CHELPG PMODEL
| 29>
| 30> %scf
| 31> MaxIter 1000
| 32> end
| 33>
| 34> * xyz 0 1
| 35>   C                      -6.565968            -3.021015            -0.286961
| 36>   O                      -7.870317            -2.524230            -0.457635
| 37>   H                      -8.464050            -3.263168            -0.428365
| 38>   H                      -6.375784            -3.424887            0.682798
| 39>   H                      -6.358553            -3.812381            -1.019314
| 40>   H                      -5.921900            -2.184792            -0.507281
| 41>   C                    : -7.895082            -0.450816            -3.438418
| 42>   O                    : -6.790914            -1.236352            -2.968042
| 43>   H                    : -6.962837            -1.616194            -2.049960
| 44>   H                    : -8.781143            -1.121909            -3.639668
| 45>   H                    : -8.113031            0.359831             -2.751344
| 46>   H                    : -7.681932            -0.008726            -4.411791
| 47> *
| 48>
| 49> #Run DFT-D3 single point of the particle with dimer basis set
| 50> $new_job
| 51> %base "17-195_DFT_B"
| 52> ! wB97X-D3 def2-TZVP TIGHTSCF CHELPG PMODEL
| 53>
| 54> %scf
| 55> MaxIter 1000
| 56> end
| 57>
| 58> * xyz 0 1
| 59>   C                    : -6.565968            -3.021015            -0.286961
| 60>   O                    : -7.870317            -2.524230            -0.457635
| 61>   H                    : -8.464050            -3.263168            -0.428365
| 62>   H                    : -6.375784            -3.424887            0.682798
| 63>   H                    : -6.358553            -3.812381            -1.019314
| 64>   H                    : -5.921900            -2.184792            -0.507281
| 65>   C                      -7.895082            -0.450816            -3.438418
| 66>   O                      -6.790914            -1.236352            -2.968042
| 67>   H                      -6.962837            -1.616194            -2.049960
| 68>   H                      -8.781143            -1.121909            -3.639668
| 69>   H                      -8.113031            0.359831             -2.751344
| 70>   H                      -7.681932            -0.008726            -4.411791
| 71> *
| 72>
| 73>                          ****END OF INPUT****
 Total Charge           Charge          ....    0
 Multiplicity           Mult            ....    1
 Number of Electrons    NEL             ....   36
Dispersion correction           -0.001860385
FINAL SINGLE POINT ENERGY      -231.473986322171
Dispersion correction           -0.000224002
FINAL SINGLE POINT ENERGY      -115.736585121895

CARTESIAN COORDINATES (ANGSTROEM)
---------------------------------
  C     -6.565968   -3.021015   -0.286961
  O     -7.870317   -2.524230   -0.457635
  H     -8.464050   -3.263168   -0.428365
  H     -6.375784   -3.424887    0.682798
  H     -6.358553   -3.812381   -1.019314
  H     -5.921900   -2.184792   -0.507281
  C     -7.895082   -0.450816   -3.438418
  O     -6.790914   -1.236352   -2.968042
  H     -6.962837   -1.616194   -2.049960
  H     -8.781143   -1.121909   -3.639668
  H     -8.113031    0.359831   -2.751344
  H     -7.681932   -0.008726   -4.411791

 Multiplicity           Mult            ....    1
 Number of Electrons    NEL             ....   18
 Basis Dimension        Dim             ....  172

ORBITAL ENERGIES
----------------

  NO   OCC          E(Eh)            E(eV)
   0   2.0000     -19.232750      -523.3497
   1   2.0000     -10.317557      -280.7550
   2   2.0000      -1.118696       -30.4413
   3   2.0000      -0.792527       -21.5657
   4   2.0000      -0.597845       -16.2682
   5   2.0000      -0.542799       -14.7703
   6   2.0000      -0.525394       -14.2967
   7   2.0000      -0.424480       -11.5507
   8   2.0000      -0.373124       -10.1532
   9   0.0000       0.070007         1.9050
  10   0.0000       0.134058         3.6479
  11   0.0000       0.152769         4.1571
  12   0.0000       0.166427         4.5287
  13   0.0000       0.187341         5.0978

MULLIKEN ATOMIC CHARGES
-----------------------
   0 C :    0.000434
   1 O :   -0.003763
   2 H :   -0.000286
   3 H :    0.000399
   4 H :   -0.000140
   5 H :   -0.004184
   6 C :   -0.158545
   7 O :   -0.485044
   8 H :    0.316728
   9 H :    0.102088
  10 H :    0.110132
  11 H :    0.122180
Sum of atomic charges:   -0.0000000

LOEWDIN ATOMIC CHARGES
----------------------
   0 C :   -0.017557
   1 O :   -0.013393
   2 H :   -0.000850
   3 H :   -0.000188
   4 H :   -0.001413
   5 H :   -0.006244
   6 C :   -0.373781
   7 O :   -0.101358
   8 H :    0.210302
   9 H :    0.102489
  10 H :    0.094271
  11 H :    0.107722

  Mayer bond orders larger than 0.1
B(  6-C ,  7-O ) :   0.9890 B(  6-C ,  9-H ) :   0.9767 B(  6-C , 10-H ) :   0.9765
B(  6-C , 11-H ) :   0.9709 B(  7-O ,  8-H ) :   0.8953

Dispersion correction           -0.000265219
FINAL SINGLE POINT ENERGY      -115.732679214226

DIPOLE MOMENT
-------------
                                X             Y             Z
Electronic contribution:      1.47246      -0.87706       0.48966
Nuclear contribution   :     -2.02687       0.98764      -0.13946
                        -----------------------------------------
Total Dipole Moment    :     -0.55441       0.11059       0.35020
                        -----------------------------------------
Magnitude (a.u.)       :      0.66501
Magnitude (Debye)      :      1.69031

Rotational constants in cm-1:     4.215488     0.799062     0.778904
Rotational constants in MHz : 126377.164935 23955.266502 23350.940537

                             ****ORCA TERMINATED NORMALLY****
TOTAL RUN TIME: 0 days 0 hours 1 minutes 13 seconds 28 msec
