                         Program Version 4.1.2  - RELEASE  -
|  1> #Run DFT-D3 single point of the dimer
|  2> ! wB97X-D3 def2-TZVP TIGHTSCF CHELPG PMODEL PAL8
|  3>
|  4> %base "22-46_DFT_AB"
|  5>
|  6> %scf
|  7> MaxIter 1000
|  8> end
|  9>
| 10> * xyz 0 1
| 11>   C                      3.346385             5.166609             -0.324777
| 12>   O                      4.605433             4.856927             -0.851271
| 13>   H                      4.735588             5.658297             -1.389277
| 14>   H                      2.939554             4.225934             -0.016089
| 15>   H                      3.411675             5.727115             0.579502
| 16>   H                      2.613158             5.716876             -1.000328
| 17>   C                      2.918165             5.299627             -5.197540
| 18>   O                      3.253149             4.996970             -6.525041
| 19>   H                      2.408468             4.743285             -6.901671
| 20>   H                      2.596880             6.344915             -4.937334
| 21>   H                      2.037394             4.738800             -4.948837
| 22>   H                      3.780129             5.006225             -4.529170
| 23> *
| 24>
| 25> #Run DFT-D3 single point of the molecule with dimer basis set
| 26> $new_job
| 27> %base "22-46_DFT_A"
| 28> ! wB97X-D3 def2-TZVP TIGHTSCF CHELPG PMODEL
| 29>
| 30> %scf
| 31> MaxIter 1000
| 32> end
| 33>
| 34> * xyz 0 1
| 35>   C                      3.346385             5.166609             -0.324777
| 36>   O                      4.605433             4.856927             -0.851271
| 37>   H                      4.735588             5.658297             -1.389277
| 38>   H                      2.939554             4.225934             -0.016089
| 39>   H                      3.411675             5.727115             0.579502
| 40>   H                      2.613158             5.716876             -1.000328
| 41>   C                    : 2.918165             5.299627             -5.197540
| 42>   O                    : 3.253149             4.996970             -6.525041
| 43>   H                    : 2.408468             4.743285             -6.901671
| 44>   H                    : 2.596880             6.344915             -4.937334
| 45>   H                    : 2.037394             4.738800             -4.948837
| 46>   H                    : 3.780129             5.006225             -4.529170
| 47> *
| 48>
| 49> #Run DFT-D3 single point of the particle with dimer basis set
| 50> $new_job
| 51> %base "22-46_DFT_B"
| 52> ! wB97X-D3 def2-TZVP TIGHTSCF CHELPG PMODEL
| 53>
| 54> %scf
| 55> MaxIter 1000
| 56> end
| 57>
| 58> * xyz 0 1
| 59>   C                    : 3.346385             5.166609             -0.324777
| 60>   O                    : 4.605433             4.856927             -0.851271
| 61>   H                    : 4.735588             5.658297             -1.389277
| 62>   H                    : 2.939554             4.225934             -0.016089
| 63>   H                    : 3.411675             5.727115             0.579502
| 64>   H                    : 2.613158             5.716876             -1.000328
| 65>   C                      2.918165             5.299627             -5.197540
| 66>   O                      3.253149             4.996970             -6.525041
| 67>   H                      2.408468             4.743285             -6.901671
| 68>   H                      2.596880             6.344915             -4.937334
| 69>   H                      2.037394             4.738800             -4.948837
| 70>   H                      3.780129             5.006225             -4.529170
| 71> *
| 72>
| 73>                          ****END OF INPUT****
 Total Charge           Charge          ....    0
 Multiplicity           Mult            ....    1
 Number of Electrons    NEL             ....   36
Dispersion correction           -0.000949989
FINAL SINGLE POINT ENERGY      -231.460041666773
Dispersion correction           -0.000224358
FINAL SINGLE POINT ENERGY      -115.729440721840

CARTESIAN COORDINATES (ANGSTROEM)
---------------------------------
  C      3.346385    5.166609   -0.324777
  O      4.605433    4.856927   -0.851271
  H      4.735588    5.658297   -1.389277
  H      2.939554    4.225934   -0.016089
  H      3.411675    5.727115    0.579502
  H      2.613158    5.716876   -1.000328
  C      2.918165    5.299627   -5.197540
  O      3.253149    4.996970   -6.525041
  H      2.408468    4.743285   -6.901671
  H      2.596880    6.344915   -4.937334
  H      2.037394    4.738800   -4.948837
  H      3.780129    5.006225   -4.529170

 Multiplicity           Mult            ....    1
 Number of Electrons    NEL             ....   18
 Basis Dimension        Dim             ....  172

ORBITAL ENERGIES
----------------

  NO   OCC          E(Eh)            E(eV)
   0   2.0000     -19.234289      -523.3916
   1   2.0000     -10.317227      -280.7460
   2   2.0000      -1.146294       -31.1923
   3   2.0000      -0.789570       -21.4853
   4   2.0000      -0.620410       -16.8822
   5   2.0000      -0.535148       -14.5621
   6   2.0000      -0.527018       -14.3409
   7   2.0000      -0.440009       -11.9732
   8   2.0000      -0.372916       -10.1476
   9   0.0000       0.082024         2.2320
  10   0.0000       0.111430         3.0322
  11   0.0000       0.144594         3.9346
  12   0.0000       0.164533         4.4772
  13   0.0000       0.193565         5.2672

MULLIKEN ATOMIC CHARGES
-----------------------
   0 C :   -0.000185
   1 O :    0.000028
   2 H :   -0.000129
   3 H :    0.000016
   4 H :    0.000003
   5 H :    0.000125
   6 C :   -0.173325
   7 O :   -0.454639
   8 H :    0.316217
   9 H :    0.092458
  10 H :    0.100923
  11 H :    0.118510
Sum of atomic charges:   -0.0000000

LOEWDIN ATOMIC CHARGES
----------------------
   0 C :   -0.000178
   1 O :   -0.000080
   2 H :   -0.000351
   3 H :   -0.000003
   4 H :   -0.000003
   5 H :   -0.000056
   6 C :   -0.407379
   7 O :   -0.065175
   8 H :    0.173261
   9 H :    0.096751
  10 H :    0.090284
  11 H :    0.112928

  Mayer bond orders larger than 0.1
B(  6-C ,  7-O ) :   1.0161 B(  6-C ,  9-H ) :   0.9599 B(  6-C , 10-H ) :   0.9923
B(  6-C , 11-H ) :   0.9757 B(  7-O ,  8-H ) :   0.9018

Dispersion correction           -0.000240727
FINAL SINGLE POINT ENERGY      -115.730171642201

DIPOLE MOMENT
-------------
                                X             Y             Z
Electronic contribution:      0.64144      -0.34427      -1.79216
Nuclear contribution   :     -1.32174       0.26546       2.04577
                        -----------------------------------------
Total Dipole Moment    :     -0.68030      -0.07880       0.25361
                        -----------------------------------------
Magnitude (a.u.)       :      0.73030
Magnitude (Debye)      :      1.85626

Rotational constants in cm-1:     4.228700     0.845924     0.806632
Rotational constants in MHz : 126773.222769 25360.153991 24182.231253

                             ****ORCA TERMINATED NORMALLY****
TOTAL RUN TIME: 0 days 0 hours 0 minutes 59 seconds 503 msec
