                         Program Version 4.1.2  - RELEASE  -
|  1> #Run DFT-D3 single point of the dimer
|  2> ! wB97X-D3 def2-TZVP TIGHTSCF CHELPG PMODEL PAL8
|  3>
|  4> %base "19-1_DFT_AB"
|  5>
|  6> %scf
|  7> MaxIter 1000
|  8> end
|  9>
| 10> * xyz 0 1
| 11>   C                      4.218830             -7.367409            10.092198
| 12>   O                      4.342444             -8.557732            10.803951
| 13>   H                      4.070487             -8.609899            11.692965
| 14>   H                      3.801504             -7.551489            9.084576
| 15>   H                      3.484433             -6.691170            10.435203
| 16>   H                      5.199852             -6.817999            10.009492
| 17>   C                      2.254314             -3.277744            9.060280
| 18>   O                      1.640389             -4.540750            8.796992
| 19>   H                      1.402713             -4.529007            7.885413
| 20>   H                      2.992467             -3.018373            8.293263
| 21>   H                      1.466970             -2.474905            9.159412
| 22>   H                      2.721805             -3.280190            10.014671
| 23> *
| 24>
| 25> #Run DFT-D3 single point of the molecule with dimer basis set
| 26> $new_job
| 27> %base "19-1_DFT_A"
| 28> ! wB97X-D3 def2-TZVP TIGHTSCF CHELPG PMODEL
| 29>
| 30> %scf
| 31> MaxIter 1000
| 32> end
| 33>
| 34> * xyz 0 1
| 35>   C                      4.218830             -7.367409            10.092198
| 36>   O                      4.342444             -8.557732            10.803951
| 37>   H                      4.070487             -8.609899            11.692965
| 38>   H                      3.801504             -7.551489            9.084576
| 39>   H                      3.484433             -6.691170            10.435203
| 40>   H                      5.199852             -6.817999            10.009492
| 41>   C                    : 2.254314             -3.277744            9.060280
| 42>   O                    : 1.640389             -4.540750            8.796992
| 43>   H                    : 1.402713             -4.529007            7.885413
| 44>   H                    : 2.992467             -3.018373            8.293263
| 45>   H                    : 1.466970             -2.474905            9.159412
| 46>   H                    : 2.721805             -3.280190            10.014671
| 47> *
| 48>
| 49> #Run DFT-D3 single point of the particle with dimer basis set
| 50> $new_job
| 51> %base "19-1_DFT_B"
| 52> ! wB97X-D3 def2-TZVP TIGHTSCF CHELPG PMODEL
| 53>
| 54> %scf
| 55> MaxIter 1000
| 56> end
| 57>
| 58> * xyz 0 1
| 59>   C                    : 4.218830             -7.367409            10.092198
| 60>   O                    : 4.342444             -8.557732            10.803951
| 61>   H                    : 4.070487             -8.609899            11.692965
| 62>   H                    : 3.801504             -7.551489            9.084576
| 63>   H                    : 3.484433             -6.691170            10.435203
| 64>   H                    : 5.199852             -6.817999            10.009492
| 65>   C                      2.254314             -3.277744            9.060280
| 66>   O                      1.640389             -4.540750            8.796992
| 67>   H                      1.402713             -4.529007            7.885413
| 68>   H                      2.992467             -3.018373            8.293263
| 69>   H                      1.466970             -2.474905            9.159412
| 70>   H                      2.721805             -3.280190            10.014671
| 71> *
| 72>
| 73>                          ****END OF INPUT****
 Total Charge           Charge          ....    0
 Multiplicity           Mult            ....    1
 Number of Electrons    NEL             ....   36
Dispersion correction           -0.001169288
FINAL SINGLE POINT ENERGY      -231.464745180648
Dispersion correction           -0.000273839
FINAL SINGLE POINT ENERGY      -115.728202671171

CARTESIAN COORDINATES (ANGSTROEM)
---------------------------------
  C      4.218830   -7.367409   10.092198
  O      4.342444   -8.557732   10.803951
  H      4.070487   -8.609899   11.692965
  H      3.801504   -7.551489    9.084576
  H      3.484433   -6.691170   10.435203
  H      5.199852   -6.817999   10.009492
  C      2.254314   -3.277744    9.060280
  O      1.640389   -4.540750    8.796992
  H      1.402713   -4.529007    7.885413
  H      2.992467   -3.018373    8.293263
  H      1.466970   -2.474905    9.159412
  H      2.721805   -3.280190   10.014671

 Multiplicity           Mult            ....    1
 Number of Electrons    NEL             ....   18
 Basis Dimension        Dim             ....  172

ORBITAL ENERGIES
----------------

  NO   OCC          E(Eh)            E(eV)
   0   2.0000     -19.229693      -523.2665
   1   2.0000     -10.315263      -280.6926
   2   2.0000      -1.137003       -30.9394
   3   2.0000      -0.797506       -21.7012
   4   2.0000      -0.607921       -16.5424
   5   2.0000      -0.540640       -14.7116
   6   2.0000      -0.529570       -14.4103
   7   2.0000      -0.438170       -11.9232
   8   2.0000      -0.374394       -10.1878
   9   0.0000       0.094114         2.5610
  10   0.0000       0.119179         3.2430
  11   0.0000       0.153132         4.1669
  12   0.0000       0.172078         4.6825
  13   0.0000       0.193046         5.2531

MULLIKEN ATOMIC CHARGES
-----------------------
   0 C :    0.000835
   1 O :   -0.000054
   2 H :   -0.000012
   3 H :   -0.001715
   4 H :   -0.002290
   5 H :   -0.000092
   6 C :   -0.170749
   7 O :   -0.468205
   8 H :    0.310243
   9 H :    0.108054
  10 H :    0.098562
  11 H :    0.125422
Sum of atomic charges:   -0.0000000

LOEWDIN ATOMIC CHARGES
----------------------
   0 C :   -0.002038
   1 O :   -0.000019
   2 H :   -0.000003
   3 H :   -0.000792
   4 H :   -0.001661
   5 H :   -0.000023
   6 C :   -0.374701
   7 O :   -0.076303
   8 H :    0.156659
   9 H :    0.096668
  10 H :    0.101230
  11 H :    0.100981

  Mayer bond orders larger than 0.1
B(  6-C ,  7-O ) :   0.9950 B(  6-C ,  9-H ) :   0.9764 B(  6-C , 10-H ) :   0.9741
B(  6-C , 11-H ) :   0.9753 B(  7-O ,  8-H ) :   0.9050

Dispersion correction           -0.000242124
FINAL SINGLE POINT ENERGY      -115.735052130310

DIPOLE MOMENT
-------------
                                X             Y             Z
Electronic contribution:     -0.68080      -1.68806      -0.22038
Nuclear contribution   :      0.79065       2.20028      -0.23676
                        -----------------------------------------
Total Dipole Moment    :      0.10985       0.51221      -0.45713
                        -----------------------------------------
Magnitude (a.u.)       :      0.69527
Magnitude (Debye)      :      1.76724

Rotational constants in cm-1:     4.293434     0.816930     0.793186
Rotational constants in MHz : 128713.917926 24490.950972 23779.106740

                             ****ORCA TERMINATED NORMALLY****
TOTAL RUN TIME: 0 days 0 hours 0 minutes 50 seconds 77 msec
