                         Program Version 4.1.2  - RELEASE  -
|  1> #Run DFT-D3 single point of the dimer
|  2> ! wB97X-D3 def2-TZVP TIGHTSCF CHELPG PMODEL PAL8
|  3>
|  4> %base "21-144_DFT_AB"
|  5>
|  6> %scf
|  7> MaxIter 1000
|  8> end
|  9>
| 10> * xyz 0 1
| 11>   C                      -11.360513           -4.988932            10.155280
| 12>   O                      -10.179895           -4.238770            9.889559
| 13>   H                      -9.574826            -4.367479            10.673142
| 14>   H                      -11.970159           -4.556816            10.844982
| 15>   H                      -11.964634           -5.014202            9.266007
| 16>   H                      -11.106354           -6.083415            10.414838
| 17>   C                      -6.767604            -2.303085            9.470767
| 18>   O                      -7.417140            -3.417160            10.135505
| 19>   H                      -7.310689            -3.242921            11.064672
| 20>   H                      -5.714070            -2.228165            9.764882
| 21>   H                      -6.698954            -2.457698            8.384943
| 22>   H                      -7.079861            -1.301568            9.764304
| 23> *
| 24>
| 25> #Run DFT-D3 single point of the molecule with dimer basis set
| 26> $new_job
| 27> %base "21-144_DFT_A"
| 28> ! wB97X-D3 def2-TZVP TIGHTSCF CHELPG PMODEL
| 29>
| 30> %scf
| 31> MaxIter 1000
| 32> end
| 33>
| 34> * xyz 0 1
| 35>   C                      -11.360513           -4.988932            10.155280
| 36>   O                      -10.179895           -4.238770            9.889559
| 37>   H                      -9.574826            -4.367479            10.673142
| 38>   H                      -11.970159           -4.556816            10.844982
| 39>   H                      -11.964634           -5.014202            9.266007
| 40>   H                      -11.106354           -6.083415            10.414838
| 41>   C                    : -6.767604            -2.303085            9.470767
| 42>   O                    : -7.417140            -3.417160            10.135505
| 43>   H                    : -7.310689            -3.242921            11.064672
| 44>   H                    : -5.714070            -2.228165            9.764882
| 45>   H                    : -6.698954            -2.457698            8.384943
| 46>   H                    : -7.079861            -1.301568            9.764304
| 47> *
| 48>
| 49> #Run DFT-D3 single point of the particle with dimer basis set
| 50> $new_job
| 51> %base "21-144_DFT_B"
| 52> ! wB97X-D3 def2-TZVP TIGHTSCF CHELPG PMODEL
| 53>
| 54> %scf
| 55> MaxIter 1000
| 56> end
| 57>
| 58> * xyz 0 1
| 59>   C                    : -11.360513           -4.988932            10.155280
| 60>   O                    : -10.179895           -4.238770            9.889559
| 61>   H                    : -9.574826            -4.367479            10.673142
| 62>   H                    : -11.970159           -4.556816            10.844982
| 63>   H                    : -11.964634           -5.014202            9.266007
| 64>   H                    : -11.106354           -6.083415            10.414838
| 65>   C                      -6.767604            -2.303085            9.470767
| 66>   O                      -7.417140            -3.417160            10.135505
| 67>   H                      -7.310689            -3.242921            11.064672
| 68>   H                      -5.714070            -2.228165            9.764882
| 69>   H                      -6.698954            -2.457698            8.384943
| 70>   H                      -7.079861            -1.301568            9.764304
| 71> *
| 72>
| 73>                          ****END OF INPUT****
 Total Charge           Charge          ....    0
 Multiplicity           Mult            ....    1
 Number of Electrons    NEL             ....   36
Dispersion correction           -0.001305068
FINAL SINGLE POINT ENERGY      -231.457912292042
Dispersion correction           -0.000244550
FINAL SINGLE POINT ENERGY      -115.728870721006

CARTESIAN COORDINATES (ANGSTROEM)
---------------------------------
  C    -11.360513   -4.988932   10.155280
  O    -10.179895   -4.238770    9.889559
  H     -9.574826   -4.367479   10.673142
  H    -11.970159   -4.556816   10.844982
  H    -11.964634   -5.014202    9.266007
  H    -11.106354   -6.083415   10.414838
  C     -6.767604   -2.303085    9.470767
  O     -7.417140   -3.417160   10.135505
  H     -7.310689   -3.242921   11.064672
  H     -5.714070   -2.228165    9.764882
  H     -6.698954   -2.457698    8.384943
  H     -7.079861   -1.301568    9.764304

 Multiplicity           Mult            ....    1
 Number of Electrons    NEL             ....   18
 Basis Dimension        Dim             ....  172

ORBITAL ENERGIES
----------------

  NO   OCC          E(Eh)            E(eV)
   0   2.0000     -19.234802      -523.4056
   1   2.0000     -10.317876      -280.7637
   2   2.0000      -1.131229       -30.7823
   3   2.0000      -0.799818       -21.7642
   4   2.0000      -0.612466       -16.6660
   5   2.0000      -0.532984       -14.5032
   6   2.0000      -0.518644       -14.1130
   7   2.0000      -0.447674       -12.1818
   8   2.0000      -0.374018       -10.1775
   9   0.0000       0.097360         2.6493
  10   0.0000       0.117557         3.1989
  11   0.0000       0.147801         4.0219
  12   0.0000       0.197574         5.3763
  13   0.0000       0.199171         5.4197

MULLIKEN ATOMIC CHARGES
-----------------------
   0 C :    0.001450
   1 O :    0.002083
   2 H :   -0.011817
   3 H :   -0.000159
   4 H :    0.000063
   5 H :   -0.000015
   6 C :   -0.185994
   7 O :   -0.461666
   8 H :    0.313748
   9 H :    0.103728
  10 H :    0.132398
  11 H :    0.106182
Sum of atomic charges:    0.0000000

LOEWDIN ATOMIC CHARGES
----------------------
   0 C :   -0.000443
   1 O :   -0.009573
   2 H :   -0.014936
   3 H :   -0.000019
   4 H :   -0.000013
   5 H :   -0.000010
   6 C :   -0.368883
   7 O :   -0.073424
   8 H :    0.163739
   9 H :    0.096826
  10 H :    0.112533
  11 H :    0.094202

  Mayer bond orders larger than 0.1
B(  6-C ,  7-O ) :   0.9948 B(  6-C ,  9-H ) :   0.9747 B(  6-C , 10-H ) :   0.9744
B(  6-C , 11-H ) :   0.9683 B(  7-O ,  8-H ) :   0.9010

Dispersion correction           -0.000258254
FINAL SINGLE POINT ENERGY      -115.730543655894

DIPOLE MOMENT
-------------
                                X             Y             Z
Electronic contribution:     -1.05512      -1.49826       0.65937
Nuclear contribution   :      1.43099       2.06451      -0.34252
                        -----------------------------------------
Total Dipole Moment    :      0.37588       0.56626       0.31685
                        -----------------------------------------
Magnitude (a.u.)       :      0.74988
Magnitude (Debye)      :      1.90604

Rotational constants in cm-1:     4.393070     0.797007     0.757870
Rotational constants in MHz : 131700.929121 23893.678665 22720.380699

                             ****ORCA TERMINATED NORMALLY****
TOTAL RUN TIME: 0 days 0 hours 1 minutes 3 seconds 926 msec
