                         Program Version 4.1.2  - RELEASE  -
|  1> #Run DFT-D3 single point of the dimer
|  2> ! wB97X-D3 def2-TZVP TIGHTSCF CHELPG PMODEL PAL8
|  3>
|  4> %base "14-145_DFT_AB"
|  5>
|  6> %scf
|  7> MaxIter 1000
|  8> end
|  9>
| 10> * xyz 0 1
| 11>   C                      -6.355175            4.803348             -0.633554
| 12>   O                      -6.165207            4.170899             0.606047
| 13>   H                      -6.825564            3.483296             0.638373
| 14>   H                      -7.380405            5.187809             -0.791474
| 15>   H                      -5.628031            5.602576             -0.976239
| 16>   H                      -6.191720            4.108695             -1.435763
| 17>   C                      -2.840755            1.790081             4.849280
| 18>   O                      -3.261402            2.430331             3.688256
| 19>   H                      -2.835591            2.040422             2.929583
| 20>   H                      -2.965424            2.424616             5.735777
| 21>   H                      -3.350182            0.846980             4.907622
| 22>   H                      -1.782119            1.563027             4.781430
| 23> *
| 24>
| 25> #Run DFT-D3 single point of the molecule with dimer basis set
| 26> $new_job
| 27> %base "14-145_DFT_A"
| 28> ! wB97X-D3 def2-TZVP TIGHTSCF CHELPG PMODEL
| 29>
| 30> %scf
| 31> MaxIter 1000
| 32> end
| 33>
| 34> * xyz 0 1
| 35>   C                      -6.355175            4.803348             -0.633554
| 36>   O                      -6.165207            4.170899             0.606047
| 37>   H                      -6.825564            3.483296             0.638373
| 38>   H                      -7.380405            5.187809             -0.791474
| 39>   H                      -5.628031            5.602576             -0.976239
| 40>   H                      -6.191720            4.108695             -1.435763
| 41>   C                    : -2.840755            1.790081             4.849280
| 42>   O                    : -3.261402            2.430331             3.688256
| 43>   H                    : -2.835591            2.040422             2.929583
| 44>   H                    : -2.965424            2.424616             5.735777
| 45>   H                    : -3.350182            0.846980             4.907622
| 46>   H                    : -1.782119            1.563027             4.781430
| 47> *
| 48>
| 49> #Run DFT-D3 single point of the particle with dimer basis set
| 50> $new_job
| 51> %base "14-145_DFT_B"
| 52> ! wB97X-D3 def2-TZVP TIGHTSCF CHELPG PMODEL
| 53>
| 54> %scf
| 55> MaxIter 1000
| 56> end
| 57>
| 58> * xyz 0 1
| 59>   C                    : -6.355175            4.803348             -0.633554
| 60>   O                    : -6.165207            4.170899             0.606047
| 61>   H                    : -6.825564            3.483296             0.638373
| 62>   H                    : -7.380405            5.187809             -0.791474
| 63>   H                    : -5.628031            5.602576             -0.976239
| 64>   H                    : -6.191720            4.108695             -1.435763
| 65>   C                      -2.840755            1.790081             4.849280
| 66>   O                      -3.261402            2.430331             3.688256
| 67>   H                      -2.835591            2.040422             2.929583
| 68>   H                      -2.965424            2.424616             5.735777
| 69>   H                      -3.350182            0.846980             4.907622
| 70>   H                      -1.782119            1.563027             4.781430
| 71> *
| 72>
| 73>                          ****END OF INPUT****
 Total Charge           Charge          ....    0
 Multiplicity           Mult            ....    1
 Number of Electrons    NEL             ....   36
Dispersion correction           -0.000581330
FINAL SINGLE POINT ENERGY      -231.461956257597
Dispersion correction           -0.000243351
FINAL SINGLE POINT ENERGY      -115.728645930953

CARTESIAN COORDINATES (ANGSTROEM)
---------------------------------
  C     -6.355175    4.803348   -0.633554
  O     -6.165207    4.170899    0.606047
  H     -6.825564    3.483296    0.638373
  H     -7.380405    5.187809   -0.791474
  H     -5.628031    5.602576   -0.976239
  H     -6.191720    4.108695   -1.435763
  C     -2.840755    1.790081    4.849280
  O     -3.261402    2.430331    3.688256
  H     -2.835591    2.040422    2.929583
  H     -2.965424    2.424616    5.735777
  H     -3.350182    0.846980    4.907622
  H     -1.782119    1.563027    4.781430

 Multiplicity           Mult            ....    1
 Number of Electrons    NEL             ....   18
 Basis Dimension        Dim             ....  172

ORBITAL ENERGIES
----------------

  NO   OCC          E(Eh)            E(eV)
   0   2.0000     -19.225136      -523.1426
   1   2.0000     -10.307614      -280.4844
   2   2.0000      -1.142158       -31.0797
   3   2.0000      -0.796238       -21.6668
   4   2.0000      -0.615927       -16.7602
   5   2.0000      -0.550909       -14.9910
   6   2.0000      -0.529112       -14.3979
   7   2.0000      -0.428448       -11.6587
   8   2.0000      -0.370136       -10.0719
   9   0.0000       0.090068         2.4509
  10   0.0000       0.115207         3.1349
  11   0.0000       0.157384         4.2826
  12   0.0000       0.171849         4.6763
  13   0.0000       0.200726         5.4620

MULLIKEN ATOMIC CHARGES
-----------------------
   0 C :   -0.000031
   1 O :   -0.000058
   2 H :   -0.000054
   3 H :    0.000001
   4 H :    0.000001
   5 H :    0.000001
   6 C :   -0.150410
   7 O :   -0.479424
   8 H :    0.315657
   9 H :    0.118347
  10 H :    0.099083
  11 H :    0.096887
Sum of atomic charges:   -0.0000000

LOEWDIN ATOMIC CHARGES
----------------------
   0 C :   -0.000006
   1 O :   -0.000055
   2 H :   -0.000039
   3 H :   -0.000000
   4 H :   -0.000000
   5 H :   -0.000000
   6 C :   -0.395338
   7 O :   -0.063059
   8 H :    0.165776
   9 H :    0.109307
  10 H :    0.091048
  11 H :    0.092367

  Mayer bond orders larger than 0.1
B(  6-C ,  7-O ) :   0.9928 B(  6-C ,  9-H ) :   0.9695 B(  6-C , 10-H ) :   0.9806
B(  6-C , 11-H ) :   0.9859 B(  7-O ,  8-H ) :   0.8981

Dispersion correction           -0.000215847
FINAL SINGLE POINT ENERGY      -115.734058285267

DIPOLE MOMENT
-------------
                                X             Y             Z
Electronic contribution:     -0.67382       0.92546      -1.34665
Nuclear contribution   :      1.13729      -1.42877       1.31224
                        -----------------------------------------
Total Dipole Moment    :      0.46348      -0.50331      -0.03441
                        -----------------------------------------
Magnitude (a.u.)       :      0.68507
Magnitude (Debye)      :      1.74131

Rotational constants in cm-1:     4.346932     0.859082     0.826980
Rotational constants in MHz : 130317.751008 25754.634279 24792.226280

                             ****ORCA TERMINATED NORMALLY****
TOTAL RUN TIME: 0 days 0 hours 1 minutes 1 seconds 252 msec
