                         Program Version 4.1.2  - RELEASE  -
|  1> #Run DFT-D3 single point of the dimer
|  2> ! wB97X-D3 def2-TZVP TIGHTSCF CHELPG PMODEL PAL8
|  3>
|  4> %base "10-15_DFT_AB"
|  5>
|  6> %scf
|  7> MaxIter 1000
|  8> end
|  9>
| 10> * xyz 0 1
| 11>   C                      -8.336969            -4.600054            6.961619
| 12>   O                      -7.406997            -4.718792            5.976221
| 13>   H                      -6.557219            -5.068828            6.345814
| 14>   H                      -9.026821            -3.757067            6.800029
| 15>   H                      -9.068774            -5.485411            6.969378
| 16>   H                      -7.848887            -4.496328            7.950912
| 17>   C                      -5.166520            -2.157854            5.731922
| 18>   O                      -4.352424            -2.878573            4.845293
| 19>   H                      -4.531012            -2.479481            4.001761
| 20>   H                      -6.255409            -2.274834            5.542018
| 21>   H                      -4.978157            -2.425634            6.797351
| 22>   H                      -5.056658            -1.138531            5.729317
| 23> *
| 24>
| 25> #Run DFT-D3 single point of the molecule with dimer basis set
| 26> $new_job
| 27> %base "10-15_DFT_A"
| 28> ! wB97X-D3 def2-TZVP TIGHTSCF CHELPG PMODEL
| 29>
| 30> %scf
| 31> MaxIter 1000
| 32> end
| 33>
| 34> * xyz 0 1
| 35>   C                      -8.336969            -4.600054            6.961619
| 36>   O                      -7.406997            -4.718792            5.976221
| 37>   H                      -6.557219            -5.068828            6.345814
| 38>   H                      -9.026821            -3.757067            6.800029
| 39>   H                      -9.068774            -5.485411            6.969378
| 40>   H                      -7.848887            -4.496328            7.950912
| 41>   C                    : -5.166520            -2.157854            5.731922
| 42>   O                    : -4.352424            -2.878573            4.845293
| 43>   H                    : -4.531012            -2.479481            4.001761
| 44>   H                    : -6.255409            -2.274834            5.542018
| 45>   H                    : -4.978157            -2.425634            6.797351
| 46>   H                    : -5.056658            -1.138531            5.729317
| 47> *
| 48>
| 49> #Run DFT-D3 single point of the particle with dimer basis set
| 50> $new_job
| 51> %base "10-15_DFT_B"
| 52> ! wB97X-D3 def2-TZVP TIGHTSCF CHELPG PMODEL
| 53>
| 54> %scf
| 55> MaxIter 1000
| 56> end
| 57>
| 58> * xyz 0 1
| 59>   C                    : -8.336969            -4.600054            6.961619
| 60>   O                    : -7.406997            -4.718792            5.976221
| 61>   H                    : -6.557219            -5.068828            6.345814
| 62>   H                    : -9.026821            -3.757067            6.800029
| 63>   H                    : -9.068774            -5.485411            6.969378
| 64>   H                    : -7.848887            -4.496328            7.950912
| 65>   C                      -5.166520            -2.157854            5.731922
| 66>   O                      -4.352424            -2.878573            4.845293
| 67>   H                      -4.531012            -2.479481            4.001761
| 68>   H                      -6.255409            -2.274834            5.542018
| 69>   H                      -4.978157            -2.425634            6.797351
| 70>   H                      -5.056658            -1.138531            5.729317
| 71> *
| 72>
| 73>                          ****END OF INPUT****
 Total Charge           Charge          ....    0
 Multiplicity           Mult            ....    1
 Number of Electrons    NEL             ....   36
Dispersion correction           -0.001760457
FINAL SINGLE POINT ENERGY      -231.463056070960
Dispersion correction           -0.000243979
FINAL SINGLE POINT ENERGY      -115.730995959048

CARTESIAN COORDINATES (ANGSTROEM)
---------------------------------
  C     -8.336969   -4.600054    6.961619
  O     -7.406997   -4.718792    5.976221
  H     -6.557219   -5.068828    6.345814
  H     -9.026821   -3.757067    6.800029
  H     -9.068774   -5.485411    6.969378
  H     -7.848887   -4.496328    7.950912
  C     -5.166520   -2.157854    5.731922
  O     -4.352424   -2.878573    4.845293
  H     -4.531012   -2.479481    4.001761
  H     -6.255409   -2.274834    5.542018
  H     -4.978157   -2.425634    6.797351
  H     -5.056658   -1.138531    5.729317

 Multiplicity           Mult            ....    1
 Number of Electrons    NEL             ....   18
 Basis Dimension        Dim             ....  172

ORBITAL ENERGIES
----------------

  NO   OCC          E(Eh)            E(eV)
   0   2.0000     -19.235054      -523.4124
   1   2.0000     -10.308242      -280.5015
   2   2.0000      -1.146534       -31.1988
   3   2.0000      -0.800381       -21.7795
   4   2.0000      -0.621522       -16.9125
   5   2.0000      -0.539887       -14.6911
   6   2.0000      -0.526635       -14.3305
   7   2.0000      -0.441316       -12.0088
   8   2.0000      -0.375785       -10.2256
   9   0.0000       0.086605         2.3566
  10   0.0000       0.119528         3.2525
  11   0.0000       0.155395         4.2285
  12   0.0000       0.170281         4.6336
  13   0.0000       0.183746         5.0000

MULLIKEN ATOMIC CHARGES
-----------------------
   0 C :   -0.000019
   1 O :    0.000744
   2 H :    0.000180
   3 H :   -0.000321
   4 H :   -0.000047
   5 H :   -0.000112
   6 C :   -0.189339
   7 O :   -0.458664
   8 H :    0.313969
   9 H :    0.099009
  10 H :    0.114861
  11 H :    0.119741
Sum of atomic charges:   -0.0000000

LOEWDIN ATOMIC CHARGES
----------------------
   0 C :   -0.002285
   1 O :   -0.002706
   2 H :   -0.001253
   3 H :   -0.000314
   4 H :   -0.000033
   5 H :   -0.000153
   6 C :   -0.398163
   7 O :   -0.055651
   8 H :    0.167866
   9 H :    0.098916
  10 H :    0.115060
  11 H :    0.078715

  Mayer bond orders larger than 0.1
B(  6-C ,  7-O ) :   0.9972 B(  6-C ,  9-H ) :   0.9790 B(  6-C , 10-H ) :   0.9765
B(  6-C , 11-H ) :   0.9700 B(  7-O ,  8-H ) :   0.9020

Dispersion correction           -0.000234008
FINAL SINGLE POINT ENERGY      -115.730176548623

DIPOLE MOMENT
-------------
                                X             Y             Z
Electronic contribution:      1.24469      -1.03903      -1.14561
Nuclear contribution   :     -1.64658       1.60163       0.95214
                        -----------------------------------------
Total Dipole Moment    :     -0.40189       0.56260      -0.19348
                        -----------------------------------------
Magnitude (a.u.)       :      0.71796
Magnitude (Debye)      :      1.82490

Rotational constants in cm-1:     4.502921     0.839982     0.802101
Rotational constants in MHz : 134994.170182 25182.038481 24046.378764

                             ****ORCA TERMINATED NORMALLY****
TOTAL RUN TIME: 0 days 0 hours 1 minutes 6 seconds 307 msec
