                         Program Version 4.1.2  - RELEASE  -
|  1> #Run DFT-D3 single point of the dimer
|  2> ! wB97X-D3 def2-TZVP TIGHTSCF CHELPG PMODEL PAL8
|  3>
|  4> %base "18-119_DFT_AB"
|  5>
|  6> %scf
|  7> MaxIter 1000
|  8> end
|  9>
| 10> * xyz 0 1
| 11>   C                      -5.446868            -6.427898            4.398812
| 12>   O                      -6.637437            -7.096489            4.745750
| 13>   H                      -6.687544            -8.002790            4.433937
| 14>   H                      -5.460413            -5.329283            4.727372
| 15>   H                      -4.544172            -6.930192            4.735164
| 16>   H                      -5.335296            -6.386736            3.346718
| 17>   C                      -4.497079            -9.106142            8.031546
| 18>   O                      -5.521751            -10.135368           8.094001
| 19>   H                      -5.086157            -11.020833           7.979555
| 20>   H                      -3.515547            -9.363153            7.620147
| 21>   H                      -4.802924            -8.275146            7.405518
| 22>   H                      -4.278909            -8.661868            9.023498
| 23> *
| 24>
| 25> #Run DFT-D3 single point of the molecule with dimer basis set
| 26> $new_job
| 27> %base "18-119_DFT_A"
| 28> ! wB97X-D3 def2-TZVP TIGHTSCF CHELPG PMODEL
| 29>
| 30> %scf
| 31> MaxIter 1000
| 32> end
| 33>
| 34> * xyz 0 1
| 35>   C                      -5.446868            -6.427898            4.398812
| 36>   O                      -6.637437            -7.096489            4.745750
| 37>   H                      -6.687544            -8.002790            4.433937
| 38>   H                      -5.460413            -5.329283            4.727372
| 39>   H                      -4.544172            -6.930192            4.735164
| 40>   H                      -5.335296            -6.386736            3.346718
| 41>   C                    : -4.497079            -9.106142            8.031546
| 42>   O                    : -5.521751            -10.135368           8.094001
| 43>   H                    : -5.086157            -11.020833           7.979555
| 44>   H                    : -3.515547            -9.363153            7.620147
| 45>   H                    : -4.802924            -8.275146            7.405518
| 46>   H                    : -4.278909            -8.661868            9.023498
| 47> *
| 48>
| 49> #Run DFT-D3 single point of the particle with dimer basis set
| 50> $new_job
| 51> %base "18-119_DFT_B"
| 52> ! wB97X-D3 def2-TZVP TIGHTSCF CHELPG PMODEL
| 53>
| 54> %scf
| 55> MaxIter 1000
| 56> end
| 57>
| 58> * xyz 0 1
| 59>   C                    : -5.446868            -6.427898            4.398812
| 60>   O                    : -6.637437            -7.096489            4.745750
| 61>   H                    : -6.687544            -8.002790            4.433937
| 62>   H                    : -5.460413            -5.329283            4.727372
| 63>   H                    : -4.544172            -6.930192            4.735164
| 64>   H                    : -5.335296            -6.386736            3.346718
| 65>   C                      -4.497079            -9.106142            8.031546
| 66>   O                      -5.521751            -10.135368           8.094001
| 67>   H                      -5.086157            -11.020833           7.979555
| 68>   H                      -3.515547            -9.363153            7.620147
| 69>   H                      -4.802924            -8.275146            7.405518
| 70>   H                      -4.278909            -8.661868            9.023498
| 71> *
| 72>
| 73>                          ****END OF INPUT****
 Total Charge           Charge          ....    0
 Multiplicity           Mult            ....    1
 Number of Electrons    NEL             ....   36
Dispersion correction           -0.001222431
FINAL SINGLE POINT ENERGY      -231.463341147035
Dispersion correction           -0.000254323
FINAL SINGLE POINT ENERGY      -115.731810051551

CARTESIAN COORDINATES (ANGSTROEM)
---------------------------------
  C     -5.446868   -6.427898    4.398812
  O     -6.637437   -7.096489    4.745750
  H     -6.687544   -8.002790    4.433937
  H     -5.460413   -5.329283    4.727372
  H     -4.544172   -6.930192    4.735164
  H     -5.335296   -6.386736    3.346718
  C     -4.497079   -9.106142    8.031546
  O     -5.521751  -10.135368    8.094001
  H     -5.086157  -11.020833    7.979555
  H     -3.515547   -9.363153    7.620147
  H     -4.802924   -8.275146    7.405518
  H     -4.278909   -8.661868    9.023498

 Multiplicity           Mult            ....    1
 Number of Electrons    NEL             ....   18
 Basis Dimension        Dim             ....  172

ORBITAL ENERGIES
----------------

  NO   OCC          E(Eh)            E(eV)
   0   2.0000     -19.237448      -523.4776
   1   2.0000     -10.316496      -280.7261
   2   2.0000      -1.119354       -30.4592
   3   2.0000      -0.797360       -21.6973
   4   2.0000      -0.604462       -16.4482
   5   2.0000      -0.530841       -14.4449
   6   2.0000      -0.518403       -14.1065
   7   2.0000      -0.437610       -11.9080
   8   2.0000      -0.375697       -10.2232
   9   0.0000       0.085136         2.3167
  10   0.0000       0.113184         3.0799
  11   0.0000       0.146704         3.9920
  12   0.0000       0.164699         4.4817
  13   0.0000       0.187668         5.1067

MULLIKEN ATOMIC CHARGES
-----------------------
   0 C :    0.000442
   1 O :    0.000079
   2 H :   -0.000009
   3 H :   -0.000101
   4 H :   -0.000741
   5 H :   -0.000016
   6 C :   -0.184838
   7 O :   -0.475026
   8 H :    0.319859
   9 H :    0.109556
  10 H :    0.123425
  11 H :    0.107371
Sum of atomic charges:   -0.0000000

LOEWDIN ATOMIC CHARGES
----------------------
   0 C :   -0.001247
   1 O :   -0.000123
   2 H :   -0.000108
   3 H :   -0.000023
   4 H :   -0.000836
   5 H :   -0.000013
   6 C :   -0.370401
   7 O :   -0.114830
   8 H :    0.186970
   9 H :    0.097290
  10 H :    0.102535
  11 H :    0.100786

  Mayer bond orders larger than 0.1
B(  6-C ,  7-O ) :   1.0153 B(  6-C ,  9-H ) :   0.9742 B(  6-C , 10-H ) :   0.9749
B(  6-C , 11-H ) :   0.9759 B(  7-O ,  8-H ) :   0.8943

Dispersion correction           -0.000294542
FINAL SINGLE POINT ENERGY      -115.730914769769

DIPOLE MOMENT
-------------
                                X             Y             Z
Electronic contribution:     -1.45339      -1.32501       0.07779
Nuclear contribution   :      2.16223       1.18615      -0.19645
                        -----------------------------------------
Total Dipole Moment    :      0.70885      -0.13885      -0.11867
                        -----------------------------------------
Magnitude (a.u.)       :      0.73200
Magnitude (Debye)      :      1.86060

Rotational constants in cm-1:     4.404413     0.777041     0.751917
Rotational constants in MHz : 132040.971050 23295.107065 22541.896768

                             ****ORCA TERMINATED NORMALLY****
TOTAL RUN TIME: 0 days 0 hours 1 minutes 4 seconds 546 msec
