                         Program Version 4.1.2  - RELEASE  -
|  1> #Run DFT-D3 single point of the dimer
|  2> ! wB97X-D3 def2-TZVP TIGHTSCF CHELPG PMODEL PAL8
|  3>
|  4> %base "8-147_DFT_AB"
|  5>
|  6> %scf
|  7> MaxIter 1000
|  8> end
|  9>
| 10> * xyz 0 1
| 11>   C                      -1.836438            -10.187012           8.477243
| 12>   O                      -3.182947            -10.585800           8.737161
| 13>   H                      -3.371845            -11.517466           8.417675
| 14>   H                      -1.785848            -9.646708            7.498774
| 15>   H                      -1.443843            -9.424437            9.185187
| 16>   H                      -1.188261            -11.073030           8.387025
| 17>   C                      1.287699             -10.807181           7.175785
| 18>   O                      0.970395             -11.955731           7.957377
| 19>   H                      1.683097             -11.967201           8.636519
| 20>   H                      0.541193             -10.685245           6.400318
| 21>   H                      1.188107             -9.926228            7.855099
| 22>   H                      2.275731             -10.846685           6.724405
| 23> *
| 24>
| 25> #Run DFT-D3 single point of the molecule with dimer basis set
| 26> $new_job
| 27> %base "8-147_DFT_A"
| 28> ! wB97X-D3 def2-TZVP TIGHTSCF CHELPG PMODEL
| 29>
| 30> %scf
| 31> MaxIter 1000
| 32> end
| 33>
| 34> * xyz 0 1
| 35>   C                      -1.836438            -10.187012           8.477243
| 36>   O                      -3.182947            -10.585800           8.737161
| 37>   H                      -3.371845            -11.517466           8.417675
| 38>   H                      -1.785848            -9.646708            7.498774
| 39>   H                      -1.443843            -9.424437            9.185187
| 40>   H                      -1.188261            -11.073030           8.387025
| 41>   C                    : 1.287699             -10.807181           7.175785
| 42>   O                    : 0.970395             -11.955731           7.957377
| 43>   H                    : 1.683097             -11.967201           8.636519
| 44>   H                    : 0.541193             -10.685245           6.400318
| 45>   H                    : 1.188107             -9.926228            7.855099
| 46>   H                    : 2.275731             -10.846685           6.724405
| 47> *
| 48>
| 49> #Run DFT-D3 single point of the particle with dimer basis set
| 50> $new_job
| 51> %base "8-147_DFT_B"
| 52> ! wB97X-D3 def2-TZVP TIGHTSCF CHELPG PMODEL
| 53>
| 54> %scf
| 55> MaxIter 1000
| 56> end
| 57>
| 58> * xyz 0 1
| 59>   C                    : -1.836438            -10.187012           8.477243
| 60>   O                    : -3.182947            -10.585800           8.737161
| 61>   H                    : -3.371845            -11.517466           8.417675
| 62>   H                    : -1.785848            -9.646708            7.498774
| 63>   H                    : -1.443843            -9.424437            9.185187
| 64>   H                    : -1.188261            -11.073030           8.387025
| 65>   C                      1.287699             -10.807181           7.175785
| 66>   O                      0.970395             -11.955731           7.957377
| 67>   H                      1.683097             -11.967201           8.636519
| 68>   H                      0.541193             -10.685245           6.400318
| 69>   H                      1.188107             -9.926228            7.855099
| 70>   H                      2.275731             -10.846685           6.724405
| 71> *
| 72>
| 73>                          ****END OF INPUT****
 Total Charge           Charge          ....    0
 Multiplicity           Mult            ....    1
 Number of Electrons    NEL             ....   36
Dispersion correction           -0.001996391
FINAL SINGLE POINT ENERGY      -231.467743052193
Dispersion correction           -0.000266921
FINAL SINGLE POINT ENERGY      -115.730663942862

CARTESIAN COORDINATES (ANGSTROEM)
---------------------------------
  C     -1.836438  -10.187012    8.477243
  O     -3.182947  -10.585800    8.737161
  H     -3.371845  -11.517466    8.417675
  H     -1.785848   -9.646708    7.498774
  H     -1.443843   -9.424437    9.185187
  H     -1.188261  -11.073030    8.387025
  C      1.287699  -10.807181    7.175785
  O      0.970395  -11.955731    7.957377
  H      1.683097  -11.967201    8.636519
  H      0.541193  -10.685245    6.400318
  H      1.188107   -9.926228    7.855099
  H      2.275731  -10.846685    6.724405

 Multiplicity           Mult            ....    1
 Number of Electrons    NEL             ....   18
 Basis Dimension        Dim             ....  172

ORBITAL ENERGIES
----------------

  NO   OCC          E(Eh)            E(eV)
   0   2.0000     -19.232978      -523.3559
   1   2.0000     -10.314500      -280.6718
   2   2.0000      -1.131520       -30.7902
   3   2.0000      -0.790959       -21.5231
   4   2.0000      -0.603579       -16.4242
   5   2.0000      -0.543984       -14.8026
   6   2.0000      -0.525414       -14.2972
   7   2.0000      -0.438182       -11.9235
   8   2.0000      -0.373070       -10.1518
   9   0.0000       0.090782         2.4703
  10   0.0000       0.122083         3.3220
  11   0.0000       0.150592         4.0978
  12   0.0000       0.172776         4.7015
  13   0.0000       0.193015         5.2522

MULLIKEN ATOMIC CHARGES
-----------------------
   0 C :    0.001959
   1 O :    0.000179
   2 H :    0.000004
   3 H :   -0.001474
   4 H :   -0.001075
   5 H :   -0.003247
   6 C :   -0.178367
   7 O :   -0.472476
   8 H :    0.314269
   9 H :    0.118234
  10 H :    0.104737
  11 H :    0.117256
Sum of atomic charges:    0.0000000

LOEWDIN ATOMIC CHARGES
----------------------
   0 C :   -0.009977
   1 O :   -0.000034
   2 H :   -0.000010
   3 H :   -0.001342
   4 H :   -0.000514
   5 H :   -0.015347
   6 C :   -0.377927
   7 O :   -0.082853
   8 H :    0.183812
   9 H :    0.107407
  10 H :    0.102472
  11 H :    0.094313

  Mayer bond orders larger than 0.1
B(  6-C ,  7-O ) :   0.9834 B(  6-C ,  9-H ) :   0.9764 B(  6-C , 10-H ) :   0.9879
B(  6-C , 11-H ) :   0.9643 B(  7-O ,  8-H ) :   0.8980

Dispersion correction           -0.000225772
FINAL SINGLE POINT ENERGY      -115.734999529902

DIPOLE MOMENT
-------------
                                X             Y             Z
Electronic contribution:     -0.47525      -1.54281       0.79989
Nuclear contribution   :      1.03263       1.98245      -0.71023
                        -----------------------------------------
Total Dipole Moment    :      0.55739       0.43963       0.08966
                        -----------------------------------------
Magnitude (a.u.)       :      0.71554
Magnitude (Debye)      :      1.81876

Rotational constants in cm-1:     4.152612     0.828068     0.799426
Rotational constants in MHz : 124492.183698 24824.864434 23966.176288

                             ****ORCA TERMINATED NORMALLY****
TOTAL RUN TIME: 0 days 0 hours 0 minutes 47 seconds 468 msec
