                         Program Version 4.1.2  - RELEASE  -
|  1> #Run DFT-D3 single point of the dimer
|  2> ! wB97X-D3 def2-TZVP TIGHTSCF CHELPG PMODEL PAL8
|  3>
|  4> %base "10-120_DFT_AB"
|  5>
|  6> %scf
|  7> MaxIter 1000
|  8> end
|  9>
| 10> * xyz 0 1
| 11>   C                      -2.543772            11.097149            -5.925851
| 12>   O                      -3.388210            10.718351            -4.863969
| 13>   H                      -2.857181            10.590265            -4.086998
| 14>   H                      -3.183957            11.399977            -6.794502
| 15>   H                      -2.030645            11.987127            -5.722639
| 16>   H                      -1.844225            10.332951            -6.223363
| 17>   C                      -4.577922            7.549913             -6.259814
| 18>   O                      -5.822441            8.040496             -5.765704
| 19>   H                      -6.112907            8.734380             -6.371668
| 20>   H                      -3.982501            6.991980             -5.461943
| 21>   H                      -4.767267            6.902026             -7.134338
| 22>   H                      -3.949636            8.337608             -6.698863
| 23> *
| 24>
| 25> #Run DFT-D3 single point of the molecule with dimer basis set
| 26> $new_job
| 27> %base "10-120_DFT_A"
| 28> ! wB97X-D3 def2-TZVP TIGHTSCF CHELPG PMODEL
| 29>
| 30> %scf
| 31> MaxIter 1000
| 32> end
| 33>
| 34> * xyz 0 1
| 35>   C                      -2.543772            11.097149            -5.925851
| 36>   O                      -3.388210            10.718351            -4.863969
| 37>   H                      -2.857181            10.590265            -4.086998
| 38>   H                      -3.183957            11.399977            -6.794502
| 39>   H                      -2.030645            11.987127            -5.722639
| 40>   H                      -1.844225            10.332951            -6.223363
| 41>   C                    : -4.577922            7.549913             -6.259814
| 42>   O                    : -5.822441            8.040496             -5.765704
| 43>   H                    : -6.112907            8.734380             -6.371668
| 44>   H                    : -3.982501            6.991980             -5.461943
| 45>   H                    : -4.767267            6.902026             -7.134338
| 46>   H                    : -3.949636            8.337608             -6.698863
| 47> *
| 48>
| 49> #Run DFT-D3 single point of the particle with dimer basis set
| 50> $new_job
| 51> %base "10-120_DFT_B"
| 52> ! wB97X-D3 def2-TZVP TIGHTSCF CHELPG PMODEL
| 53>
| 54> %scf
| 55> MaxIter 1000
| 56> end
| 57>
| 58> * xyz 0 1
| 59>   C                    : -2.543772            11.097149            -5.925851
| 60>   O                    : -3.388210            10.718351            -4.863969
| 61>   H                    : -2.857181            10.590265            -4.086998
| 62>   H                    : -3.183957            11.399977            -6.794502
| 63>   H                    : -2.030645            11.987127            -5.722639
| 64>   H                    : -1.844225            10.332951            -6.223363
| 65>   C                      -4.577922            7.549913             -6.259814
| 66>   O                      -5.822441            8.040496             -5.765704
| 67>   H                      -6.112907            8.734380             -6.371668
| 68>   H                      -3.982501            6.991980             -5.461943
| 69>   H                      -4.767267            6.902026             -7.134338
| 70>   H                      -3.949636            8.337608             -6.698863
| 71> *
| 72>
| 73>                          ****END OF INPUT****
 Total Charge           Charge          ....    0
 Multiplicity           Mult            ....    1
 Number of Electrons    NEL             ....   36
Dispersion correction           -0.001672318
FINAL SINGLE POINT ENERGY      -231.467991318143
Dispersion correction           -0.000235421
FINAL SINGLE POINT ENERGY      -115.734400259353

CARTESIAN COORDINATES (ANGSTROEM)
---------------------------------
  C     -2.543772   11.097149   -5.925851
  O     -3.388210   10.718351   -4.863969
  H     -2.857181   10.590265   -4.086998
  H     -3.183957   11.399977   -6.794502
  H     -2.030645   11.987127   -5.722639
  H     -1.844225   10.332951   -6.223363
  C     -4.577922    7.549913   -6.259814
  O     -5.822441    8.040496   -5.765704
  H     -6.112907    8.734380   -6.371668
  H     -3.982501    6.991980   -5.461943
  H     -4.767267    6.902026   -7.134338
  H     -3.949636    8.337608   -6.698863

 Multiplicity           Mult            ....    1
 Number of Electrons    NEL             ....   18
 Basis Dimension        Dim             ....  172

ORBITAL ENERGIES
----------------

  NO   OCC          E(Eh)            E(eV)
   0   2.0000     -19.232110      -523.3323
   1   2.0000     -10.320813      -280.8436
   2   2.0000      -1.132902       -30.8278
   3   2.0000      -0.790394       -21.5077
   4   2.0000      -0.611379       -16.6365
   5   2.0000      -0.533861       -14.5271
   6   2.0000      -0.522110       -14.2073
   7   2.0000      -0.438069       -11.9205
   8   2.0000      -0.371220       -10.1014
   9   0.0000       0.078575         2.1381
  10   0.0000       0.120577         3.2811
  11   0.0000       0.149932         4.0798
  12   0.0000       0.157960         4.2983
  13   0.0000       0.191889         5.2216

MULLIKEN ATOMIC CHARGES
-----------------------
   0 C :    0.003089
   1 O :   -0.000572
   2 H :   -0.000088
   3 H :   -0.000556
   4 H :    0.000042
   5 H :   -0.001301
   6 C :   -0.183686
   7 O :   -0.471196
   8 H :    0.315412
   9 H :    0.124585
  10 H :    0.108639
  11 H :    0.105633
Sum of atomic charges:   -0.0000000

LOEWDIN ATOMIC CHARGES
----------------------
   0 C :   -0.003648
   1 O :   -0.000998
   2 H :   -0.000097
   3 H :   -0.000325
   4 H :   -0.000028
   5 H :   -0.000983
   6 C :   -0.387938
   7 O :   -0.089096
   8 H :    0.172722
   9 H :    0.118242
  10 H :    0.096096
  11 H :    0.096053

  Mayer bond orders larger than 0.1
B(  6-C ,  7-O ) :   0.9916 B(  6-C ,  9-H ) :   0.9708 B(  6-C , 10-H ) :   0.9742
B(  6-C , 11-H ) :   0.9752 B(  7-O ,  8-H ) :   0.8982

Dispersion correction           -0.000248812
FINAL SINGLE POINT ENERGY      -115.733041995534

DIPOLE MOMENT
-------------
                                X             Y             Z
Electronic contribution:     -1.59891       0.54860       0.84697
Nuclear contribution   :      1.91240      -0.28747      -1.43657
                        -----------------------------------------
Total Dipole Moment    :      0.31349       0.26113      -0.58960
                        -----------------------------------------
Magnitude (a.u.)       :      0.71700
Magnitude (Debye)      :      1.82247

Rotational constants in cm-1:     4.175331     0.818803     0.779897
Rotational constants in MHz : 125173.277887 24547.093255 23380.727651

                             ****ORCA TERMINATED NORMALLY****
TOTAL RUN TIME: 0 days 0 hours 1 minutes 0 seconds 916 msec
