                         Program Version 4.1.2  - RELEASE  -
|  1> #Run DFT-D3 single point of the dimer
|  2> ! wB97X-D3 def2-TZVP TIGHTSCF CHELPG PMODEL PAL8
|  3>
|  4> %base "20-206_DFT_AB"
|  5>
|  6> %scf
|  7> MaxIter 1000
|  8> end
|  9>
| 10> * xyz 0 1
| 11>   C                      -0.747754            -9.551591            -1.672735
| 12>   O                      -1.408461            -8.257595            -1.573776
| 13>   H                      -1.827558            -8.258980            -0.729072
| 14>   H                      -1.143490            -10.237191           -0.882401
| 15>   H                      -1.117367            -10.087011           -2.556173
| 16>   H                      0.320744             -9.530704            -1.768838
| 17>   C                      -3.331310            -6.055816            -3.086817
| 18>   O                      -2.105490            -5.613339            -2.688533
| 19>   H                      -1.456967            -6.305582            -2.864196
| 20>   H                      -4.237121            -5.471085            -2.682077
| 21>   H                      -3.476573            -6.009731            -4.181249
| 22>   H                      -3.507395            -7.181582            -2.902595
| 23> *
| 24>
| 25> #Run DFT-D3 single point of the molecule with dimer basis set
| 26> $new_job
| 27> %base "20-206_DFT_A"
| 28> ! wB97X-D3 def2-TZVP TIGHTSCF CHELPG PMODEL
| 29>
| 30> %scf
| 31> MaxIter 1000
| 32> end
| 33>
| 34> * xyz 0 1
| 35>   C                      -0.747754            -9.551591            -1.672735
| 36>   O                      -1.408461            -8.257595            -1.573776
| 37>   H                      -1.827558            -8.258980            -0.729072
| 38>   H                      -1.143490            -10.237191           -0.882401
| 39>   H                      -1.117367            -10.087011           -2.556173
| 40>   H                      0.320744             -9.530704            -1.768838
| 41>   C                    : -3.331310            -6.055816            -3.086817
| 42>   O                    : -2.105490            -5.613339            -2.688533
| 43>   H                    : -1.456967            -6.305582            -2.864196
| 44>   H                    : -4.237121            -5.471085            -2.682077
| 45>   H                    : -3.476573            -6.009731            -4.181249
| 46>   H                    : -3.507395            -7.181582            -2.902595
| 47> *
| 48>
| 49> #Run DFT-D3 single point of the particle with dimer basis set
| 50> $new_job
| 51> %base "20-206_DFT_B"
| 52> ! wB97X-D3 def2-TZVP TIGHTSCF CHELPG PMODEL
| 53>
| 54> %scf
| 55> MaxIter 1000
| 56> end
| 57>
| 58> * xyz 0 1
| 59>   C                    : -0.747754            -9.551591            -1.672735
| 60>   O                    : -1.408461            -8.257595            -1.573776
| 61>   H                    : -1.827558            -8.258980            -0.729072
| 62>   H                    : -1.143490            -10.237191           -0.882401
| 63>   H                    : -1.117367            -10.087011           -2.556173
| 64>   H                    : 0.320744             -9.530704            -1.768838
| 65>   C                      -3.331310            -6.055816            -3.086817
| 66>   O                      -2.105490            -5.613339            -2.688533
| 67>   H                      -1.456967            -6.305582            -2.864196
| 68>   H                      -4.237121            -5.471085            -2.682077
| 69>   H                      -3.476573            -6.009731            -4.181249
| 70>   H                      -3.507395            -7.181582            -2.902595
| 71> *
| 72>
| 73>                          ****END OF INPUT****
 Total Charge           Charge          ....    0
 Multiplicity           Mult            ....    1
 Number of Electrons    NEL             ....   36
Dispersion correction           -0.001793573
FINAL SINGLE POINT ENERGY      -231.464331021448
Dispersion correction           -0.000264661
FINAL SINGLE POINT ENERGY      -115.729995109836

CARTESIAN COORDINATES (ANGSTROEM)
---------------------------------
  C     -0.747754   -9.551591   -1.672735
  O     -1.408461   -8.257595   -1.573776
  H     -1.827558   -8.258980   -0.729072
  H     -1.143490  -10.237191   -0.882401
  H     -1.117367  -10.087011   -2.556173
  H      0.320744   -9.530704   -1.768838
  C     -3.331310   -6.055816   -3.086817
  O     -2.105490   -5.613339   -2.688533
  H     -1.456967   -6.305582   -2.864196
  H     -4.237121   -5.471085   -2.682077
  H     -3.476573   -6.009731   -4.181249
  H     -3.507395   -7.181582   -2.902595

 Multiplicity           Mult            ....    1
 Number of Electrons    NEL             ....   18
 Basis Dimension        Dim             ....  172

ORBITAL ENERGIES
----------------

  NO   OCC          E(Eh)            E(eV)
   0   2.0000     -19.238163      -523.4970
   1   2.0000     -10.322819      -280.8982
   2   2.0000      -1.156475       -31.4693
   3   2.0000      -0.786928       -21.4134
   4   2.0000      -0.625268       -17.0144
   5   2.0000      -0.537170       -14.6171
   6   2.0000      -0.532890       -14.5007
   7   2.0000      -0.429760       -11.6944
   8   2.0000      -0.368602       -10.0302
   9   0.0000       0.071229         1.9382
  10   0.0000       0.126503         3.4423
  11   0.0000       0.144825         3.9409
  12   0.0000       0.167453         4.5566
  13   0.0000       0.185712         5.0535

MULLIKEN ATOMIC CHARGES
-----------------------
   0 C :   -0.001048
   1 O :   -0.004889
   2 H :   -0.000641
   3 H :    0.000013
   4 H :   -0.000085
   5 H :    0.000052
   6 C :   -0.176021
   7 O :   -0.446635
   8 H :    0.323854
   9 H :    0.116064
  10 H :    0.098651
  11 H :    0.090686
Sum of atomic charges:    0.0000000

LOEWDIN ATOMIC CHARGES
----------------------
   0 C :   -0.000929
   1 O :   -0.011479
   2 H :   -0.001490
   3 H :   -0.000020
   4 H :   -0.000064
   5 H :   -0.000020
   6 C :   -0.447218
   7 O :   -0.026969
   8 H :    0.181275
   9 H :    0.116889
  10 H :    0.090157
  11 H :    0.099869

  Mayer bond orders larger than 0.1
B(  6-C ,  7-O ) :   1.0130 B(  6-C ,  9-H ) :   0.9680 B(  6-C , 10-H ) :   0.9764
B(  6-C , 11-H ) :   0.9766 B(  7-O ,  8-H ) :   0.8923

Dispersion correction           -0.000250373
FINAL SINGLE POINT ENERGY      -115.728854956629

DIPOLE MOMENT
-------------
                                X             Y             Z
Electronic contribution:      1.74956       0.85728       0.71497
Nuclear contribution   :     -1.75737      -1.43624      -0.97518
                        -----------------------------------------
Total Dipole Moment    :     -0.00780      -0.57896      -0.26022
                        -----------------------------------------
Magnitude (a.u.)       :      0.63480
Magnitude (Debye)      :      1.61353

Rotational constants in cm-1:     4.212836     0.863620     0.818887
Rotational constants in MHz : 126297.641569 25890.671168 24549.605238

                             ****ORCA TERMINATED NORMALLY****
TOTAL RUN TIME: 0 days 0 hours 1 minutes 1 seconds 108 msec
