                         Program Version 4.1.2  - RELEASE  -
|  1> #Run DFT-D3 single point of the dimer
|  2> ! wB97X-D3 def2-TZVP TIGHTSCF CHELPG PMODEL PAL8
|  3>
|  4> %base "22-36_DFT_AB"
|  5>
|  6> %scf
|  7> MaxIter 1000
|  8> end
|  9>
| 10> * xyz 0 1
| 11>   C                      -7.103731            6.653923             -1.669574
| 12>   O                      -6.894566            5.210805             -1.789627
| 13>   H                      -7.334692            4.689197             -1.072243
| 14>   H                      -8.194465            6.918869             -1.815733
| 15>   H                      -6.801057            7.072376             -0.661411
| 16>   H                      -6.560077            7.160748             -2.438667
| 17>   C                      -10.563604           5.681070             -3.447789
| 18>   O                      -9.809328            6.199999             -4.474646
| 19>   H                      -9.208245            5.512544             -4.805590
| 20>   H                      -11.439028           6.363267             -3.300783
| 21>   H                      -10.919224           4.688907             -3.654699
| 22>   H                      -9.913095            5.656583             -2.566495
| 23> *
| 24>
| 25> #Run DFT-D3 single point of the molecule with dimer basis set
| 26> $new_job
| 27> %base "22-36_DFT_A"
| 28> ! wB97X-D3 def2-TZVP TIGHTSCF CHELPG PMODEL
| 29>
| 30> %scf
| 31> MaxIter 1000
| 32> end
| 33>
| 34> * xyz 0 1
| 35>   C                      -7.103731            6.653923             -1.669574
| 36>   O                      -6.894566            5.210805             -1.789627
| 37>   H                      -7.334692            4.689197             -1.072243
| 38>   H                      -8.194465            6.918869             -1.815733
| 39>   H                      -6.801057            7.072376             -0.661411
| 40>   H                      -6.560077            7.160748             -2.438667
| 41>   C                    : -10.563604           5.681070             -3.447789
| 42>   O                    : -9.809328            6.199999             -4.474646
| 43>   H                    : -9.208245            5.512544             -4.805590
| 44>   H                    : -11.439028           6.363267             -3.300783
| 45>   H                    : -10.919224           4.688907             -3.654699
| 46>   H                    : -9.913095            5.656583             -2.566495
| 47> *
| 48>
| 49> #Run DFT-D3 single point of the particle with dimer basis set
| 50> $new_job
| 51> %base "22-36_DFT_B"
| 52> ! wB97X-D3 def2-TZVP TIGHTSCF CHELPG PMODEL
| 53>
| 54> %scf
| 55> MaxIter 1000
| 56> end
| 57>
| 58> * xyz 0 1
| 59>   C                    : -7.103731            6.653923             -1.669574
| 60>   O                    : -6.894566            5.210805             -1.789627
| 61>   H                    : -7.334692            4.689197             -1.072243
| 62>   H                    : -8.194465            6.918869             -1.815733
| 63>   H                    : -6.801057            7.072376             -0.661411
| 64>   H                    : -6.560077            7.160748             -2.438667
| 65>   C                      -10.563604           5.681070             -3.447789
| 66>   O                      -9.809328            6.199999             -4.474646
| 67>   H                      -9.208245            5.512544             -4.805590
| 68>   H                      -11.439028           6.363267             -3.300783
| 69>   H                      -10.919224           4.688907             -3.654699
| 70>   H                      -9.913095            5.656583             -2.566495
| 71> *
| 72>
| 73>                          ****END OF INPUT****
 Total Charge           Charge          ....    0
 Multiplicity           Mult            ....    1
 Number of Electrons    NEL             ....   36
Dispersion correction           -0.001807810
FINAL SINGLE POINT ENERGY      -231.468364659793
Dispersion correction           -0.000295650
FINAL SINGLE POINT ENERGY      -115.731933448184

CARTESIAN COORDINATES (ANGSTROEM)
---------------------------------
  C     -7.103731    6.653923   -1.669574
  O     -6.894566    5.210805   -1.789627
  H     -7.334692    4.689197   -1.072243
  H     -8.194465    6.918869   -1.815733
  H     -6.801057    7.072376   -0.661411
  H     -6.560077    7.160748   -2.438667
  C    -10.563604    5.681070   -3.447789
  O     -9.809328    6.199999   -4.474646
  H     -9.208245    5.512544   -4.805590
  H    -11.439028    6.363267   -3.300783
  H    -10.919224    4.688907   -3.654699
  H     -9.913095    5.656583   -2.566495

 Multiplicity           Mult            ....    1
 Number of Electrons    NEL             ....   18
 Basis Dimension        Dim             ....  172

ORBITAL ENERGIES
----------------

  NO   OCC          E(Eh)            E(eV)
   0   2.0000     -19.227709      -523.2126
   1   2.0000     -10.309721      -280.5418
   2   2.0000      -1.145463       -31.1696
   3   2.0000      -0.790606       -21.5135
   4   2.0000      -0.617389       -16.8000
   5   2.0000      -0.549889       -14.9633
   6   2.0000      -0.527069       -14.3423
   7   2.0000      -0.429900       -11.6982
   8   2.0000      -0.368565       -10.0292
   9   0.0000       0.083607         2.2751
  10   0.0000       0.124301         3.3824
  11   0.0000       0.154056         4.1921
  12   0.0000       0.166720         4.5367
  13   0.0000       0.195722         5.3259

MULLIKEN ATOMIC CHARGES
-----------------------
   0 C :   -0.003748
   1 O :    0.000199
   2 H :   -0.000341
   3 H :    0.004210
   4 H :    0.000224
   5 H :    0.000257
   6 C :   -0.142197
   7 O :   -0.474166
   8 H :    0.315066
   9 H :    0.112207
  10 H :    0.100453
  11 H :    0.087836
Sum of atomic charges:   -0.0000000

LOEWDIN ATOMIC CHARGES
----------------------
   0 C :   -0.004315
   1 O :   -0.000359
   2 H :   -0.000462
   3 H :   -0.004060
   4 H :   -0.000033
   5 H :   -0.000191
   6 C :   -0.409204
   7 O :   -0.056558
   8 H :    0.177388
   9 H :    0.114415
  10 H :    0.088078
  11 H :    0.095301

  Mayer bond orders larger than 0.1
B(  6-C ,  7-O ) :   0.9986 B(  6-C ,  9-H ) :   0.9728 B(  6-C , 10-H ) :   0.9832
B(  6-C , 11-H ) :   0.9817 B(  7-O ,  8-H ) :   0.8959

Dispersion correction           -0.000213129
FINAL SINGLE POINT ENERGY      -115.734045106051

DIPOLE MOMENT
-------------
                                X             Y             Z
Electronic contribution:      0.86190       0.73637      -1.32614
Nuclear contribution   :     -0.77267      -1.38078       1.47682
                        -----------------------------------------
Total Dipole Moment    :      0.08923      -0.64441       0.15069
                        -----------------------------------------
Magnitude (a.u.)       :      0.66778
Magnitude (Debye)      :      1.69737

Rotational constants in cm-1:     4.188782     0.877937     0.842297
Rotational constants in MHz : 125576.528212 26319.875961 25251.419445

                             ****ORCA TERMINATED NORMALLY****
TOTAL RUN TIME: 0 days 0 hours 0 minutes 58 seconds 257 msec
