                         Program Version 4.1.2  - RELEASE  -
|  1> #Run DFT-D3 single point of the dimer
|  2> ! wB97X-D3 def2-TZVP TIGHTSCF CHELPG PMODEL PAL8
|  3>
|  4> %base "14-101_DFT_AB"
|  5>
|  6> %scf
|  7> MaxIter 1000
|  8> end
|  9>
| 10> * xyz 0 1
| 11>   C                      -9.038120            -4.940039            -9.359622
| 12>   O                      -8.941771            -4.116648            -10.481134
| 13>   H                      -8.041680            -3.849883            -10.587867
| 14>   H                      -9.704550            -5.762499            -9.452539
| 15>   H                      -8.020437            -5.364017            -9.158092
| 16>   H                      -9.342854            -4.350569            -8.499982
| 17>   C                      -5.134553            -7.098486            -11.157631
| 18>   O                      -6.287362            -7.656914            -11.565071
| 19>   H                      -6.782959            -7.946052            -10.769581
| 20>   H                      -4.525751            -6.722699            -12.042924
| 21>   H                      -5.230122            -6.248975            -10.453781
| 22>   H                      -4.588261            -7.930617            -10.645087
| 23> *
| 24>
| 25> #Run DFT-D3 single point of the molecule with dimer basis set
| 26> $new_job
| 27> %base "14-101_DFT_A"
| 28> ! wB97X-D3 def2-TZVP TIGHTSCF CHELPG PMODEL
| 29>
| 30> %scf
| 31> MaxIter 1000
| 32> end
| 33>
| 34> * xyz 0 1
| 35>   C                      -9.038120            -4.940039            -9.359622
| 36>   O                      -8.941771            -4.116648            -10.481134
| 37>   H                      -8.041680            -3.849883            -10.587867
| 38>   H                      -9.704550            -5.762499            -9.452539
| 39>   H                      -8.020437            -5.364017            -9.158092
| 40>   H                      -9.342854            -4.350569            -8.499982
| 41>   C                    : -5.134553            -7.098486            -11.157631
| 42>   O                    : -6.287362            -7.656914            -11.565071
| 43>   H                    : -6.782959            -7.946052            -10.769581
| 44>   H                    : -4.525751            -6.722699            -12.042924
| 45>   H                    : -5.230122            -6.248975            -10.453781
| 46>   H                    : -4.588261            -7.930617            -10.645087
| 47> *
| 48>
| 49> #Run DFT-D3 single point of the particle with dimer basis set
| 50> $new_job
| 51> %base "14-101_DFT_B"
| 52> ! wB97X-D3 def2-TZVP TIGHTSCF CHELPG PMODEL
| 53>
| 54> %scf
| 55> MaxIter 1000
| 56> end
| 57>
| 58> * xyz 0 1
| 59>   C                    : -9.038120            -4.940039            -9.359622
| 60>   O                    : -8.941771            -4.116648            -10.481134
| 61>   H                    : -8.041680            -3.849883            -10.587867
| 62>   H                    : -9.704550            -5.762499            -9.452539
| 63>   H                    : -8.020437            -5.364017            -9.158092
| 64>   H                    : -9.342854            -4.350569            -8.499982
| 65>   C                      -5.134553            -7.098486            -11.157631
| 66>   O                      -6.287362            -7.656914            -11.565071
| 67>   H                      -6.782959            -7.946052            -10.769581
| 68>   H                      -4.525751            -6.722699            -12.042924
| 69>   H                      -5.230122            -6.248975            -10.453781
| 70>   H                      -4.588261            -7.930617            -10.645087
| 71> *
| 72>
| 73>                          ****END OF INPUT****
 Total Charge           Charge          ....    0
 Multiplicity           Mult            ....    1
 Number of Electrons    NEL             ....   36
Dispersion correction           -0.001153944
FINAL SINGLE POINT ENERGY      -231.462425958027
Dispersion correction           -0.000228417
FINAL SINGLE POINT ENERGY      -115.733028702509

CARTESIAN COORDINATES (ANGSTROEM)
---------------------------------
  C     -9.038120   -4.940039   -9.359622
  O     -8.941771   -4.116648  -10.481134
  H     -8.041680   -3.849883  -10.587867
  H     -9.704550   -5.762499   -9.452539
  H     -8.020437   -5.364017   -9.158092
  H     -9.342854   -4.350569   -8.499982
  C     -5.134553   -7.098486  -11.157631
  O     -6.287362   -7.656914  -11.565071
  H     -6.782959   -7.946052  -10.769581
  H     -4.525751   -6.722699  -12.042924
  H     -5.230122   -6.248975  -10.453781
  H     -4.588261   -7.930617  -10.645087

 Multiplicity           Mult            ....    1
 Number of Electrons    NEL             ....   18
 Basis Dimension        Dim             ....  172

ORBITAL ENERGIES
----------------

  NO   OCC          E(Eh)            E(eV)
   0   2.0000     -19.232183      -523.3343
   1   2.0000     -10.315342      -280.6947
   2   2.0000      -1.158041       -31.5119
   3   2.0000      -0.783655       -21.3243
   4   2.0000      -0.620729       -16.8909
   5   2.0000      -0.551561       -15.0087
   6   2.0000      -0.532676       -14.4949
   7   2.0000      -0.424581       -11.5534
   8   2.0000      -0.366078        -9.9615
   9   0.0000       0.078261         2.1296
  10   0.0000       0.121391         3.3032
  11   0.0000       0.147841         4.0230
  12   0.0000       0.169063         4.6004
  13   0.0000       0.183527         4.9940

MULLIKEN ATOMIC CHARGES
-----------------------
   0 C :   -0.001095
   1 O :    0.000123
   2 H :    0.000011
   3 H :    0.000192
   4 H :   -0.000472
   5 H :   -0.000068
   6 C :   -0.161165
   7 O :   -0.455660
   8 H :    0.322292
   9 H :    0.112694
  10 H :    0.091623
  11 H :    0.091523
Sum of atomic charges:    0.0000000

LOEWDIN ATOMIC CHARGES
----------------------
   0 C :   -0.000839
   1 O :   -0.000023
   2 H :   -0.000079
   3 H :   -0.000045
   4 H :   -0.000472
   5 H :   -0.000045
   6 C :   -0.454119
   7 O :   -0.034545
   8 H :    0.188884
   9 H :    0.115820
  10 H :    0.089376
  11 H :    0.096089

  Mayer bond orders larger than 0.1
B(  6-C ,  7-O ) :   1.0099 B(  6-C ,  9-H ) :   0.9680 B(  6-C , 10-H ) :   0.9655
B(  6-C , 11-H ) :   0.9929 B(  7-O ,  8-H ) :   0.8882

Dispersion correction           -0.000213970
FINAL SINGLE POINT ENERGY      -115.729175164716

DIPOLE MOMENT
-------------
                                X             Y             Z
Electronic contribution:     -1.59657      -0.65921      -0.72173
Nuclear contribution   :      1.66889       0.66978       1.34989
                        -----------------------------------------
Total Dipole Moment    :      0.07232       0.01057       0.62816
                        -----------------------------------------
Magnitude (a.u.)       :      0.63240
Magnitude (Debye)      :      1.60743

Rotational constants in cm-1:     4.102529     0.899440     0.860924
Rotational constants in MHz : 122990.733895 26964.522810 25809.843378

                             ****ORCA TERMINATED NORMALLY****
TOTAL RUN TIME: 0 days 0 hours 0 minutes 57 seconds 769 msec
