                         Program Version 4.1.2  - RELEASE  -
|  1> #Run DFT-D3 single point of the dimer
|  2> ! wB97X-D3 def2-TZVP TIGHTSCF CHELPG PMODEL PAL8
|  3>
|  4> %base "5-30_DFT_AB"
|  5>
|  6> %scf
|  7> MaxIter 1000
|  8> end
|  9>
| 10> * xyz 0 1
| 11>   C                      2.739132             -3.942480            -1.008213
| 12>   O                      1.753076             -3.898102            -0.067553
| 13>   H                      2.322324             -4.076974            0.640020
| 14>   H                      3.466281             -4.735064            -0.636827
| 15>   H                      2.402265             -4.144417            -2.020121
| 16>   H                      3.256188             -3.012980            -0.955926
| 17>   C                      -0.669043            -6.389709            2.434453
| 18>   O                      -1.049529            -7.737653            2.738207
| 19>   H                      -0.406961            -7.906495            3.371871
| 20>   H                      -1.323085            -5.848376            1.821397
| 21>   H                      -0.536735            -5.800805            3.330906
| 22>   H                      0.321000             -6.379876            1.922245
| 23> *
| 24>
| 25> #Run DFT-D3 single point of the molecule with dimer basis set
| 26> $new_job
| 27> %base "5-30_DFT_A"
| 28> ! wB97X-D3 def2-TZVP TIGHTSCF CHELPG PMODEL
| 29>
| 30> %scf
| 31> MaxIter 1000
| 32> end
| 33>
| 34> * xyz 0 1
| 35>   C                      2.739132             -3.942480            -1.008213
| 36>   O                      1.753076             -3.898102            -0.067553
| 37>   H                      2.322324             -4.076974            0.640020
| 38>   H                      3.466281             -4.735064            -0.636827
| 39>   H                      2.402265             -4.144417            -2.020121
| 40>   H                      3.256188             -3.012980            -0.955926
| 41>   C                    : -0.669043            -6.389709            2.434453
| 42>   O                    : -1.049529            -7.737653            2.738207
| 43>   H                    : -0.406961            -7.906495            3.371871
| 44>   H                    : -1.323085            -5.848376            1.821397
| 45>   H                    : -0.536735            -5.800805            3.330906
| 46>   H                    : 0.321000             -6.379876            1.922245
| 47> *
| 48>
| 49> #Run DFT-D3 single point of the particle with dimer basis set
| 50> $new_job
| 51> %base "5-30_DFT_B"
| 52> ! wB97X-D3 def2-TZVP TIGHTSCF CHELPG PMODEL
| 53>
| 54> %scf
| 55> MaxIter 1000
| 56> end
| 57>
| 58> * xyz 0 1
| 59>   C                    : 2.739132             -3.942480            -1.008213
| 60>   O                    : 1.753076             -3.898102            -0.067553
| 61>   H                    : 2.322324             -4.076974            0.640020
| 62>   H                    : 3.466281             -4.735064            -0.636827
| 63>   H                    : 2.402265             -4.144417            -2.020121
| 64>   H                    : 3.256188             -3.012980            -0.955926
| 65>   C                      -0.669043            -6.389709            2.434453
| 66>   O                      -1.049529            -7.737653            2.738207
| 67>   H                      -0.406961            -7.906495            3.371871
| 68>   H                      -1.323085            -5.848376            1.821397
| 69>   H                      -0.536735            -5.800805            3.330906
| 70>   H                      0.321000             -6.379876            1.922245
| 71> *
| 72>
| 73>                          ****END OF INPUT****
 Total Charge           Charge          ....    0
 Multiplicity           Mult            ....    1
 Number of Electrons    NEL             ....   36
Dispersion correction           -0.000820305
FINAL SINGLE POINT ENERGY      -231.449095697697
Dispersion correction           -0.000170215
FINAL SINGLE POINT ENERGY      -115.720046180161

CARTESIAN COORDINATES (ANGSTROEM)
---------------------------------
  C      2.739132   -3.942480   -1.008213
  O      1.753076   -3.898102   -0.067553
  H      2.322324   -4.076974    0.640020
  H      3.466281   -4.735064   -0.636827
  H      2.402265   -4.144417   -2.020121
  H      3.256188   -3.012980   -0.955926
  C     -0.669043   -6.389709    2.434453
  O     -1.049529   -7.737653    2.738207
  H     -0.406961   -7.906495    3.371871
  H     -1.323085   -5.848376    1.821397
  H     -0.536735   -5.800805    3.330906
  H      0.321000   -6.379876    1.922245

 Multiplicity           Mult            ....    1
 Number of Electrons    NEL             ....   18
 Basis Dimension        Dim             ....  172

ORBITAL ENERGIES
----------------

  NO   OCC          E(Eh)            E(eV)
   0   2.0000     -19.230375      -523.2851
   1   2.0000     -10.311596      -280.5928
   2   2.0000      -1.147547       -31.2263
   3   2.0000      -0.801046       -21.7976
   4   2.0000      -0.611429       -16.6378
   5   2.0000      -0.538829       -14.6623
   6   2.0000      -0.534476       -14.5438
   7   2.0000      -0.449600       -12.2342
   8   2.0000      -0.375639       -10.2217
   9   0.0000       0.083303         2.2668
  10   0.0000       0.118586         3.2269
  11   0.0000       0.141640         3.8542
  12   0.0000       0.181124         4.9286
  13   0.0000       0.191959         5.2235

MULLIKEN ATOMIC CHARGES
-----------------------
   0 C :   -0.000015
   1 O :    0.000039
   2 H :   -0.000397
   3 H :   -0.000020
   4 H :    0.000011
   5 H :   -0.000007
   6 C :   -0.192725
   7 O :   -0.449523
   8 H :    0.306577
   9 H :    0.125150
  10 H :    0.107967
  11 H :    0.102942
Sum of atomic charges:   -0.0000000

LOEWDIN ATOMIC CHARGES
----------------------
   0 C :   -0.000078
   1 O :   -0.000330
   2 H :   -0.000567
   3 H :   -0.000011
   4 H :   -0.000001
   5 H :   -0.000001
   6 C :   -0.370330
   7 O :   -0.065101
   8 H :    0.145441
   9 H :    0.096104
  10 H :    0.094249
  11 H :    0.100625

  Mayer bond orders larger than 0.1
B(  6-C ,  7-O ) :   0.9956 B(  6-C ,  9-H ) :   0.9734 B(  6-C , 10-H ) :   0.9791
B(  6-C , 11-H ) :   0.9791 B(  7-O ,  8-H ) :   0.9145

Dispersion correction           -0.000217001
FINAL SINGLE POINT ENERGY      -115.728493867281

DIPOLE MOMENT
-------------
                                X             Y             Z
Electronic contribution:     -0.77412      -1.76347       0.26377
Nuclear contribution   :      1.30880       2.20699       0.01390
                        -----------------------------------------
Total Dipole Moment    :      0.53468       0.44351       0.27766
                        -----------------------------------------
Magnitude (a.u.)       :      0.74812
Magnitude (Debye)      :      1.90156

Rotational constants in cm-1:     4.456925     0.820623     0.794051
Rotational constants in MHz : 133615.253151 24601.672534 23805.037681

                             ****ORCA TERMINATED NORMALLY****
TOTAL RUN TIME: 0 days 0 hours 0 minutes 54 seconds 361 msec
