                         Program Version 4.1.2  - RELEASE  -
|  1> #Run DFT-D3 single point of the dimer
|  2> ! wB97X-D3 def2-TZVP TIGHTSCF CHELPG PMODEL PAL8
|  3>
|  4> %base "3-153_DFT_AB"
|  5>
|  6> %scf
|  7> MaxIter 1000
|  8> end
|  9>
| 10> * xyz 0 1
| 11>   C                      6.369187             -9.904875            -6.703849
| 12>   O                      6.245421             -9.413843            -5.411142
| 13>   H                      6.942337             -9.718965            -4.856947
| 14>   H                      5.664437             -9.421000            -7.422368
| 15>   H                      7.396688             -9.835106            -7.022802
| 16>   H                      6.137889             -10.954571           -6.839164
| 17>   C                      9.317209             -10.534982           -1.717924
| 18>   O                      9.210696             -9.285179            -2.380809
| 19>   H                      8.920651             -9.409764            -3.293410
| 20>   H                      8.353681             -10.771040           -1.223376
| 21>   H                      9.593112             -11.371253           -2.394576
| 22>   H                      10.014606            -10.479013           -0.886625
| 23> *
| 24>
| 25> #Run DFT-D3 single point of the molecule with dimer basis set
| 26> $new_job
| 27> %base "3-153_DFT_A"
| 28> ! wB97X-D3 def2-TZVP TIGHTSCF CHELPG PMODEL
| 29>
| 30> %scf
| 31> MaxIter 1000
| 32> end
| 33>
| 34> * xyz 0 1
| 35>   C                      6.369187             -9.904875            -6.703849
| 36>   O                      6.245421             -9.413843            -5.411142
| 37>   H                      6.942337             -9.718965            -4.856947
| 38>   H                      5.664437             -9.421000            -7.422368
| 39>   H                      7.396688             -9.835106            -7.022802
| 40>   H                      6.137889             -10.954571           -6.839164
| 41>   C                    : 9.317209             -10.534982           -1.717924
| 42>   O                    : 9.210696             -9.285179            -2.380809
| 43>   H                    : 8.920651             -9.409764            -3.293410
| 44>   H                    : 8.353681             -10.771040           -1.223376
| 45>   H                    : 9.593112             -11.371253           -2.394576
| 46>   H                    : 10.014606            -10.479013           -0.886625
| 47> *
| 48>
| 49> #Run DFT-D3 single point of the particle with dimer basis set
| 50> $new_job
| 51> %base "3-153_DFT_B"
| 52> ! wB97X-D3 def2-TZVP TIGHTSCF CHELPG PMODEL
| 53>
| 54> %scf
| 55> MaxIter 1000
| 56> end
| 57>
| 58> * xyz 0 1
| 59>   C                    : 6.369187             -9.904875            -6.703849
| 60>   O                    : 6.245421             -9.413843            -5.411142
| 61>   H                    : 6.942337             -9.718965            -4.856947
| 62>   H                    : 5.664437             -9.421000            -7.422368
| 63>   H                    : 7.396688             -9.835106            -7.022802
| 64>   H                    : 6.137889             -10.954571           -6.839164
| 65>   C                      9.317209             -10.534982           -1.717924
| 66>   O                      9.210696             -9.285179            -2.380809
| 67>   H                      8.920651             -9.409764            -3.293410
| 68>   H                      8.353681             -10.771040           -1.223376
| 69>   H                      9.593112             -11.371253           -2.394576
| 70>   H                      10.014606            -10.479013           -0.886625
| 71> *
| 72>
| 73>                          ****END OF INPUT****
 Total Charge           Charge          ....    0
 Multiplicity           Mult            ....    1
 Number of Electrons    NEL             ....   36
Dispersion correction           -0.001046799
FINAL SINGLE POINT ENERGY      -231.466328696652
Dispersion correction           -0.000240114
FINAL SINGLE POINT ENERGY      -115.732726391222

CARTESIAN COORDINATES (ANGSTROEM)
---------------------------------
  C      6.369187   -9.904875   -6.703849
  O      6.245421   -9.413843   -5.411142
  H      6.942337   -9.718965   -4.856947
  H      5.664437   -9.421000   -7.422368
  H      7.396688   -9.835106   -7.022802
  H      6.137889  -10.954571   -6.839164
  C      9.317209  -10.534982   -1.717924
  O      9.210696   -9.285179   -2.380809
  H      8.920651   -9.409764   -3.293410
  H      8.353681  -10.771040   -1.223376
  H      9.593112  -11.371253   -2.394576
  H     10.014606  -10.479013   -0.886625

 Multiplicity           Mult            ....    1
 Number of Electrons    NEL             ....   18
 Basis Dimension        Dim             ....  172

ORBITAL ENERGIES
----------------

  NO   OCC          E(Eh)            E(eV)
   0   2.0000     -19.230302      -523.2831
   1   2.0000     -10.316408      -280.7237
   2   2.0000      -1.132234       -30.8096
   3   2.0000      -0.795179       -21.6379
   4   2.0000      -0.609166       -16.5762
   5   2.0000      -0.535822       -14.5805
   6   2.0000      -0.530352       -14.4316
   7   2.0000      -0.433226       -11.7887
   8   2.0000      -0.370875       -10.0920
   9   0.0000       0.075056         2.0424
  10   0.0000       0.117003         3.1838
  11   0.0000       0.150591         4.0978
  12   0.0000       0.184014         5.0073
  13   0.0000       0.193338         5.2610

MULLIKEN ATOMIC CHARGES
-----------------------
   0 C :    0.000554
   1 O :    0.000636
   2 H :   -0.004513
   3 H :    0.000006
   4 H :   -0.000070
   5 H :   -0.000032
   6 C :   -0.162119
   7 O :   -0.479168
   8 H :    0.318697
   9 H :    0.100243
  10 H :    0.106117
  11 H :    0.119650
Sum of atomic charges:   -0.0000000

LOEWDIN ATOMIC CHARGES
----------------------
   0 C :   -0.000040
   1 O :   -0.000125
   2 H :   -0.003370
   3 H :   -0.000002
   4 H :   -0.000007
   5 H :   -0.000001
   6 C :   -0.384879
   7 O :   -0.083363
   8 H :    0.170999
   9 H :    0.097476
  10 H :    0.099143
  11 H :    0.104169

  Mayer bond orders larger than 0.1
B(  6-C ,  7-O ) :   1.0004 B(  6-C ,  9-H ) :   0.9760 B(  6-C , 10-H ) :   0.9771
B(  6-C , 11-H ) :   0.9751 B(  7-O ,  8-H ) :   0.8976

Dispersion correction           -0.000257281
FINAL SINGLE POINT ENERGY      -115.735427779820

DIPOLE MOMENT
-------------
                                X             Y             Z
Electronic contribution:     -0.01159       1.66127      -0.78919
Nuclear contribution   :     -0.11824      -2.24337       0.47795
                        -----------------------------------------
Total Dipole Moment    :     -0.12982      -0.58210      -0.31124
                        -----------------------------------------
Magnitude (a.u.)       :      0.67273
Magnitude (Debye)      :      1.70994

Rotational constants in cm-1:     4.289664     0.821684     0.789215
Rotational constants in MHz : 128600.880621 24633.464854 23660.077825

                             ****ORCA TERMINATED NORMALLY****
TOTAL RUN TIME: 0 days 0 hours 6 minutes 21 seconds 756 msec
