                         Program Version 4.1.2  - RELEASE  -
|  1> #Run DFT-D3 single point of the dimer
|  2> ! wB97X-D3 def2-TZVP TIGHTSCF CHELPG PMODEL PAL8
|  3>
|  4> %base "6-106_DFT_AB"
|  5>
|  6> %scf
|  7> MaxIter 1000
|  8> end
|  9>
| 10> * xyz 0 1
| 11>   C                      3.529877             9.232706             -3.207251
| 12>   O                      4.863596             9.674193             -2.807178
| 13>   H                      5.455587             9.027773             -3.182617
| 14>   H                      3.334047             9.461608             -4.247411
| 15>   H                      3.300273             8.202536             -2.897719
| 16>   H                      2.726748             9.884370             -2.661681
| 17>   C                      7.979355             10.539657            -1.674180
| 18>   O                      7.395987             11.167816            -2.753438
| 19>   H                      6.620178             10.684902            -2.962992
| 20>   H                      7.322620             10.332398            -0.809915
| 21>   H                      8.598384             9.662640             -1.905952
| 22>   H                      8.736570             11.278372            -1.358240
| 23> *
| 24>
| 25> #Run DFT-D3 single point of the molecule with dimer basis set
| 26> $new_job
| 27> %base "6-106_DFT_A"
| 28> ! wB97X-D3 def2-TZVP TIGHTSCF CHELPG PMODEL
| 29>
| 30> %scf
| 31> MaxIter 1000
| 32> end
| 33>
| 34> * xyz 0 1
| 35>   C                      3.529877             9.232706             -3.207251
| 36>   O                      4.863596             9.674193             -2.807178
| 37>   H                      5.455587             9.027773             -3.182617
| 38>   H                      3.334047             9.461608             -4.247411
| 39>   H                      3.300273             8.202536             -2.897719
| 40>   H                      2.726748             9.884370             -2.661681
| 41>   C                    : 7.979355             10.539657            -1.674180
| 42>   O                    : 7.395987             11.167816            -2.753438
| 43>   H                    : 6.620178             10.684902            -2.962992
| 44>   H                    : 7.322620             10.332398            -0.809915
| 45>   H                    : 8.598384             9.662640             -1.905952
| 46>   H                    : 8.736570             11.278372            -1.358240
| 47> *
| 48>
| 49> #Run DFT-D3 single point of the particle with dimer basis set
| 50> $new_job
| 51> %base "6-106_DFT_B"
| 52> ! wB97X-D3 def2-TZVP TIGHTSCF CHELPG PMODEL
| 53>
| 54> %scf
| 55> MaxIter 1000
| 56> end
| 57>
| 58> * xyz 0 1
| 59>   C                    : 3.529877             9.232706             -3.207251
| 60>   O                    : 4.863596             9.674193             -2.807178
| 61>   H                    : 5.455587             9.027773             -3.182617
| 62>   H                    : 3.334047             9.461608             -4.247411
| 63>   H                    : 3.300273             8.202536             -2.897719
| 64>   H                    : 2.726748             9.884370             -2.661681
| 65>   C                      7.979355             10.539657            -1.674180
| 66>   O                      7.395987             11.167816            -2.753438
| 67>   H                      6.620178             10.684902            -2.962992
| 68>   H                      7.322620             10.332398            -0.809915
| 69>   H                      8.598384             9.662640             -1.905952
| 70>   H                      8.736570             11.278372            -1.358240
| 71> *
| 72>
| 73>                          ****END OF INPUT****
 Total Charge           Charge          ....    0
 Multiplicity           Mult            ....    1
 Number of Electrons    NEL             ....   36
Dispersion correction           -0.001606465
FINAL SINGLE POINT ENERGY      -231.467660791363
Dispersion correction           -0.000270485
FINAL SINGLE POINT ENERGY      -115.730886383318

CARTESIAN COORDINATES (ANGSTROEM)
---------------------------------
  C      3.529877    9.232706   -3.207251
  O      4.863596    9.674193   -2.807178
  H      5.455587    9.027773   -3.182617
  H      3.334047    9.461608   -4.247411
  H      3.300273    8.202536   -2.897719
  H      2.726748    9.884370   -2.661681
  C      7.979355   10.539657   -1.674180
  O      7.395987   11.167816   -2.753438
  H      6.620178   10.684902   -2.962992
  H      7.322620   10.332398   -0.809915
  H      8.598384    9.662640   -1.905952
  H      8.736570   11.278372   -1.358240

 Multiplicity           Mult            ....    1
 Number of Electrons    NEL             ....   18
 Basis Dimension        Dim             ....  172

ORBITAL ENERGIES
----------------

  NO   OCC          E(Eh)            E(eV)
   0   2.0000     -19.232463      -523.3419
   1   2.0000     -10.311206      -280.5822
   2   2.0000      -1.155104       -31.4320
   3   2.0000      -0.795581       -21.6489
   4   2.0000      -0.621674       -16.9166
   5   2.0000      -0.546693       -14.8763
   6   2.0000      -0.525924       -14.3111
   7   2.0000      -0.432478       -11.7683
   8   2.0000      -0.375974       -10.2308
   9   0.0000       0.072063         1.9609
  10   0.0000       0.125363         3.4113
  11   0.0000       0.153926         4.1885
  12   0.0000       0.179308         4.8792
  13   0.0000       0.190107         5.1731

MULLIKEN ATOMIC CHARGES
-----------------------
   0 C :   -0.000860
   1 O :   -0.004704
   2 H :   -0.002204
   3 H :    0.000005
   4 H :   -0.000010
   5 H :    0.000045
   6 C :   -0.169795
   7 O :   -0.452620
   8 H :    0.311267
   9 H :    0.102846
  10 H :    0.098154
  11 H :    0.117878
Sum of atomic charges:   -0.0000000

LOEWDIN ATOMIC CHARGES
----------------------
   0 C :   -0.000804
   1 O :   -0.015609
   2 H :   -0.005024
   3 H :   -0.000026
   4 H :   -0.000019
   5 H :   -0.000018
   6 C :   -0.421722
   7 O :   -0.023988
   8 H :    0.162542
   9 H :    0.096911
  10 H :    0.093738
  11 H :    0.114020

  Mayer bond orders larger than 0.1
B(  6-C ,  7-O ) :   0.9965 B(  6-C ,  9-H ) :   0.9704 B(  6-C , 10-H ) :   0.9701
B(  6-C , 11-H ) :   0.9816 B(  7-O ,  8-H ) :   0.9136

Dispersion correction           -0.000241047
FINAL SINGLE POINT ENERGY      -115.733167940723

DIPOLE MOMENT
-------------
                                X             Y             Z
Electronic contribution:     -0.83755       0.82176      -1.47336
Nuclear contribution   :      0.56447      -1.33657       1.73530
                        -----------------------------------------
Total Dipole Moment    :     -0.27307      -0.51481       0.26194
                        -----------------------------------------
Magnitude (a.u.)       :      0.63892
Magnitude (Debye)      :      1.62400

Rotational constants in cm-1:     4.336340     0.863894     0.833433
Rotational constants in MHz : 130000.190730 25898.887153 24985.702553

                             ****ORCA TERMINATED NORMALLY****
TOTAL RUN TIME: 0 days 0 hours 1 minutes 5 seconds 953 msec
