                         Program Version 4.1.2  - RELEASE  -
|  1> #Run DFT-D3 single point of the dimer
|  2> ! wB97X-D3 def2-TZVP TIGHTSCF CHELPG PMODEL PAL8
|  3>
|  4> %base "14-149_DFT_AB"
|  5>
|  6> %scf
|  7> MaxIter 1000
|  8> end
|  9>
| 10> * xyz 0 1
| 11>   C                      -4.693738            -9.960927            -0.143126
| 12>   O                      -5.810414            -10.764771           0.021449
| 13>   H                      -5.463451            -11.665222           0.116989
| 14>   H                      -3.954437            -10.168414           0.577777
| 15>   H                      -4.210351            -10.245416           -1.111892
| 16>   H                      -4.893155            -8.871714            -0.233285
| 17>   C                      -1.178175            -10.110330           1.502655
| 18>   O                      -1.274669            -10.312085           0.139853
| 19>   H                      -0.759900            -9.668874            -0.270722
| 20>   H                      -0.315146            -10.622235           1.892536
| 21>   H                      -1.197037            -9.023863            1.820103
| 22>   H                      -2.119400            -10.450753           2.053962
| 23> *
| 24>
| 25> #Run DFT-D3 single point of the molecule with dimer basis set
| 26> $new_job
| 27> %base "14-149_DFT_A"
| 28> ! wB97X-D3 def2-TZVP TIGHTSCF CHELPG PMODEL
| 29>
| 30> %scf
| 31> MaxIter 1000
| 32> end
| 33>
| 34> * xyz 0 1
| 35>   C                      -4.693738            -9.960927            -0.143126
| 36>   O                      -5.810414            -10.764771           0.021449
| 37>   H                      -5.463451            -11.665222           0.116989
| 38>   H                      -3.954437            -10.168414           0.577777
| 39>   H                      -4.210351            -10.245416           -1.111892
| 40>   H                      -4.893155            -8.871714            -0.233285
| 41>   C                    : -1.178175            -10.110330           1.502655
| 42>   O                    : -1.274669            -10.312085           0.139853
| 43>   H                    : -0.759900            -9.668874            -0.270722
| 44>   H                    : -0.315146            -10.622235           1.892536
| 45>   H                    : -1.197037            -9.023863            1.820103
| 46>   H                    : -2.119400            -10.450753           2.053962
| 47> *
| 48>
| 49> #Run DFT-D3 single point of the particle with dimer basis set
| 50> $new_job
| 51> %base "14-149_DFT_B"
| 52> ! wB97X-D3 def2-TZVP TIGHTSCF CHELPG PMODEL
| 53>
| 54> %scf
| 55> MaxIter 1000
| 56> end
| 57>
| 58> * xyz 0 1
| 59>   C                    : -4.693738            -9.960927            -0.143126
| 60>   O                    : -5.810414            -10.764771           0.021449
| 61>   H                    : -5.463451            -11.665222           0.116989
| 62>   H                    : -3.954437            -10.168414           0.577777
| 63>   H                    : -4.210351            -10.245416           -1.111892
| 64>   H                    : -4.893155            -8.871714            -0.233285
| 65>   C                      -1.178175            -10.110330           1.502655
| 66>   O                      -1.274669            -10.312085           0.139853
| 67>   H                      -0.759900            -9.668874            -0.270722
| 68>   H                      -0.315146            -10.622235           1.892536
| 69>   H                      -1.197037            -9.023863            1.820103
| 70>   H                      -2.119400            -10.450753           2.053962
| 71> *
| 72>
| 73>                          ****END OF INPUT****
 Total Charge           Charge          ....    0
 Multiplicity           Mult            ....    1
 Number of Electrons    NEL             ....   36
Dispersion correction           -0.001727737
FINAL SINGLE POINT ENERGY      -231.463061332410
Dispersion correction           -0.000212157
FINAL SINGLE POINT ENERGY      -115.731040422754

CARTESIAN COORDINATES (ANGSTROEM)
---------------------------------
  C     -4.693738   -9.960927   -0.143126
  O     -5.810414  -10.764771    0.021449
  H     -5.463451  -11.665222    0.116989
  H     -3.954437  -10.168414    0.577777
  H     -4.210351  -10.245416   -1.111892
  H     -4.893155   -8.871714   -0.233285
  C     -1.178175  -10.110330    1.502655
  O     -1.274669  -10.312085    0.139853
  H     -0.759900   -9.668874   -0.270722
  H     -0.315146  -10.622235    1.892536
  H     -1.197037   -9.023863    1.820103
  H     -2.119400  -10.450753    2.053962

 Multiplicity           Mult            ....    1
 Number of Electrons    NEL             ....   18
 Basis Dimension        Dim             ....  172

ORBITAL ENERGIES
----------------

  NO   OCC          E(Eh)            E(eV)
   0   2.0000     -19.229532      -523.2622
   1   2.0000     -10.317606      -280.7563
   2   2.0000      -1.157129       -31.4871
   3   2.0000      -0.794085       -21.6082
   4   2.0000      -0.620486       -16.8843
   5   2.0000      -0.554861       -15.0985
   6   2.0000      -0.525316       -14.2946
   7   2.0000      -0.422817       -11.5054
   8   2.0000      -0.378149       -10.2899
   9   0.0000       0.094640         2.5753
  10   0.0000       0.127116         3.4590
  11   0.0000       0.151936         4.1344
  12   0.0000       0.173742         4.7277
  13   0.0000       0.193488         5.2651

MULLIKEN ATOMIC CHARGES
-----------------------
   0 C :   -0.002087
   1 O :   -0.000074
   2 H :   -0.000112
   3 H :    0.004773
   4 H :   -0.003029
   5 H :   -0.000244
   6 C :   -0.179980
   7 O :   -0.451172
   8 H :    0.310230
   9 H :    0.112159
  10 H :    0.099096
  11 H :    0.110440
Sum of atomic charges:   -0.0000000

LOEWDIN ATOMIC CHARGES
----------------------
   0 C :   -0.007892
   1 O :   -0.000040
   2 H :   -0.000015
   3 H :   -0.005695
   4 H :   -0.002270
   5 H :   -0.000144
   6 C :   -0.418622
   7 O :   -0.021713
   8 H :    0.147474
   9 H :    0.091522
  10 H :    0.101107
  11 H :    0.116288

  Mayer bond orders larger than 0.1
B(  6-C ,  7-O ) :   1.0013 B(  6-C ,  9-H ) :   0.9752 B(  6-C , 10-H ) :   0.9774
B(  6-C , 11-H ) :   0.9747 B(  7-O ,  8-H ) :   0.9060

Dispersion correction           -0.000238893
FINAL SINGLE POINT ENERGY      -115.730267964601

DIPOLE MOMENT
-------------
                                X             Y             Z
Electronic contribution:     -0.07459      -0.42614      -1.88620
Nuclear contribution   :      0.44338       0.93031       2.12158
                        -----------------------------------------
Total Dipole Moment    :      0.36879       0.50417       0.23538
                        -----------------------------------------
Magnitude (a.u.)       :      0.66753
Magnitude (Debye)      :      1.69673

Rotational constants in cm-1:     4.290169     0.849572     0.830664
Rotational constants in MHz : 128616.038540 25469.531888 24902.691931

                             ****ORCA TERMINATED NORMALLY****
TOTAL RUN TIME: 0 days 0 hours 1 minutes 8 seconds 844 msec
