                         Program Version 4.1.2  - RELEASE  -
|  1> #Run DFT-D3 single point of the dimer
|  2> ! wB97X-D3 def2-TZVP TIGHTSCF CHELPG PMODEL PAL8
|  3>
|  4> %base "12-106_DFT_AB"
|  5>
|  6> %scf
|  7> MaxIter 1000
|  8> end
|  9>
| 10> * xyz 0 1
| 11>   C                      -4.396208            -10.088231           7.968100
| 12>   O                      -4.541358            -10.043016           9.397026
| 13>   H                      -5.374781            -10.508898           9.367996
| 14>   H                      -3.640328            -10.774000           7.645287
| 15>   H                      -5.301122            -10.360672           7.370571
| 16>   H                      -4.204147            -9.012225            7.653104
| 17>   C                      -8.095396            -10.211659           8.317207
| 18>   O                      -7.396752            -10.796283           9.429227
| 19>   H                      -7.653972            -11.701212           9.623084
| 20>   H                      -7.889877            -9.188066            8.110951
| 21>   H                      -7.843025            -10.816453           7.392956
| 22>   H                      -9.178970            -10.209825           8.421834
| 23> *
| 24>
| 25> #Run DFT-D3 single point of the molecule with dimer basis set
| 26> $new_job
| 27> %base "12-106_DFT_A"
| 28> ! wB97X-D3 def2-TZVP TIGHTSCF CHELPG PMODEL
| 29>
| 30> %scf
| 31> MaxIter 1000
| 32> end
| 33>
| 34> * xyz 0 1
| 35>   C                      -4.396208            -10.088231           7.968100
| 36>   O                      -4.541358            -10.043016           9.397026
| 37>   H                      -5.374781            -10.508898           9.367996
| 38>   H                      -3.640328            -10.774000           7.645287
| 39>   H                      -5.301122            -10.360672           7.370571
| 40>   H                      -4.204147            -9.012225            7.653104
| 41>   C                    : -8.095396            -10.211659           8.317207
| 42>   O                    : -7.396752            -10.796283           9.429227
| 43>   H                    : -7.653972            -11.701212           9.623084
| 44>   H                    : -7.889877            -9.188066            8.110951
| 45>   H                    : -7.843025            -10.816453           7.392956
| 46>   H                    : -9.178970            -10.209825           8.421834
| 47> *
| 48>
| 49> #Run DFT-D3 single point of the particle with dimer basis set
| 50> $new_job
| 51> %base "12-106_DFT_B"
| 52> ! wB97X-D3 def2-TZVP TIGHTSCF CHELPG PMODEL
| 53>
| 54> %scf
| 55> MaxIter 1000
| 56> end
| 57>
| 58> * xyz 0 1
| 59>   C                    : -4.396208            -10.088231           7.968100
| 60>   O                    : -4.541358            -10.043016           9.397026
| 61>   H                    : -5.374781            -10.508898           9.367996
| 62>   H                    : -3.640328            -10.774000           7.645287
| 63>   H                    : -5.301122            -10.360672           7.370571
| 64>   H                    : -4.204147            -9.012225            7.653104
| 65>   C                      -8.095396            -10.211659           8.317207
| 66>   O                      -7.396752            -10.796283           9.429227
| 67>   H                      -7.653972            -11.701212           9.623084
| 68>   H                      -7.889877            -9.188066            8.110951
| 69>   H                      -7.843025            -10.816453           7.392956
| 70>   H                      -9.178970            -10.209825           8.421834
| 71> *
| 72>
| 73>                          ****END OF INPUT****
 Total Charge           Charge          ....    0
 Multiplicity           Mult            ....    1
 Number of Electrons    NEL             ....   36
Dispersion correction           -0.002197279
FINAL SINGLE POINT ENERGY      -231.462814491483
Dispersion correction           -0.000233979
FINAL SINGLE POINT ENERGY      -115.723782365110

CARTESIAN COORDINATES (ANGSTROEM)
---------------------------------
  C     -4.396208  -10.088231    7.968100
  O     -4.541358  -10.043016    9.397026
  H     -5.374781  -10.508898    9.367996
  H     -3.640328  -10.774000    7.645287
  H     -5.301122  -10.360672    7.370571
  H     -4.204147   -9.012225    7.653104
  C     -8.095396  -10.211659    8.317207
  O     -7.396752  -10.796283    9.429227
  H     -7.653972  -11.701212    9.623084
  H     -7.889877   -9.188066    8.110951
  H     -7.843025  -10.816453    7.392956
  H     -9.178970  -10.209825    8.421834

 Multiplicity           Mult            ....    1
 Number of Electrons    NEL             ....   18
 Basis Dimension        Dim             ....  172

ORBITAL ENERGIES
----------------

  NO   OCC          E(Eh)            E(eV)
   0   2.0000     -19.229898      -523.2721
   1   2.0000     -10.317532      -280.7543
   2   2.0000      -1.125825       -30.6352
   3   2.0000      -0.801546       -21.8112
   4   2.0000      -0.608368       -16.5545
   5   2.0000      -0.539451       -14.6792
   6   2.0000      -0.528379       -14.3779
   7   2.0000      -0.426141       -11.5959
   8   2.0000      -0.373352       -10.1594
   9   0.0000       0.096492         2.6257
  10   0.0000       0.126819         3.4509
  11   0.0000       0.147189         4.0052
  12   0.0000       0.186602         5.0777
  13   0.0000       0.199843         5.4380

MULLIKEN ATOMIC CHARGES
-----------------------
   0 C :   -0.000854
   1 O :   -0.000230
   2 H :   -0.009042
   3 H :    0.000268
   4 H :    0.001606
   5 H :   -0.000453
   6 C :   -0.172248
   7 O :   -0.490822
   8 H :    0.321657
   9 H :    0.129931
  10 H :    0.105773
  11 H :    0.114414
Sum of atomic charges:   -0.0000000

LOEWDIN ATOMIC CHARGES
----------------------
   0 C :   -0.005185
   1 O :   -0.004262
   2 H :   -0.036068
   3 H :   -0.000027
   4 H :   -0.003245
   5 H :   -0.000091
   6 C :   -0.364120
   7 O :   -0.059346
   8 H :    0.167658
   9 H :    0.103317
  10 H :    0.105468
  11 H :    0.095900

  Mayer bond orders larger than 0.1
B(  6-C ,  7-O ) :   0.9765 B(  6-C ,  9-H ) :   0.9718 B(  6-C , 10-H ) :   0.9840
B(  6-C , 11-H ) :   0.9676 B(  7-O ,  8-H ) :   0.8897

Dispersion correction           -0.000272058
FINAL SINGLE POINT ENERGY      -115.730941947394

DIPOLE MOMENT
-------------
                                X             Y             Z
Electronic contribution:      0.96928      -0.53024       1.50867
Nuclear contribution   :     -1.45496       0.21498      -1.84594
                        -----------------------------------------
Total Dipole Moment    :     -0.48568      -0.31526      -0.33727
                        -----------------------------------------
Magnitude (a.u.)       :      0.67010
Magnitude (Debye)      :      1.70325

Rotational constants in cm-1:     4.466500     0.790776     0.770687
Rotational constants in MHz : 133902.299515 23706.861641 23104.617598

                             ****ORCA TERMINATED NORMALLY****
TOTAL RUN TIME: 0 days 0 hours 1 minutes 8 seconds 647 msec
