                         Program Version 4.1.2  - RELEASE  -
|  1> #Run DFT-D3 single point of the dimer
|  2> ! wB97X-D3 def2-TZVP TIGHTSCF CHELPG PMODEL PAL8
|  3>
|  4> %base "15-111_DFT_AB"
|  5>
|  6> %scf
|  7> MaxIter 1000
|  8> end
|  9>
| 10> * xyz 0 1
| 11>   C                      3.793136             -2.119971            5.263232
| 12>   O                      4.220589             -3.495471            5.145390
| 13>   H                      3.619160             -3.900213            4.545235
| 14>   H                      3.588674             -1.651833            4.345481
| 15>   H                      2.919482             -2.042182            5.867256
| 16>   H                      4.566814             -1.552746            5.743861
| 17>   C                      4.782454             -7.749446            2.341077
| 18>   O                      4.729057             -7.195487            3.633504
| 19>   H                      5.558203             -7.561001            3.976243
| 20>   H                      4.043059             -7.129505            1.759039
| 21>   H                      5.773346             -7.555535            1.845416
| 22>   H                      4.616473             -8.806187            2.357449
| 23> *
| 24>
| 25> #Run DFT-D3 single point of the molecule with dimer basis set
| 26> $new_job
| 27> %base "15-111_DFT_A"
| 28> ! wB97X-D3 def2-TZVP TIGHTSCF CHELPG PMODEL
| 29>
| 30> %scf
| 31> MaxIter 1000
| 32> end
| 33>
| 34> * xyz 0 1
| 35>   C                      3.793136             -2.119971            5.263232
| 36>   O                      4.220589             -3.495471            5.145390
| 37>   H                      3.619160             -3.900213            4.545235
| 38>   H                      3.588674             -1.651833            4.345481
| 39>   H                      2.919482             -2.042182            5.867256
| 40>   H                      4.566814             -1.552746            5.743861
| 41>   C                    : 4.782454             -7.749446            2.341077
| 42>   O                    : 4.729057             -7.195487            3.633504
| 43>   H                    : 5.558203             -7.561001            3.976243
| 44>   H                    : 4.043059             -7.129505            1.759039
| 45>   H                    : 5.773346             -7.555535            1.845416
| 46>   H                    : 4.616473             -8.806187            2.357449
| 47> *
| 48>
| 49> #Run DFT-D3 single point of the particle with dimer basis set
| 50> $new_job
| 51> %base "15-111_DFT_B"
| 52> ! wB97X-D3 def2-TZVP TIGHTSCF CHELPG PMODEL
| 53>
| 54> %scf
| 55> MaxIter 1000
| 56> end
| 57>
| 58> * xyz 0 1
| 59>   C                    : 3.793136             -2.119971            5.263232
| 60>   O                    : 4.220589             -3.495471            5.145390
| 61>   H                    : 3.619160             -3.900213            4.545235
| 62>   H                    : 3.588674             -1.651833            4.345481
| 63>   H                    : 2.919482             -2.042182            5.867256
| 64>   H                    : 4.566814             -1.552746            5.743861
| 65>   C                      4.782454             -7.749446            2.341077
| 66>   O                      4.729057             -7.195487            3.633504
| 67>   H                      5.558203             -7.561001            3.976243
| 68>   H                      4.043059             -7.129505            1.759039
| 69>   H                      5.773346             -7.555535            1.845416
| 70>   H                      4.616473             -8.806187            2.357449
| 71> *
| 72>
| 73>                          ****END OF INPUT****
 Total Charge           Charge          ....    0
 Multiplicity           Mult            ....    1
 Number of Electrons    NEL             ....   36
Dispersion correction           -0.000744497
FINAL SINGLE POINT ENERGY      -231.465088678977
Dispersion correction           -0.000236627
FINAL SINGLE POINT ENERGY      -115.734046268012

CARTESIAN COORDINATES (ANGSTROEM)
---------------------------------
  C      3.793136   -2.119971    5.263232
  O      4.220589   -3.495471    5.145390
  H      3.619160   -3.900213    4.545235
  H      3.588674   -1.651833    4.345481
  H      2.919482   -2.042182    5.867256
  H      4.566814   -1.552746    5.743861
  C      4.782454   -7.749446    2.341077
  O      4.729057   -7.195487    3.633504
  H      5.558203   -7.561001    3.976243
  H      4.043059   -7.129505    1.759039
  H      5.773346   -7.555535    1.845416
  H      4.616473   -8.806187    2.357449

 Multiplicity           Mult            ....    1
 Number of Electrons    NEL             ....   18
 Basis Dimension        Dim             ....  172

ORBITAL ENERGIES
----------------

  NO   OCC          E(Eh)            E(eV)
   0   2.0000     -19.233126      -523.3600
   1   2.0000     -10.316759      -280.7333
   2   2.0000      -1.144384       -31.1403
   3   2.0000      -0.785844       -21.3839
   4   2.0000      -0.613252       -16.6874
   5   2.0000      -0.550530       -14.9807
   6   2.0000      -0.515121       -14.0172
   7   2.0000      -0.440198       -11.9784
   8   2.0000      -0.375356       -10.2140
   9   0.0000       0.094286         2.5656
  10   0.0000       0.110944         3.0189
  11   0.0000       0.158127         4.3028
  12   0.0000       0.174537         4.7494
  13   0.0000       0.194802         5.3008

MULLIKEN ATOMIC CHARGES
-----------------------
   0 C :    0.000060
   1 O :   -0.000149
   2 H :   -0.001676
   3 H :   -0.000010
   4 H :   -0.000006
   5 H :    0.000008
   6 C :   -0.178265
   7 O :   -0.455454
   8 H :    0.312272
   9 H :    0.116036
  10 H :    0.098904
  11 H :    0.108280
Sum of atomic charges:   -0.0000000

LOEWDIN ATOMIC CHARGES
----------------------
   0 C :   -0.000013
   1 O :   -0.000340
   2 H :   -0.001247
   3 H :   -0.000000
   4 H :   -0.000000
   5 H :   -0.000001
   6 C :   -0.402833
   7 O :   -0.075762
   8 H :    0.177925
   9 H :    0.116112
  10 H :    0.097878
  11 H :    0.088282

  Mayer bond orders larger than 0.1
B(  6-C ,  7-O ) :   0.9954 B(  6-C ,  9-H ) :   0.9768 B(  6-C , 10-H ) :   0.9782
B(  6-C , 11-H ) :   0.9678 B(  7-O ,  8-H ) :   0.9040

Dispersion correction           -0.000209024
FINAL SINGLE POINT ENERGY      -115.730361683397

DIPOLE MOMENT
-------------
                                X             Y             Z
Electronic contribution:     -0.27656       0.65218       1.67223
Nuclear contribution   :      0.80560      -1.07852      -1.94180
                        -----------------------------------------
Total Dipole Moment    :      0.52904      -0.42634      -0.26957
                        -----------------------------------------
Magnitude (a.u.)       :      0.73097
Magnitude (Debye)      :      1.85797

Rotational constants in cm-1:     4.040541     0.857108     0.819615
Rotational constants in MHz : 121132.365214 25695.437007 24571.435180

                             ****ORCA TERMINATED NORMALLY****
TOTAL RUN TIME: 0 days 0 hours 0 minutes 51 seconds 891 msec
