                         Program Version 4.1.2  - RELEASE  -
|  1> #Run DFT-D3 single point of the dimer
|  2> ! wB97X-D3 def2-TZVP TIGHTSCF CHELPG PMODEL PAL8
|  3>
|  4> %base "8-160_DFT_AB"
|  5>
|  6> %scf
|  7> MaxIter 1000
|  8> end
|  9>
| 10> * xyz 0 1
| 11>   C                      -10.563667           -2.694022            4.076849
| 12>   O                      -10.726580           -2.759619            2.692413
| 13>   H                      -11.648647           -2.720324            2.456539
| 14>   H                      -9.477733            -2.650825            4.236051
| 15>   H                      -10.948630           -1.717794            4.455259
| 16>   H                      -11.021209           -3.540339            4.588357
| 17>   C                      -8.722772            -5.701760            3.170103
| 18>   O                      -8.851044            -5.193375            1.913721
| 19>   H                      -9.216482            -4.245808            1.955652
| 20>   H                      -8.257853            -6.713233            3.098251
| 21>   H                      -8.085925            -5.080050            3.783799
| 22>   H                      -9.657837            -5.779240            3.644366
| 23> *
| 24>
| 25> #Run DFT-D3 single point of the molecule with dimer basis set
| 26> $new_job
| 27> %base "8-160_DFT_A"
| 28> ! wB97X-D3 def2-TZVP TIGHTSCF CHELPG PMODEL
| 29>
| 30> %scf
| 31> MaxIter 1000
| 32> end
| 33>
| 34> * xyz 0 1
| 35>   C                      -10.563667           -2.694022            4.076849
| 36>   O                      -10.726580           -2.759619            2.692413
| 37>   H                      -11.648647           -2.720324            2.456539
| 38>   H                      -9.477733            -2.650825            4.236051
| 39>   H                      -10.948630           -1.717794            4.455259
| 40>   H                      -11.021209           -3.540339            4.588357
| 41>   C                    : -8.722772            -5.701760            3.170103
| 42>   O                    : -8.851044            -5.193375            1.913721
| 43>   H                    : -9.216482            -4.245808            1.955652
| 44>   H                    : -8.257853            -6.713233            3.098251
| 45>   H                    : -8.085925            -5.080050            3.783799
| 46>   H                    : -9.657837            -5.779240            3.644366
| 47> *
| 48>
| 49> #Run DFT-D3 single point of the particle with dimer basis set
| 50> $new_job
| 51> %base "8-160_DFT_B"
| 52> ! wB97X-D3 def2-TZVP TIGHTSCF CHELPG PMODEL
| 53>
| 54> %scf
| 55> MaxIter 1000
| 56> end
| 57>
| 58> * xyz 0 1
| 59>   C                    : -10.563667           -2.694022            4.076849
| 60>   O                    : -10.726580           -2.759619            2.692413
| 61>   H                    : -11.648647           -2.720324            2.456539
| 62>   H                    : -9.477733            -2.650825            4.236051
| 63>   H                    : -10.948630           -1.717794            4.455259
| 64>   H                    : -11.021209           -3.540339            4.588357
| 65>   C                      -8.722772            -5.701760            3.170103
| 66>   O                      -8.851044            -5.193375            1.913721
| 67>   H                      -9.216482            -4.245808            1.955652
| 68>   H                      -8.257853            -6.713233            3.098251
| 69>   H                      -8.085925            -5.080050            3.783799
| 70>   H                      -9.657837            -5.779240            3.644366
| 71> *
| 72>
| 73>                          ****END OF INPUT****
 Total Charge           Charge          ....    0
 Multiplicity           Mult            ....    1
 Number of Electrons    NEL             ....   36
Dispersion correction           -0.002235515
FINAL SINGLE POINT ENERGY      -231.474904799261
Dispersion correction           -0.000233484
FINAL SINGLE POINT ENERGY      -115.736439183801

CARTESIAN COORDINATES (ANGSTROEM)
---------------------------------
  C    -10.563667   -2.694022    4.076849
  O    -10.726580   -2.759619    2.692413
  H    -11.648647   -2.720324    2.456539
  H     -9.477733   -2.650825    4.236051
  H    -10.948630   -1.717794    4.455259
  H    -11.021209   -3.540339    4.588357
  C     -8.722772   -5.701760    3.170103
  O     -8.851044   -5.193375    1.913721
  H     -9.216482   -4.245808    1.955652
  H     -8.257853   -6.713233    3.098251
  H     -8.085925   -5.080050    3.783799
  H     -9.657837   -5.779240    3.644366

 Multiplicity           Mult            ....    1
 Number of Electrons    NEL             ....   18
 Basis Dimension        Dim             ....  172

ORBITAL ENERGIES
----------------

  NO   OCC          E(Eh)            E(eV)
   0   2.0000     -19.231793      -523.3237
   1   2.0000     -10.303334      -280.3680
   2   2.0000      -1.142174       -31.0801
   3   2.0000      -0.789940       -21.4954
   4   2.0000      -0.616310       -16.7707
   5   2.0000      -0.551720       -15.0131
   6   2.0000      -0.530366       -14.4320
   7   2.0000      -0.424999       -11.5648
   8   2.0000      -0.368616       -10.0306
   9   0.0000       0.066805         1.8179
  10   0.0000       0.133703         3.6382
  11   0.0000       0.143854         3.9145
  12   0.0000       0.165379         4.5002
  13   0.0000       0.192534         5.2391

MULLIKEN ATOMIC CHARGES
-----------------------
   0 C :   -0.000220
   1 O :   -0.001571
   2 H :   -0.000133
   3 H :   -0.000309
   4 H :    0.000020
   5 H :   -0.001029
   6 C :   -0.152608
   7 O :   -0.472787
   8 H :    0.318227
   9 H :    0.119040
  10 H :    0.091406
  11 H :    0.099964
Sum of atomic charges:    0.0000000

LOEWDIN ATOMIC CHARGES
----------------------
   0 C :   -0.006477
   1 O :   -0.009759
   2 H :   -0.000694
   3 H :   -0.001342
   4 H :   -0.000056
   5 H :   -0.001272
   6 C :   -0.422212
   7 O :   -0.056065
   8 H :    0.207496
   9 H :    0.115487
  10 H :    0.089891
  11 H :    0.085002

  Mayer bond orders larger than 0.1
B(  6-C ,  7-O ) :   0.9982 B(  6-C ,  9-H ) :   0.9691 B(  6-C , 10-H ) :   0.9837
B(  6-C , 11-H ) :   0.9813 B(  7-O ,  8-H ) :   0.8918

Dispersion correction           -0.000214280
FINAL SINGLE POINT ENERGY      -115.730907556869

DIPOLE MOMENT
-------------
                                X             Y             Z
Electronic contribution:     -0.15572       0.53377      -1.69046
Nuclear contribution   :     -0.02863      -0.13843       2.18230
                        -----------------------------------------
Total Dipole Moment    :     -0.18436       0.39534       0.49185
                        -----------------------------------------
Magnitude (a.u.)       :      0.65741
Magnitude (Debye)      :      1.67101

Rotational constants in cm-1:     4.275918     0.887896     0.845977
Rotational constants in MHz : 128188.787204 26618.456971 25361.762588

                             ****ORCA TERMINATED NORMALLY****
TOTAL RUN TIME: 0 days 0 hours 0 minutes 48 seconds 676 msec
