                         Program Version 4.1.2  - RELEASE  -
|  1> #Run DFT-D3 single point of the dimer
|  2> ! wB97X-D3 def2-TZVP TIGHTSCF CHELPG PMODEL PAL8
|  3>
|  4> %base "2-133_DFT_AB"
|  5>
|  6> %scf
|  7> MaxIter 1000
|  8> end
|  9>
| 10> * xyz 0 1
| 11>   C                      0.388477             4.100360             7.695616
| 12>   O                      -0.947411            4.692757             7.944071
| 13>   H                      -1.091817            5.388982             7.292805
| 14>   H                      1.164795             4.910124             7.802517
| 15>   H                      0.723529             3.246645             8.329768
| 16>   H                      0.383064             3.620852             6.668489
| 17>   C                      3.420533             6.297204             5.717172
| 18>   O                      2.552240             6.255611             4.552327
| 19>   H                      3.144058             6.201157             3.813255
| 20>   H                      4.220448             5.524893             5.714721
| 21>   H                      4.002737             7.205981             5.743361
| 22>   H                      2.827530             6.360837             6.689454
| 23> *
| 24>
| 25> #Run DFT-D3 single point of the molecule with dimer basis set
| 26> $new_job
| 27> %base "2-133_DFT_A"
| 28> ! wB97X-D3 def2-TZVP TIGHTSCF CHELPG PMODEL
| 29>
| 30> %scf
| 31> MaxIter 1000
| 32> end
| 33>
| 34> * xyz 0 1
| 35>   C                      0.388477             4.100360             7.695616
| 36>   O                      -0.947411            4.692757             7.944071
| 37>   H                      -1.091817            5.388982             7.292805
| 38>   H                      1.164795             4.910124             7.802517
| 39>   H                      0.723529             3.246645             8.329768
| 40>   H                      0.383064             3.620852             6.668489
| 41>   C                    : 3.420533             6.297204             5.717172
| 42>   O                    : 2.552240             6.255611             4.552327
| 43>   H                    : 3.144058             6.201157             3.813255
| 44>   H                    : 4.220448             5.524893             5.714721
| 45>   H                    : 4.002737             7.205981             5.743361
| 46>   H                    : 2.827530             6.360837             6.689454
| 47> *
| 48>
| 49> #Run DFT-D3 single point of the particle with dimer basis set
| 50> $new_job
| 51> %base "2-133_DFT_B"
| 52> ! wB97X-D3 def2-TZVP TIGHTSCF CHELPG PMODEL
| 53>
| 54> %scf
| 55> MaxIter 1000
| 56> end
| 57>
| 58> * xyz 0 1
| 59>   C                    : 0.388477             4.100360             7.695616
| 60>   O                    : -0.947411            4.692757             7.944071
| 61>   H                    : -1.091817            5.388982             7.292805
| 62>   H                    : 1.164795             4.910124             7.802517
| 63>   H                    : 0.723529             3.246645             8.329768
| 64>   H                    : 0.383064             3.620852             6.668489
| 65>   C                      3.420533             6.297204             5.717172
| 66>   O                      2.552240             6.255611             4.552327
| 67>   H                      3.144058             6.201157             3.813255
| 68>   H                      4.220448             5.524893             5.714721
| 69>   H                      4.002737             7.205981             5.743361
| 70>   H                      2.827530             6.360837             6.689454
| 71> *
| 72>
| 73>                          ****END OF INPUT****
 Total Charge           Charge          ....    0
 Multiplicity           Mult            ....    1
 Number of Electrons    NEL             ....   36
Dispersion correction           -0.001306901
FINAL SINGLE POINT ENERGY      -231.457930280061
Dispersion correction           -0.000286752
FINAL SINGLE POINT ENERGY      -115.726670606371

CARTESIAN COORDINATES (ANGSTROEM)
---------------------------------
  C      0.388477    4.100360    7.695616
  O     -0.947411    4.692757    7.944071
  H     -1.091817    5.388982    7.292805
  H      1.164795    4.910124    7.802517
  H      0.723529    3.246645    8.329768
  H      0.383064    3.620852    6.668489
  C      3.420533    6.297204    5.717172
  O      2.552240    6.255611    4.552327
  H      3.144058    6.201157    3.813255
  H      4.220448    5.524893    5.714721
  H      4.002737    7.205981    5.743361
  H      2.827530    6.360837    6.689454

 Multiplicity           Mult            ....    1
 Number of Electrons    NEL             ....   18
 Basis Dimension        Dim             ....  172

ORBITAL ENERGIES
----------------

  NO   OCC          E(Eh)            E(eV)
   0   2.0000     -19.232981      -523.3560
   1   2.0000     -10.322650      -280.8936
   2   2.0000      -1.130534       -30.7634
   3   2.0000      -0.795003       -21.6331
   4   2.0000      -0.609114       -16.5748
   5   2.0000      -0.532597       -14.4927
   6   2.0000      -0.516733       -14.0610
   7   2.0000      -0.444496       -12.0953
   8   2.0000      -0.374216       -10.1829
   9   0.0000       0.091365         2.4862
  10   0.0000       0.118821         3.2333
  11   0.0000       0.148238         4.0338
  12   0.0000       0.168323         4.5803
  13   0.0000       0.188720         5.1353

MULLIKEN ATOMIC CHARGES
-----------------------
   0 C :    0.000940
   1 O :   -0.000031
   2 H :   -0.000049
   3 H :   -0.000661
   4 H :    0.000060
   5 H :   -0.000597
   6 C :   -0.185140
   7 O :   -0.466461
   8 H :    0.309994
   9 H :    0.106854
  10 H :    0.109674
  11 H :    0.125416
Sum of atomic charges:   -0.0000000

LOEWDIN ATOMIC CHARGES
----------------------
   0 C :   -0.001107
   1 O :   -0.000007
   2 H :   -0.000013
   3 H :   -0.003414
   4 H :   -0.000006
   5 H :   -0.000246
   6 C :   -0.369444
   7 O :   -0.095847
   8 H :    0.159702
   9 H :    0.098288
  10 H :    0.090889
  11 H :    0.121206

  Mayer bond orders larger than 0.1
B(  6-C ,  7-O ) :   0.9957 B(  6-C ,  9-H ) :   0.9738 B(  6-C , 10-H ) :   0.9737
B(  6-C , 11-H ) :   0.9724 B(  7-O ,  8-H ) :   0.9049

Dispersion correction           -0.000260724
FINAL SINGLE POINT ENERGY      -115.730182175654

DIPOLE MOMENT
-------------
                                X             Y             Z
Electronic contribution:     -1.29703      -0.14506      -1.42418
Nuclear contribution   :      2.04075       0.16291       1.42987
                        -----------------------------------------
Total Dipole Moment    :      0.74372       0.01785       0.00569
                        -----------------------------------------
Magnitude (a.u.)       :      0.74396
Magnitude (Debye)      :      1.89099

Rotational constants in cm-1:     4.256158     0.795508     0.754441
Rotational constants in MHz : 127596.393633 23848.733321 22617.574109

                             ****ORCA TERMINATED NORMALLY****
TOTAL RUN TIME: 0 days 0 hours 6 minutes 18 seconds 986 msec
