                         Program Version 4.1.2  - RELEASE  -
|  1> #Run DFT-D3 single point of the dimer
|  2> ! wB97X-D3 def2-TZVP TIGHTSCF CHELPG PMODEL PAL8
|  3>
|  4> %base "22-22_DFT_AB"
|  5>
|  6> %scf
|  7> MaxIter 1000
|  8> end
|  9>
| 10> * xyz 0 1
| 11>   C                      -0.754698            -4.429643            3.939378
| 12>   O                      -1.196798            -4.428082            5.254249
| 13>   H                      -0.395699            -4.752719            5.779728
| 14>   H                      -0.383757            -5.340087            3.635676
| 15>   H                      -1.507620            -4.118996            3.190048
| 16>   H                      0.031200             -3.762485            3.769299
| 17>   C                      -1.507390            1.154501             3.586945
| 18>   O                      -2.170510            2.402761             3.694004
| 19>   H                      -2.738338            2.516325             2.930582
| 20>   H                      -0.792150            1.052577             4.403646
| 21>   H                      -2.124443            0.255359             3.494135
| 22>   H                      -0.882122            1.146564             2.670415
| 23> *
| 24>
| 25> #Run DFT-D3 single point of the molecule with dimer basis set
| 26> $new_job
| 27> %base "22-22_DFT_A"
| 28> ! wB97X-D3 def2-TZVP TIGHTSCF CHELPG PMODEL
| 29>
| 30> %scf
| 31> MaxIter 1000
| 32> end
| 33>
| 34> * xyz 0 1
| 35>   C                      -0.754698            -4.429643            3.939378
| 36>   O                      -1.196798            -4.428082            5.254249
| 37>   H                      -0.395699            -4.752719            5.779728
| 38>   H                      -0.383757            -5.340087            3.635676
| 39>   H                      -1.507620            -4.118996            3.190048
| 40>   H                      0.031200             -3.762485            3.769299
| 41>   C                    : -1.507390            1.154501             3.586945
| 42>   O                    : -2.170510            2.402761             3.694004
| 43>   H                    : -2.738338            2.516325             2.930582
| 44>   H                    : -0.792150            1.052577             4.403646
| 45>   H                    : -2.124443            0.255359             3.494135
| 46>   H                    : -0.882122            1.146564             2.670415
| 47> *
| 48>
| 49> #Run DFT-D3 single point of the particle with dimer basis set
| 50> $new_job
| 51> %base "22-22_DFT_B"
| 52> ! wB97X-D3 def2-TZVP TIGHTSCF CHELPG PMODEL
| 53>
| 54> %scf
| 55> MaxIter 1000
| 56> end
| 57>
| 58> * xyz 0 1
| 59>   C                    : -0.754698            -4.429643            3.939378
| 60>   O                    : -1.196798            -4.428082            5.254249
| 61>   H                    : -0.395699            -4.752719            5.779728
| 62>   H                    : -0.383757            -5.340087            3.635676
| 63>   H                    : -1.507620            -4.118996            3.190048
| 64>   H                    : 0.031200             -3.762485            3.769299
| 65>   C                      -1.507390            1.154501             3.586945
| 66>   O                      -2.170510            2.402761             3.694004
| 67>   H                      -2.738338            2.516325             2.930582
| 68>   H                      -0.792150            1.052577             4.403646
| 69>   H                      -2.124443            0.255359             3.494135
| 70>   H                      -0.882122            1.146564             2.670415
| 71> *
| 72>
| 73>                          ****END OF INPUT****
 Total Charge           Charge          ....    0
 Multiplicity           Mult            ....    1
 Number of Electrons    NEL             ....   36
Dispersion correction           -0.000613588
FINAL SINGLE POINT ENERGY      -231.461644539787
Dispersion correction           -0.000214268
FINAL SINGLE POINT ENERGY      -115.726260409082

CARTESIAN COORDINATES (ANGSTROEM)
---------------------------------
  C     -0.754698   -4.429643    3.939378
  O     -1.196798   -4.428082    5.254249
  H     -0.395699   -4.752719    5.779728
  H     -0.383757   -5.340087    3.635676
  H     -1.507620   -4.118996    3.190048
  H      0.031200   -3.762485    3.769299
  C     -1.507390    1.154501    3.586945
  O     -2.170510    2.402761    3.694004
  H     -2.738338    2.516325    2.930582
  H     -0.792150    1.052577    4.403646
  H     -2.124443    0.255359    3.494135
  H     -0.882122    1.146564    2.670415

 Multiplicity           Mult            ....    1
 Number of Electrons    NEL             ....   18
 Basis Dimension        Dim             ....  172

ORBITAL ENERGIES
----------------

  NO   OCC          E(Eh)            E(eV)
   0   2.0000     -19.231742      -523.3223
   1   2.0000     -10.314981      -280.6849
   2   2.0000      -1.135847       -30.9080
   3   2.0000      -0.796388       -21.6708
   4   2.0000      -0.613947       -16.7063
   5   2.0000      -0.534831       -14.5535
   6   2.0000      -0.527213       -14.3462
   7   2.0000      -0.436918       -11.8891
   8   2.0000      -0.372730       -10.1425
   9   0.0000       0.082846         2.2544
  10   0.0000       0.115967         3.1556
  11   0.0000       0.146021         3.9734
  12   0.0000       0.165562         4.5052
  13   0.0000       0.187729         5.1084

MULLIKEN ATOMIC CHARGES
-----------------------
   0 C :   -0.000019
   1 O :    0.000003
   2 H :    0.000000
   3 H :   -0.000003
   4 H :   -0.000026
   5 H :    0.000003
   6 C :   -0.162874
   7 O :   -0.474073
   8 H :    0.314673
   9 H :    0.122177
  10 H :    0.102588
  11 H :    0.097550
Sum of atomic charges:    0.0000000

LOEWDIN ATOMIC CHARGES
----------------------
   0 C :   -0.000040
   1 O :   -0.000001
   2 H :   -0.000000
   3 H :   -0.000001
   4 H :   -0.000019
   5 H :   -0.000006
   6 C :   -0.387775
   7 O :   -0.077344
   8 H :    0.167113
   9 H :    0.108664
  10 H :    0.093036
  11 H :    0.096374

  Mayer bond orders larger than 0.1
B(  6-C ,  7-O ) :   1.0014 B(  6-C ,  9-H ) :   0.9741 B(  6-C , 10-H ) :   0.9668
B(  6-C , 11-H ) :   0.9823 B(  7-O ,  8-H ) :   0.8990

Dispersion correction           -0.000252126
FINAL SINGLE POINT ENERGY      -115.735237571424

DIPOLE MOMENT
-------------
                                X             Y             Z
Electronic contribution:     -0.90945       1.62079       0.36495
Nuclear contribution   :      0.82166      -2.04052      -0.89570
                        -----------------------------------------
Total Dipole Moment    :     -0.08779      -0.41973      -0.53075
                        -----------------------------------------
Magnitude (a.u.)       :      0.68233
Magnitude (Debye)      :      1.73435

Rotational constants in cm-1:     4.350400     0.822700     0.790308
Rotational constants in MHz : 130421.703703 24663.911999 23692.839523

                             ****ORCA TERMINATED NORMALLY****
TOTAL RUN TIME: 0 days 0 hours 0 minutes 51 seconds 766 msec
