                         Program Version 4.1.2  - RELEASE  -
|  1> #Run DFT-D3 single point of the dimer
|  2> ! wB97X-D3 def2-TZVP TIGHTSCF CHELPG PMODEL PAL8
|  3>
|  4> %base "13-134_DFT_AB"
|  5>
|  6> %scf
|  7> MaxIter 1000
|  8> end
|  9>
| 10> * xyz 0 1
| 11>   C                      -6.083136            5.885562             7.272078
| 12>   O                      -5.275935            6.974609             7.448054
| 13>   H                      -4.771461            7.052453             6.604360
| 14>   H                      -6.995972            5.890797             7.959285
| 15>   H                      -6.525911            5.758707             6.203153
| 16>   H                      -5.455596            4.991916             7.471403
| 17>   C                      -2.561850            8.333009             5.793317
| 18>   O                      -3.098374            7.684261             4.668960
| 19>   H                      -2.260752            7.229011             4.369283
| 20>   H                      -1.504505            8.534680             5.701477
| 21>   H                      -3.050513            9.317847             5.958538
| 22>   H                      -2.651462            7.682936             6.685952
| 23> *
| 24>
| 25> #Run DFT-D3 single point of the molecule with dimer basis set
| 26> $new_job
| 27> %base "13-134_DFT_A"
| 28> ! wB97X-D3 def2-TZVP TIGHTSCF CHELPG PMODEL
| 29>
| 30> %scf
| 31> MaxIter 1000
| 32> end
| 33>
| 34> * xyz 0 1
| 35>   C                      -6.083136            5.885562             7.272078
| 36>   O                      -5.275935            6.974609             7.448054
| 37>   H                      -4.771461            7.052453             6.604360
| 38>   H                      -6.995972            5.890797             7.959285
| 39>   H                      -6.525911            5.758707             6.203153
| 40>   H                      -5.455596            4.991916             7.471403
| 41>   C                    : -2.561850            8.333009             5.793317
| 42>   O                    : -3.098374            7.684261             4.668960
| 43>   H                    : -2.260752            7.229011             4.369283
| 44>   H                    : -1.504505            8.534680             5.701477
| 45>   H                    : -3.050513            9.317847             5.958538
| 46>   H                    : -2.651462            7.682936             6.685952
| 47> *
| 48>
| 49> #Run DFT-D3 single point of the particle with dimer basis set
| 50> $new_job
| 51> %base "13-134_DFT_B"
| 52> ! wB97X-D3 def2-TZVP TIGHTSCF CHELPG PMODEL
| 53>
| 54> %scf
| 55> MaxIter 1000
| 56> end
| 57>
| 58> * xyz 0 1
| 59>   C                    : -6.083136            5.885562             7.272078
| 60>   O                    : -5.275935            6.974609             7.448054
| 61>   H                    : -4.771461            7.052453             6.604360
| 62>   H                    : -6.995972            5.890797             7.959285
| 63>   H                    : -6.525911            5.758707             6.203153
| 64>   H                    : -5.455596            4.991916             7.471403
| 65>   C                      -2.561850            8.333009             5.793317
| 66>   O                      -3.098374            7.684261             4.668960
| 67>   H                      -2.260752            7.229011             4.369283
| 68>   H                      -1.504505            8.534680             5.701477
| 69>   H                      -3.050513            9.317847             5.958538
| 70>   H                      -2.651462            7.682936             6.685952
| 71> *
| 72>
| 73>                          ****END OF INPUT****
 Total Charge           Charge          ....    0
 Multiplicity           Mult            ....    1
 Number of Electrons    NEL             ....   36
Dispersion correction           -0.001608876
FINAL SINGLE POINT ENERGY      -231.462759815477
Dispersion correction           -0.000234275
FINAL SINGLE POINT ENERGY      -115.728549838510

CARTESIAN COORDINATES (ANGSTROEM)
---------------------------------
  C     -6.083136    5.885562    7.272078
  O     -5.275935    6.974609    7.448054
  H     -4.771461    7.052453    6.604360
  H     -6.995972    5.890797    7.959285
  H     -6.525911    5.758707    6.203153
  H     -5.455596    4.991916    7.471403
  C     -2.561850    8.333009    5.793317
  O     -3.098374    7.684261    4.668960
  H     -2.260752    7.229011    4.369283
  H     -1.504505    8.534680    5.701477
  H     -3.050513    9.317847    5.958538
  H     -2.651462    7.682936    6.685952

 Multiplicity           Mult            ....    1
 Number of Electrons    NEL             ....   18
 Basis Dimension        Dim             ....  172

ORBITAL ENERGIES
----------------

  NO   OCC          E(Eh)            E(eV)
   0   2.0000     -19.237313      -523.4739
   1   2.0000     -10.313861      -280.6544
   2   2.0000      -1.140313       -31.0295
   3   2.0000      -0.786132       -21.3917
   4   2.0000      -0.611716       -16.6456
   5   2.0000      -0.543529       -14.7902
   6   2.0000      -0.521667       -14.1953
   7   2.0000      -0.442246       -12.0341
   8   2.0000      -0.372878       -10.1465
   9   0.0000       0.091904         2.5008
  10   0.0000       0.113481         3.0880
  11   0.0000       0.152301         4.1443
  12   0.0000       0.183249         4.9865
  13   0.0000       0.195511         5.3201

MULLIKEN ATOMIC CHARGES
-----------------------
   0 C :   -0.001415
   1 O :   -0.000827
   2 H :    0.006023
   3 H :   -0.000031
   4 H :   -0.000148
   5 H :    0.000094
   6 C :   -0.192785
   7 O :   -0.458453
   8 H :    0.318463
   9 H :    0.113899
  10 H :    0.112331
  11 H :    0.102849
Sum of atomic charges:   -0.0000000

LOEWDIN ATOMIC CHARGES
----------------------
   0 C :   -0.000481
   1 O :   -0.001911
   2 H :   -0.009011
   3 H :   -0.000006
   4 H :   -0.000085
   5 H :   -0.000011
   6 C :   -0.407326
   7 O :   -0.080993
   8 H :    0.200176
   9 H :    0.091489
  10 H :    0.108858
  11 H :    0.099301

  Mayer bond orders larger than 0.1
B(  6-C ,  7-O ) :   1.0011 B(  6-C ,  9-H ) :   0.9827 B(  6-C , 10-H ) :   0.9742
B(  6-C , 11-H ) :   0.9760 B(  7-O ,  8-H ) :   0.8974

Dispersion correction           -0.000220814
FINAL SINGLE POINT ENERGY      -115.730153863100

DIPOLE MOMENT
-------------
                                X             Y             Z
Electronic contribution:     -0.90978      -0.76704      -1.50649
Nuclear contribution   :      1.64082       0.74560       1.72305
                        -----------------------------------------
Total Dipole Moment    :      0.73104      -0.02144       0.21656
                        -----------------------------------------
Magnitude (a.u.)       :      0.76274
Magnitude (Debye)      :      1.93874

Rotational constants in cm-1:     4.121404     0.849084     0.814251
Rotational constants in MHz : 123556.587754 25454.907777 24410.628921

                             ****ORCA TERMINATED NORMALLY****
TOTAL RUN TIME: 0 days 0 hours 1 minutes 9 seconds 665 msec
