                         Program Version 4.1.2  - RELEASE  -
|  1> #Run DFT-D3 single point of the dimer
|  2> ! wB97X-D3 def2-TZVP TIGHTSCF CHELPG PMODEL PAL8
|  3>
|  4> %base "4-157_DFT_AB"
|  5>
|  6> %scf
|  7> MaxIter 1000
|  8> end
|  9>
| 10> * xyz 0 1
| 11>   C                      -7.915814            -7.043983            -9.266207
| 12>   O                      -6.677646            -6.633447            -9.963908
| 13>   H                      -6.163080            -7.372148            -10.232655
| 14>   H                      -8.211068            -8.042217            -9.408737
| 15>   H                      -7.893419            -6.839634            -8.215290
| 16>   H                      -8.777849            -6.520638            -9.763371
| 17>   C                      -2.899596            -5.020141            -8.711415
| 18>   O                      -3.818033            -4.055808            -8.211806
| 19>   H                      -4.643098            -4.108551            -8.750757
| 20>   H                      -1.905893            -4.552004            -8.854310
| 21>   H                      -2.767546            -5.862885            -8.083960
| 22>   H                      -3.290281            -5.462093            -9.666508
| 23> *
| 24>
| 25> #Run DFT-D3 single point of the molecule with dimer basis set
| 26> $new_job
| 27> %base "4-157_DFT_A"
| 28> ! wB97X-D3 def2-TZVP TIGHTSCF CHELPG PMODEL
| 29>
| 30> %scf
| 31> MaxIter 1000
| 32> end
| 33>
| 34> * xyz 0 1
| 35>   C                      -7.915814            -7.043983            -9.266207
| 36>   O                      -6.677646            -6.633447            -9.963908
| 37>   H                      -6.163080            -7.372148            -10.232655
| 38>   H                      -8.211068            -8.042217            -9.408737
| 39>   H                      -7.893419            -6.839634            -8.215290
| 40>   H                      -8.777849            -6.520638            -9.763371
| 41>   C                    : -2.899596            -5.020141            -8.711415
| 42>   O                    : -3.818033            -4.055808            -8.211806
| 43>   H                    : -4.643098            -4.108551            -8.750757
| 44>   H                    : -1.905893            -4.552004            -8.854310
| 45>   H                    : -2.767546            -5.862885            -8.083960
| 46>   H                    : -3.290281            -5.462093            -9.666508
| 47> *
| 48>
| 49> #Run DFT-D3 single point of the particle with dimer basis set
| 50> $new_job
| 51> %base "4-157_DFT_B"
| 52> ! wB97X-D3 def2-TZVP TIGHTSCF CHELPG PMODEL
| 53>
| 54> %scf
| 55> MaxIter 1000
| 56> end
| 57>
| 58> * xyz 0 1
| 59>   C                    : -7.915814            -7.043983            -9.266207
| 60>   O                    : -6.677646            -6.633447            -9.963908
| 61>   H                    : -6.163080            -7.372148            -10.232655
| 62>   H                    : -8.211068            -8.042217            -9.408737
| 63>   H                    : -7.893419            -6.839634            -8.215290
| 64>   H                    : -8.777849            -6.520638            -9.763371
| 65>   C                      -2.899596            -5.020141            -8.711415
| 66>   O                      -3.818033            -4.055808            -8.211806
| 67>   H                      -4.643098            -4.108551            -8.750757
| 68>   H                      -1.905893            -4.552004            -8.854310
| 69>   H                      -2.767546            -5.862885            -8.083960
| 70>   H                      -3.290281            -5.462093            -9.666508
| 71> *
| 72>
| 73>                          ****END OF INPUT****
 Total Charge           Charge          ....    0
 Multiplicity           Mult            ....    1
 Number of Electrons    NEL             ....   36
Dispersion correction           -0.001107682
FINAL SINGLE POINT ENERGY      -231.463493130560
Dispersion correction           -0.000288457
FINAL SINGLE POINT ENERGY      -115.728435694609

CARTESIAN COORDINATES (ANGSTROEM)
---------------------------------
  C     -7.915814   -7.043983   -9.266207
  O     -6.677646   -6.633447   -9.963908
  H     -6.163080   -7.372148  -10.232655
  H     -8.211068   -8.042217   -9.408737
  H     -7.893419   -6.839634   -8.215290
  H     -8.777849   -6.520638   -9.763371
  C     -2.899596   -5.020141   -8.711415
  O     -3.818033   -4.055808   -8.211806
  H     -4.643098   -4.108551   -8.750757
  H     -1.905893   -4.552004   -8.854310
  H     -2.767546   -5.862885   -8.083960
  H     -3.290281   -5.462093   -9.666508

 Multiplicity           Mult            ....    1
 Number of Electrons    NEL             ....   18
 Basis Dimension        Dim             ....  172

ORBITAL ENERGIES
----------------

  NO   OCC          E(Eh)            E(eV)
   0   2.0000     -19.232036      -523.3303
   1   2.0000     -10.314603      -280.6746
   2   2.0000      -1.128351       -30.7040
   3   2.0000      -0.793500       -21.5922
   4   2.0000      -0.607461       -16.5298
   5   2.0000      -0.537472       -14.6254
   6   2.0000      -0.528573       -14.3832
   7   2.0000      -0.430853       -11.7241
   8   2.0000      -0.373035       -10.1508
   9   0.0000       0.072652         1.9769
  10   0.0000       0.112079         3.0498
  11   0.0000       0.146315         3.9814
  12   0.0000       0.170377         4.6362
  13   0.0000       0.194759         5.2997

MULLIKEN ATOMIC CHARGES
-----------------------
   0 C :   -0.000155
   1 O :   -0.000024
   2 H :   -0.000064
   3 H :   -0.000005
   4 H :   -0.000051
   5 H :    0.000009
   6 C :   -0.161122
   7 O :   -0.478704
   8 H :    0.320758
   9 H :    0.113375
  10 H :    0.110225
  11 H :    0.095758
Sum of atomic charges:   -0.0000000

LOEWDIN ATOMIC CHARGES
----------------------
   0 C :   -0.000120
   1 O :   -0.000321
   2 H :   -0.000176
   3 H :   -0.000003
   4 H :   -0.000028
   5 H :   -0.000001
   6 C :   -0.381376
   7 O :   -0.097816
   8 H :    0.184959
   9 H :    0.105738
  10 H :    0.088169
  11 H :    0.100975

  Mayer bond orders larger than 0.1
B(  6-C ,  7-O ) :   1.0107 B(  6-C ,  9-H ) :   0.9772 B(  6-C , 10-H ) :   0.9695
B(  6-C , 11-H ) :   0.9884 B(  7-O ,  8-H ) :   0.8953

Dispersion correction           -0.000253739
FINAL SINGLE POINT ENERGY      -115.732390614263

DIPOLE MOMENT
-------------
                                X             Y             Z
Electronic contribution:     -1.05322       1.29071       0.80868
Nuclear contribution   :      0.88758      -1.72191      -1.35038
                        -----------------------------------------
Total Dipole Moment    :     -0.16565      -0.43120      -0.54170
                        -----------------------------------------
Magnitude (a.u.)       :      0.71191
Magnitude (Debye)      :      1.80952

Rotational constants in cm-1:     4.253678     0.824306     0.785485
Rotational constants in MHz : 127522.047464 24712.081448 23548.255460

                             ****ORCA TERMINATED NORMALLY****
TOTAL RUN TIME: 0 days 0 hours 1 minutes 24 seconds 336 msec
