                         Program Version 4.1.2  - RELEASE  -
|  1> #Run DFT-D3 single point of the dimer
|  2> ! wB97X-D3 def2-TZVP TIGHTSCF CHELPG PMODEL PAL8
|  3>
|  4> %base "11-19_DFT_AB"
|  5>
|  6> %scf
|  7> MaxIter 1000
|  8> end
|  9>
| 10> * xyz 0 1
| 11>   C                      -9.588072            -1.444471            5.461368
| 12>   O                      -10.403230           -2.633637            5.367968
| 13>   H                      -11.278415           -2.425012            5.028035
| 14>   H                      -9.139766            -1.218325            4.490122
| 15>   H                      -10.162974           -0.559693            5.727943
| 16>   H                      -8.740249            -1.545357            6.116138
| 17>   C                      -6.242248            -0.142471            2.374967
| 18>   O                      -6.795535            0.871142             1.528577
| 19>   H                      -6.086667            1.558375             1.634918
| 20>   H                      -7.005123            -0.500635            3.005440
| 21>   H                      -5.854555            -0.967482            1.802231
| 22>   H                      -5.386707            0.238985             2.896178
| 23> *
| 24>
| 25> #Run DFT-D3 single point of the molecule with dimer basis set
| 26> $new_job
| 27> %base "11-19_DFT_A"
| 28> ! wB97X-D3 def2-TZVP TIGHTSCF CHELPG PMODEL
| 29>
| 30> %scf
| 31> MaxIter 1000
| 32> end
| 33>
| 34> * xyz 0 1
| 35>   C                      -9.588072            -1.444471            5.461368
| 36>   O                      -10.403230           -2.633637            5.367968
| 37>   H                      -11.278415           -2.425012            5.028035
| 38>   H                      -9.139766            -1.218325            4.490122
| 39>   H                      -10.162974           -0.559693            5.727943
| 40>   H                      -8.740249            -1.545357            6.116138
| 41>   C                    : -6.242248            -0.142471            2.374967
| 42>   O                    : -6.795535            0.871142             1.528577
| 43>   H                    : -6.086667            1.558375             1.634918
| 44>   H                    : -7.005123            -0.500635            3.005440
| 45>   H                    : -5.854555            -0.967482            1.802231
| 46>   H                    : -5.386707            0.238985             2.896178
| 47> *
| 48>
| 49> #Run DFT-D3 single point of the particle with dimer basis set
| 50> $new_job
| 51> %base "11-19_DFT_B"
| 52> ! wB97X-D3 def2-TZVP TIGHTSCF CHELPG PMODEL
| 53>
| 54> %scf
| 55> MaxIter 1000
| 56> end
| 57>
| 58> * xyz 0 1
| 59>   C                    : -9.588072            -1.444471            5.461368
| 60>   O                    : -10.403230           -2.633637            5.367968
| 61>   H                    : -11.278415           -2.425012            5.028035
| 62>   H                    : -9.139766            -1.218325            4.490122
| 63>   H                    : -10.162974           -0.559693            5.727943
| 64>   H                    : -8.740249            -1.545357            6.116138
| 65>   C                      -6.242248            -0.142471            2.374967
| 66>   O                      -6.795535            0.871142             1.528577
| 67>   H                      -6.086667            1.558375             1.634918
| 68>   H                      -7.005123            -0.500635            3.005440
| 69>   H                      -5.854555            -0.967482            1.802231
| 70>   H                      -5.386707            0.238985             2.896178
| 71> *
| 72>
| 73>                          ****END OF INPUT****
 Total Charge           Charge          ....    0
 Multiplicity           Mult            ....    1
 Number of Electrons    NEL             ....   36
Dispersion correction           -0.000949205
FINAL SINGLE POINT ENERGY      -231.463565886614
Dispersion correction           -0.000263343
FINAL SINGLE POINT ENERGY      -115.733678493468

CARTESIAN COORDINATES (ANGSTROEM)
---------------------------------
  C     -9.588072   -1.444471    5.461368
  O    -10.403230   -2.633637    5.367968
  H    -11.278415   -2.425012    5.028035
  H     -9.139766   -1.218325    4.490122
  H    -10.162974   -0.559693    5.727943
  H     -8.740249   -1.545357    6.116138
  C     -6.242248   -0.142471    2.374967
  O     -6.795535    0.871142    1.528577
  H     -6.086667    1.558375    1.634918
  H     -7.005123   -0.500635    3.005440
  H     -5.854555   -0.967482    1.802231
  H     -5.386707    0.238985    2.896178

 Multiplicity           Mult            ....    1
 Number of Electrons    NEL             ....   18
 Basis Dimension        Dim             ....  172

ORBITAL ENERGIES
----------------

  NO   OCC          E(Eh)            E(eV)
   0   2.0000     -19.232589      -523.3453
   1   2.0000     -10.305219      -280.4193
   2   2.0000      -1.129723       -30.7413
   3   2.0000      -0.795735       -21.6530
   4   2.0000      -0.608928       -16.5698
   5   2.0000      -0.541575       -14.7370
   6   2.0000      -0.524223       -14.2648
   7   2.0000      -0.446327       -12.1452
   8   2.0000      -0.372439       -10.1346
   9   0.0000       0.087943         2.3930
  10   0.0000       0.108217         2.9447
  11   0.0000       0.150950         4.1076
  12   0.0000       0.171124         4.6565
  13   0.0000       0.188907         5.1404

MULLIKEN ATOMIC CHARGES
-----------------------
   0 C :   -0.002460
   1 O :    0.000044
   2 H :    0.000009
   3 H :    0.003746
   4 H :    0.000067
   5 H :    0.000081
   6 C :   -0.178835
   7 O :   -0.466413
   8 H :    0.315260
   9 H :    0.118834
  10 H :    0.105185
  11 H :    0.104480
Sum of atomic charges:   -0.0000000

LOEWDIN ATOMIC CHARGES
----------------------
   0 C :   -0.000762
   1 O :   -0.000007
   2 H :   -0.000000
   3 H :   -0.001567
   4 H :   -0.000004
   5 H :   -0.000054
   6 C :   -0.368793
   7 O :   -0.103887
   8 H :    0.191377
   9 H :    0.095081
  10 H :    0.095183
  11 H :    0.093434

  Mayer bond orders larger than 0.1
B(  6-C ,  7-O ) :   1.0208 B(  6-C ,  9-H ) :   0.9750 B(  6-C , 10-H ) :   0.9759
B(  6-C , 11-H ) :   0.9928 B(  7-O ,  8-H ) :   0.9031

Dispersion correction           -0.000221183
FINAL SINGLE POINT ENERGY      -115.729357741556

DIPOLE MOMENT
-------------
                                X             Y             Z
Electronic contribution:     -0.89334       1.17290      -1.04354
Nuclear contribution   :      1.55389      -1.15480       1.44763
                        -----------------------------------------
Total Dipole Moment    :      0.66055       0.01810       0.40409
                        -----------------------------------------
Magnitude (a.u.)       :      0.77456
Magnitude (Debye)      :      1.96878

Rotational constants in cm-1:     4.283119     0.836730     0.797032
Rotational constants in MHz : 128404.680809 25084.541915 23894.414633

                             ****ORCA TERMINATED NORMALLY****
TOTAL RUN TIME: 0 days 0 hours 1 minutes 3 seconds 537 msec
