                         Program Version 4.1.2  - RELEASE  -
|  1> #Run DFT-D3 single point of the dimer
|  2> ! wB97X-D3 def2-TZVP TIGHTSCF CHELPG PMODEL PAL8
|  3>
|  4> %base "22-199_DFT_AB"
|  5>
|  6> %scf
|  7> MaxIter 1000
|  8> end
|  9>
| 10> * xyz 0 1
| 11>   C                      -2.909087            -1.969851            -1.924038
| 12>   O                      -2.827686            -3.108893            -1.172780
| 13>   H                      -1.951877            -3.521882            -1.234771
| 14>   H                      -2.236090            -1.175061            -1.514189
| 15>   H                      -2.615819            -2.207722            -2.943105
| 16>   H                      -3.949701            -1.615946            -1.922414
| 17>   C                      -3.285381            -5.942258            -4.529122
| 18>   O                      -2.692798            -6.037381            -3.235924
| 19>   H                      -1.972267            -5.392801            -3.295113
| 20>   H                      -3.178434            -4.898310            -4.865037
| 21>   H                      -2.691440            -6.606885            -5.242967
| 22>   H                      -4.282233            -6.304589            -4.656723
| 23> *
| 24>
| 25> #Run DFT-D3 single point of the molecule with dimer basis set
| 26> $new_job
| 27> %base "22-199_DFT_A"
| 28> ! wB97X-D3 def2-TZVP TIGHTSCF CHELPG PMODEL
| 29>
| 30> %scf
| 31> MaxIter 1000
| 32> end
| 33>
| 34> * xyz 0 1
| 35>   C                      -2.909087            -1.969851            -1.924038
| 36>   O                      -2.827686            -3.108893            -1.172780
| 37>   H                      -1.951877            -3.521882            -1.234771
| 38>   H                      -2.236090            -1.175061            -1.514189
| 39>   H                      -2.615819            -2.207722            -2.943105
| 40>   H                      -3.949701            -1.615946            -1.922414
| 41>   C                    : -3.285381            -5.942258            -4.529122
| 42>   O                    : -2.692798            -6.037381            -3.235924
| 43>   H                    : -1.972267            -5.392801            -3.295113
| 44>   H                    : -3.178434            -4.898310            -4.865037
| 45>   H                    : -2.691440            -6.606885            -5.242967
| 46>   H                    : -4.282233            -6.304589            -4.656723
| 47> *
| 48>
| 49> #Run DFT-D3 single point of the particle with dimer basis set
| 50> $new_job
| 51> %base "22-199_DFT_B"
| 52> ! wB97X-D3 def2-TZVP TIGHTSCF CHELPG PMODEL
| 53>
| 54> %scf
| 55> MaxIter 1000
| 56> end
| 57>
| 58> * xyz 0 1
| 59>   C                    : -2.909087            -1.969851            -1.924038
| 60>   O                    : -2.827686            -3.108893            -1.172780
| 61>   H                    : -1.951877            -3.521882            -1.234771
| 62>   H                    : -2.236090            -1.175061            -1.514189
| 63>   H                    : -2.615819            -2.207722            -2.943105
| 64>   H                    : -3.949701            -1.615946            -1.922414
| 65>   C                      -3.285381            -5.942258            -4.529122
| 66>   O                      -2.692798            -6.037381            -3.235924
| 67>   H                      -1.972267            -5.392801            -3.295113
| 68>   H                      -3.178434            -4.898310            -4.865037
| 69>   H                      -2.691440            -6.606885            -5.242967
| 70>   H                      -4.282233            -6.304589            -4.656723
| 71> *
| 72>
| 73>                          ****END OF INPUT****
 Total Charge           Charge          ....    0
 Multiplicity           Mult            ....    1
 Number of Electrons    NEL             ....   36
Dispersion correction           -0.001439970
FINAL SINGLE POINT ENERGY      -231.463134353496
Dispersion correction           -0.000220199
FINAL SINGLE POINT ENERGY      -115.734861834924

CARTESIAN COORDINATES (ANGSTROEM)
---------------------------------
  C     -2.909087   -1.969851   -1.924038
  O     -2.827686   -3.108893   -1.172780
  H     -1.951877   -3.521882   -1.234771
  H     -2.236090   -1.175061   -1.514189
  H     -2.615819   -2.207722   -2.943105
  H     -3.949701   -1.615946   -1.922414
  C     -3.285381   -5.942258   -4.529122
  O     -2.692798   -6.037381   -3.235924
  H     -1.972267   -5.392801   -3.295113
  H     -3.178434   -4.898310   -4.865037
  H     -2.691440   -6.606885   -5.242967
  H     -4.282233   -6.304589   -4.656723

 Multiplicity           Mult            ....    1
 Number of Electrons    NEL             ....   18
 Basis Dimension        Dim             ....  172

ORBITAL ENERGIES
----------------

  NO   OCC          E(Eh)            E(eV)
   0   2.0000     -19.233317      -523.3652
   1   2.0000     -10.318805      -280.7890
   2   2.0000      -1.136144       -30.9161
   3   2.0000      -0.791620       -21.5411
   4   2.0000      -0.606620       -16.5070
   5   2.0000      -0.541031       -14.7222
   6   2.0000      -0.530416       -14.4334
   7   2.0000      -0.439543       -11.9606
   8   2.0000      -0.369918       -10.0660
   9   0.0000       0.077064         2.0970
  10   0.0000       0.124372         3.3843
  11   0.0000       0.146653         3.9906
  12   0.0000       0.176644         4.8067
  13   0.0000       0.187060         5.0902

MULLIKEN ATOMIC CHARGES
-----------------------
   0 C :   -0.000726
   1 O :   -0.000724
   2 H :   -0.001455
   3 H :   -0.000052
   4 H :   -0.000692
   5 H :    0.000127
   6 C :   -0.178422
   7 O :   -0.463326
   8 H :    0.319106
   9 H :    0.104881
  10 H :    0.095208
  11 H :    0.126074
Sum of atomic charges:   -0.0000000

LOEWDIN ATOMIC CHARGES
----------------------
   0 C :   -0.000965
   1 O :   -0.001587
   2 H :   -0.002014
   3 H :   -0.000021
   4 H :   -0.000366
   5 H :   -0.000006
   6 C :   -0.383375
   7 O :   -0.088155
   8 H :    0.177733
   9 H :    0.097772
  10 H :    0.101596
  11 H :    0.099388

  Mayer bond orders larger than 0.1
B(  6-C ,  7-O ) :   0.9983 B(  6-C ,  9-H ) :   0.9860 B(  6-C , 10-H ) :   0.9789
B(  6-C , 11-H ) :   0.9708 B(  7-O ,  8-H ) :   0.8984

Dispersion correction           -0.000232101
FINAL SINGLE POINT ENERGY      -115.729714376569

DIPOLE MOMENT
-------------
                                X             Y             Z
Electronic contribution:      0.46266      -0.20929       1.82285
Nuclear contribution   :     -0.27227       0.64183      -2.36716
                        -----------------------------------------
Total Dipole Moment    :      0.19040       0.43254      -0.54431
                        -----------------------------------------
Magnitude (a.u.)       :      0.72084
Magnitude (Debye)      :      1.83223

Rotational constants in cm-1:     4.204533     0.824318     0.791537
Rotational constants in MHz : 126048.717994 24712.444121 23729.694693

                             ****ORCA TERMINATED NORMALLY****
TOTAL RUN TIME: 0 days 0 hours 1 minutes 3 seconds 927 msec
