                         Program Version 4.1.2  - RELEASE  -
|  1> #Run DFT-D3 single point of the dimer
|  2> ! wB97X-D3 def2-TZVP TIGHTSCF CHELPG PMODEL PAL8
|  3>
|  4> %base "6-150_DFT_AB"
|  5>
|  6> %scf
|  7> MaxIter 1000
|  8> end
|  9>
| 10> * xyz 0 1
| 11>   C                      -1.657348            -2.605589            3.107495
| 12>   O                      -1.433084            -3.963794            3.336402
| 13>   H                      -1.822367            -4.471035            2.634541
| 14>   H                      -1.025186            -1.978984            3.793105
| 15>   H                      -1.370348            -2.277809            2.137469
| 16>   H                      -2.655147            -2.318401            3.325334
| 17>   C                      -1.907930            -3.589616            7.002095
| 18>   O                      -2.154025            -4.559680            6.133148
| 19>   H                      -2.363920            -4.281243            5.232424
| 20>   H                      -1.061658            -2.953280            6.756528
| 21>   H                      -2.723835            -2.808970            6.938761
| 22>   H                      -1.777358            -3.891691            7.977162
| 23> *
| 24>
| 25> #Run DFT-D3 single point of the molecule with dimer basis set
| 26> $new_job
| 27> %base "6-150_DFT_A"
| 28> ! wB97X-D3 def2-TZVP TIGHTSCF CHELPG PMODEL
| 29>
| 30> %scf
| 31> MaxIter 1000
| 32> end
| 33>
| 34> * xyz 0 1
| 35>   C                      -1.657348            -2.605589            3.107495
| 36>   O                      -1.433084            -3.963794            3.336402
| 37>   H                      -1.822367            -4.471035            2.634541
| 38>   H                      -1.025186            -1.978984            3.793105
| 39>   H                      -1.370348            -2.277809            2.137469
| 40>   H                      -2.655147            -2.318401            3.325334
| 41>   C                    : -1.907930            -3.589616            7.002095
| 42>   O                    : -2.154025            -4.559680            6.133148
| 43>   H                    : -2.363920            -4.281243            5.232424
| 44>   H                    : -1.061658            -2.953280            6.756528
| 45>   H                    : -2.723835            -2.808970            6.938761
| 46>   H                    : -1.777358            -3.891691            7.977162
| 47> *
| 48>
| 49> #Run DFT-D3 single point of the particle with dimer basis set
| 50> $new_job
| 51> %base "6-150_DFT_B"
| 52> ! wB97X-D3 def2-TZVP TIGHTSCF CHELPG PMODEL
| 53>
| 54> %scf
| 55> MaxIter 1000
| 56> end
| 57>
| 58> * xyz 0 1
| 59>   C                    : -1.657348            -2.605589            3.107495
| 60>   O                    : -1.433084            -3.963794            3.336402
| 61>   H                    : -1.822367            -4.471035            2.634541
| 62>   H                    : -1.025186            -1.978984            3.793105
| 63>   H                    : -1.370348            -2.277809            2.137469
| 64>   H                    : -2.655147            -2.318401            3.325334
| 65>   C                      -1.907930            -3.589616            7.002095
| 66>   O                      -2.154025            -4.559680            6.133148
| 67>   H                      -2.363920            -4.281243            5.232424
| 68>   H                      -1.061658            -2.953280            6.756528
| 69>   H                      -2.723835            -2.808970            6.938761
| 70>   H                      -1.777358            -3.891691            7.977162
| 71> *
| 72>
| 73>                          ****END OF INPUT****
 Total Charge           Charge          ....    0
 Multiplicity           Mult            ....    1
 Number of Electrons    NEL             ....   36
Dispersion correction           -0.001954232
FINAL SINGLE POINT ENERGY      -231.464284459976
Dispersion correction           -0.000236371
FINAL SINGLE POINT ENERGY      -115.734652027818

CARTESIAN COORDINATES (ANGSTROEM)
---------------------------------
  C     -1.657348   -2.605589    3.107495
  O     -1.433084   -3.963794    3.336402
  H     -1.822367   -4.471035    2.634541
  H     -1.025186   -1.978984    3.793105
  H     -1.370348   -2.277809    2.137469
  H     -2.655147   -2.318401    3.325334
  C     -1.907930   -3.589616    7.002095
  O     -2.154025   -4.559680    6.133148
  H     -2.363920   -4.281243    5.232424
  H     -1.061658   -2.953280    6.756528
  H     -2.723835   -2.808970    6.938761
  H     -1.777358   -3.891691    7.977162

 Multiplicity           Mult            ....    1
 Number of Electrons    NEL             ....   18
 Basis Dimension        Dim             ....  172

ORBITAL ENERGIES
----------------

  NO   OCC          E(Eh)            E(eV)
   0   2.0000     -19.230260      -523.2820
   1   2.0000     -10.302708      -280.3509
   2   2.0000      -1.161696       -31.6114
   3   2.0000      -0.801633       -21.8135
   4   2.0000      -0.634375       -17.2622
   5   2.0000      -0.555984       -15.1291
   6   2.0000      -0.538806       -14.6617
   7   2.0000      -0.425189       -11.5700
   8   2.0000      -0.360871        -9.8198
   9   0.0000       0.066506         1.8097
  10   0.0000       0.137318         3.7366
  11   0.0000       0.143843         3.9142
  12   0.0000       0.174750         4.7552
  13   0.0000       0.182233         4.9588

MULLIKEN ATOMIC CHARGES
-----------------------
   0 C :   -0.005157
   1 O :   -0.002012
   2 H :   -0.000254
   3 H :    0.000183
   4 H :   -0.000216
   5 H :    0.000219
   6 C :   -0.149077
   7 O :   -0.459933
   8 H :    0.326276
   9 H :    0.084853
  10 H :    0.079159
  11 H :    0.125959
Sum of atomic charges:    0.0000000

LOEWDIN ATOMIC CHARGES
----------------------
   0 C :   -0.005956
   1 O :   -0.012531
   2 H :   -0.000936
   3 H :   -0.000507
   4 H :   -0.000146
   5 H :   -0.000646
   6 C :   -0.448041
   7 O :    0.003156
   8 H :    0.185722
   9 H :    0.089253
  10 H :    0.096584
  11 H :    0.094048

  Mayer bond orders larger than 0.1
B(  6-C ,  7-O ) :   1.0124 B(  6-C ,  9-H ) :   0.9738 B(  6-C , 10-H ) :   0.9941
B(  6-C , 11-H ) :   0.9709 B(  7-O ,  8-H ) :   0.8890

Dispersion correction           -0.000219235
FINAL SINGLE POINT ENERGY      -115.724603230976

DIPOLE MOMENT
-------------
                                X             Y             Z
Electronic contribution:     -0.25298      -1.65446      -0.98809
Nuclear contribution   :      0.21746       2.15744       0.71728
                        -----------------------------------------
Total Dipole Moment    :     -0.03551       0.50298      -0.27080
                        -----------------------------------------
Magnitude (a.u.)       :      0.57235
Magnitude (Debye)      :      1.45481

Rotational constants in cm-1:     4.584700     0.910380     0.869054
Rotational constants in MHz : 137445.835684 27292.492012 26053.574368

                             ****ORCA TERMINATED NORMALLY****
TOTAL RUN TIME: 0 days 0 hours 1 minutes 4 seconds 697 msec
