                         Program Version 4.1.2  - RELEASE  -
|  1> #Run DFT-D3 single point of the dimer
|  2> ! wB97X-D3 def2-TZVP TIGHTSCF CHELPG PMODEL PAL8
|  3>
|  4> %base "10-61_DFT_AB"
|  5>
|  6> %scf
|  7> MaxIter 1000
|  8> end
|  9>
| 10> * xyz 0 1
| 11>   C                      6.480167             4.850157             8.017725
| 12>   O                      6.846940             3.890680             7.044795
| 13>   H                      7.195709             4.304133             6.297054
| 14>   H                      7.306813             5.169564             8.669647
| 15>   H                      6.202793             5.826223             7.485602
| 16>   H                      5.554086             4.491351             8.572135
| 17>   C                      11.089585            5.097447             4.611890
| 18>   O                      10.322646            6.224895             4.525903
| 19>   H                      9.858087             6.349834             5.355066
| 20>   H                      12.137140            5.173628             5.015755
| 21>   H                      10.557357            4.253865             5.087310
| 22>   H                      11.324609            4.716682             3.663376
| 23> *
| 24>
| 25> #Run DFT-D3 single point of the molecule with dimer basis set
| 26> $new_job
| 27> %base "10-61_DFT_A"
| 28> ! wB97X-D3 def2-TZVP TIGHTSCF CHELPG PMODEL
| 29>
| 30> %scf
| 31> MaxIter 1000
| 32> end
| 33>
| 34> * xyz 0 1
| 35>   C                      6.480167             4.850157             8.017725
| 36>   O                      6.846940             3.890680             7.044795
| 37>   H                      7.195709             4.304133             6.297054
| 38>   H                      7.306813             5.169564             8.669647
| 39>   H                      6.202793             5.826223             7.485602
| 40>   H                      5.554086             4.491351             8.572135
| 41>   C                    : 11.089585            5.097447             4.611890
| 42>   O                    : 10.322646            6.224895             4.525903
| 43>   H                    : 9.858087             6.349834             5.355066
| 44>   H                    : 12.137140            5.173628             5.015755
| 45>   H                    : 10.557357            4.253865             5.087310
| 46>   H                    : 11.324609            4.716682             3.663376
| 47> *
| 48>
| 49> #Run DFT-D3 single point of the particle with dimer basis set
| 50> $new_job
| 51> %base "10-61_DFT_B"
| 52> ! wB97X-D3 def2-TZVP TIGHTSCF CHELPG PMODEL
| 53>
| 54> %scf
| 55> MaxIter 1000
| 56> end
| 57>
| 58> * xyz 0 1
| 59>   C                    : 6.480167             4.850157             8.017725
| 60>   O                    : 6.846940             3.890680             7.044795
| 61>   H                    : 7.195709             4.304133             6.297054
| 62>   H                    : 7.306813             5.169564             8.669647
| 63>   H                    : 6.202793             5.826223             7.485602
| 64>   H                    : 5.554086             4.491351             8.572135
| 65>   C                      11.089585            5.097447             4.611890
| 66>   O                      10.322646            6.224895             4.525903
| 67>   H                      9.858087             6.349834             5.355066
| 68>   H                      12.137140            5.173628             5.015755
| 69>   H                      10.557357            4.253865             5.087310
| 70>   H                      11.324609            4.716682             3.663376
| 71> *
| 72>
| 73>                          ****END OF INPUT****
 Total Charge           Charge          ....    0
 Multiplicity           Mult            ....    1
 Number of Electrons    NEL             ....   36
Dispersion correction           -0.000898980
FINAL SINGLE POINT ENERGY      -231.460556827757
Dispersion correction           -0.000255562
FINAL SINGLE POINT ENERGY      -115.730575693559

CARTESIAN COORDINATES (ANGSTROEM)
---------------------------------
  C      6.480167    4.850157    8.017725
  O      6.846940    3.890680    7.044795
  H      7.195709    4.304133    6.297054
  H      7.306813    5.169564    8.669647
  H      6.202793    5.826223    7.485602
  H      5.554086    4.491351    8.572135
  C     11.089585    5.097447    4.611890
  O     10.322646    6.224895    4.525903
  H      9.858087    6.349834    5.355066
  H     12.137140    5.173628    5.015755
  H     10.557357    4.253865    5.087310
  H     11.324609    4.716682    3.663376

 Multiplicity           Mult            ....    1
 Number of Electrons    NEL             ....   18
 Basis Dimension        Dim             ....  172

ORBITAL ENERGIES
----------------

  NO   OCC          E(Eh)            E(eV)
   0   2.0000     -19.235008      -523.4112
   1   2.0000     -10.307829      -280.4903
   2   2.0000      -1.153734       -31.3947
   3   2.0000      -0.799391       -21.7525
   4   2.0000      -0.621568       -16.9137
   5   2.0000      -0.547242       -14.8912
   6   2.0000      -0.534570       -14.5464
   7   2.0000      -0.426487       -11.6053
   8   2.0000      -0.373837       -10.1726
   9   0.0000       0.073463         1.9990
  10   0.0000       0.119345         3.2475
  11   0.0000       0.150296         4.0898
  12   0.0000       0.168452         4.5838
  13   0.0000       0.193429         5.2635

MULLIKEN ATOMIC CHARGES
-----------------------
   0 C :    0.000013
   1 O :    0.000032
   2 H :   -0.000487
   3 H :    0.000000
   4 H :   -0.000006
   5 H :   -0.000003
   6 C :   -0.158646
   7 O :   -0.458716
   8 H :    0.320787
   9 H :    0.088331
  10 H :    0.095541
  11 H :    0.113154
Sum of atomic charges:   -0.0000000

LOEWDIN ATOMIC CHARGES
----------------------
   0 C :   -0.000055
   1 O :   -0.000030
   2 H :   -0.000324
   3 H :   -0.000006
   4 H :   -0.000008
   5 H :   -0.000002
   6 C :   -0.432510
   7 O :   -0.033168
   8 H :    0.174627
   9 H :    0.097897
  10 H :    0.097081
  11 H :    0.096497

  Mayer bond orders larger than 0.1
B(  6-C ,  7-O ) :   1.0230 B(  6-C ,  9-H ) :   0.9705 B(  6-C , 10-H ) :   0.9835
B(  6-C , 11-H ) :   0.9761 B(  7-O ,  8-H ) :   0.8960

Dispersion correction           -0.000250598
FINAL SINGLE POINT ENERGY      -115.729976768372

DIPOLE MOMENT
-------------
                                X             Y             Z
Electronic contribution:     -1.07391       1.67557      -0.19371
Nuclear contribution   :      1.03702      -2.01881       0.71289
                        -----------------------------------------
Total Dipole Moment    :     -0.03689      -0.34324       0.51918
                        -----------------------------------------
Magnitude (a.u.)       :      0.62348
Magnitude (Debye)      :      1.58475

Rotational constants in cm-1:     4.531551     0.859542     0.833219
Rotational constants in MHz : 135852.477527 25768.422839 24979.290047

                             ****ORCA TERMINATED NORMALLY****
TOTAL RUN TIME: 0 days 0 hours 1 minutes 6 seconds 135 msec
