                         Program Version 4.1.2  - RELEASE  -
|  1> #Run DFT-D3 single point of the dimer
|  2> ! wB97X-D3 def2-TZVP TIGHTSCF CHELPG PMODEL PAL8
|  3>
|  4> %base "22-100_DFT_AB"
|  5>
|  6> %scf
|  7> MaxIter 1000
|  8> end
|  9>
| 10> * xyz 0 1
| 11>   C                      8.152796             8.556054             -5.321419
| 12>   O                      6.909219             9.044673             -4.812207
| 13>   H                      6.285718             8.702034             -5.470259
| 14>   H                      8.064256             8.349003             -6.365875
| 15>   H                      9.010342             9.257000             -5.240811
| 16>   H                      8.377186             7.606242             -4.788367
| 17>   C                      5.865347             9.167918             -8.360008
| 18>   O                      5.500343             8.493549             -7.201196
| 19>   H                      4.539778             8.361218             -7.270459
| 20>   H                      5.527229             10.237435            -8.308055
| 21>   H                      6.944993             9.086587             -8.452698
| 22>   H                      5.493211             8.733666             -9.272044
| 23> *
| 24>
| 25> #Run DFT-D3 single point of the molecule with dimer basis set
| 26> $new_job
| 27> %base "22-100_DFT_A"
| 28> ! wB97X-D3 def2-TZVP TIGHTSCF CHELPG PMODEL
| 29>
| 30> %scf
| 31> MaxIter 1000
| 32> end
| 33>
| 34> * xyz 0 1
| 35>   C                      8.152796             8.556054             -5.321419
| 36>   O                      6.909219             9.044673             -4.812207
| 37>   H                      6.285718             8.702034             -5.470259
| 38>   H                      8.064256             8.349003             -6.365875
| 39>   H                      9.010342             9.257000             -5.240811
| 40>   H                      8.377186             7.606242             -4.788367
| 41>   C                    : 5.865347             9.167918             -8.360008
| 42>   O                    : 5.500343             8.493549             -7.201196
| 43>   H                    : 4.539778             8.361218             -7.270459
| 44>   H                    : 5.527229             10.237435            -8.308055
| 45>   H                    : 6.944993             9.086587             -8.452698
| 46>   H                    : 5.493211             8.733666             -9.272044
| 47> *
| 48>
| 49> #Run DFT-D3 single point of the particle with dimer basis set
| 50> $new_job
| 51> %base "22-100_DFT_B"
| 52> ! wB97X-D3 def2-TZVP TIGHTSCF CHELPG PMODEL
| 53>
| 54> %scf
| 55> MaxIter 1000
| 56> end
| 57>
| 58> * xyz 0 1
| 59>   C                    : 8.152796             8.556054             -5.321419
| 60>   O                    : 6.909219             9.044673             -4.812207
| 61>   H                    : 6.285718             8.702034             -5.470259
| 62>   H                    : 8.064256             8.349003             -6.365875
| 63>   H                    : 9.010342             9.257000             -5.240811
| 64>   H                    : 8.377186             7.606242             -4.788367
| 65>   C                      5.865347             9.167918             -8.360008
| 66>   O                      5.500343             8.493549             -7.201196
| 67>   H                      4.539778             8.361218             -7.270459
| 68>   H                      5.527229             10.237435            -8.308055
| 69>   H                      6.944993             9.086587             -8.452698
| 70>   H                      5.493211             8.733666             -9.272044
| 71> *
| 72>
| 73>                          ****END OF INPUT****
 Total Charge           Charge          ....    0
 Multiplicity           Mult            ....    1
 Number of Electrons    NEL             ....   36
Dispersion correction           -0.002046190
FINAL SINGLE POINT ENERGY      -231.475881315608
Dispersion correction           -0.000234502
FINAL SINGLE POINT ENERGY      -115.732287862301

CARTESIAN COORDINATES (ANGSTROEM)
---------------------------------
  C      8.152796    8.556054   -5.321419
  O      6.909219    9.044673   -4.812207
  H      6.285718    8.702034   -5.470259
  H      8.064256    8.349003   -6.365875
  H      9.010342    9.257000   -5.240811
  H      8.377186    7.606242   -4.788367
  C      5.865347    9.167918   -8.360008
  O      5.500343    8.493549   -7.201196
  H      4.539778    8.361218   -7.270459
  H      5.527229   10.237435   -8.308055
  H      6.944993    9.086587   -8.452698
  H      5.493211    8.733666   -9.272044

 Multiplicity           Mult            ....    1
 Number of Electrons    NEL             ....   18
 Basis Dimension        Dim             ....  172

ORBITAL ENERGIES
----------------

  NO   OCC          E(Eh)            E(eV)
   0   2.0000     -19.233135      -523.3602
   1   2.0000     -10.310723      -280.5690
   2   2.0000      -1.144486       -31.1430
   3   2.0000      -0.792335       -21.5605
   4   2.0000      -0.615459       -16.7475
   5   2.0000      -0.547545       -14.8995
   6   2.0000      -0.525040       -14.2871
   7   2.0000      -0.435513       -11.8509
   8   2.0000      -0.373363       -10.1597
   9   0.0000       0.100354         2.7308
  10   0.0000       0.126007         3.4288
  11   0.0000       0.154772         4.2116
  12   0.0000       0.189919         5.1680
  13   0.0000       0.197211         5.3664

MULLIKEN ATOMIC CHARGES
-----------------------
   0 C :    0.004584
   1 O :   -0.001120
   2 H :   -0.010605
   3 H :   -0.002900
   4 H :   -0.000122
   5 H :   -0.000332
   6 C :   -0.155104
   7 O :   -0.457701
   8 H :    0.312094
   9 H :    0.096285
  10 H :    0.115935
  11 H :    0.098986
Sum of atomic charges:    0.0000000

LOEWDIN ATOMIC CHARGES
----------------------
   0 C :   -0.006380
   1 O :   -0.006123
   2 H :   -0.044720
   3 H :   -0.003802
   4 H :   -0.000043
   5 H :   -0.000073
   6 C :   -0.403352
   7 O :   -0.013667
   8 H :    0.179257
   9 H :    0.099472
  10 H :    0.108586
  11 H :    0.090844

  Mayer bond orders larger than 0.1
B(  6-C ,  7-O ) :   0.9942 B(  6-C ,  9-H ) :   0.9789 B(  6-C , 10-H ) :   0.9779
B(  6-C , 11-H ) :   0.9702 B(  7-O ,  8-H ) :   0.8973

Dispersion correction           -0.000225426
FINAL SINGLE POINT ENERGY      -115.735386610811

DIPOLE MOMENT
-------------
                                X             Y             Z
Electronic contribution:     -0.35505      -0.91500       1.55168
Nuclear contribution   :     -0.10250       1.05144      -2.05066
                        -----------------------------------------
Total Dipole Moment    :     -0.45756       0.13644      -0.49898
                        -----------------------------------------
Magnitude (a.u.)       :      0.69062
Magnitude (Debye)      :      1.75541

Rotational constants in cm-1:     4.232608     0.857013     0.828009
Rotational constants in MHz : 126890.399136 25692.605245 24823.096283

                             ****ORCA TERMINATED NORMALLY****
TOTAL RUN TIME: 0 days 0 hours 1 minutes 2 seconds 31 msec
