                         Program Version 4.1.2  - RELEASE  -
|  1> #Run DFT-D3 single point of the dimer
|  2> ! wB97X-D3 def2-TZVP TIGHTSCF CHELPG PMODEL PAL8
|  3>
|  4> %base "14-181_DFT_AB"
|  5>
|  6> %scf
|  7> MaxIter 1000
|  8> end
|  9>
| 10> * xyz 0 1
| 11>   C                      0.396485             1.545882             -10.724549
| 12>   O                      -0.826474            2.070652             -10.288100
| 13>   H                      -0.568896            2.435322             -9.420965
| 14>   H                      0.355493             1.121078             -11.721559
| 15>   H                      1.248323             2.261888             -10.577302
| 16>   H                      0.667296             0.698376             -10.055047
| 17>   C                      -2.069070            -1.113965            -10.051209
| 18>   O                      -2.786500            0.074723             -9.618453
| 19>   H                      -2.244731            0.793029             -9.834136
| 20>   H                      -1.978243            -1.258131            -11.155097
| 21>   H                      -1.003208            -1.199668            -9.598012
| 22>   H                      -2.557384            -2.048450            -9.723826
| 23> *
| 24>
| 25> #Run DFT-D3 single point of the molecule with dimer basis set
| 26> $new_job
| 27> %base "14-181_DFT_A"
| 28> ! wB97X-D3 def2-TZVP TIGHTSCF CHELPG PMODEL
| 29>
| 30> %scf
| 31> MaxIter 1000
| 32> end
| 33>
| 34> * xyz 0 1
| 35>   C                      0.396485             1.545882             -10.724549
| 36>   O                      -0.826474            2.070652             -10.288100
| 37>   H                      -0.568896            2.435322             -9.420965
| 38>   H                      0.355493             1.121078             -11.721559
| 39>   H                      1.248323             2.261888             -10.577302
| 40>   H                      0.667296             0.698376             -10.055047
| 41>   C                    : -2.069070            -1.113965            -10.051209
| 42>   O                    : -2.786500            0.074723             -9.618453
| 43>   H                    : -2.244731            0.793029             -9.834136
| 44>   H                    : -1.978243            -1.258131            -11.155097
| 45>   H                    : -1.003208            -1.199668            -9.598012
| 46>   H                    : -2.557384            -2.048450            -9.723826
| 47> *
| 48>
| 49> #Run DFT-D3 single point of the particle with dimer basis set
| 50> $new_job
| 51> %base "14-181_DFT_B"
| 52> ! wB97X-D3 def2-TZVP TIGHTSCF CHELPG PMODEL
| 53>
| 54> %scf
| 55> MaxIter 1000
| 56> end
| 57>
| 58> * xyz 0 1
| 59>   C                    : 0.396485             1.545882             -10.724549
| 60>   O                    : -0.826474            2.070652             -10.288100
| 61>   H                    : -0.568896            2.435322             -9.420965
| 62>   H                    : 0.355493             1.121078             -11.721559
| 63>   H                    : 1.248323             2.261888             -10.577302
| 64>   H                    : 0.667296             0.698376             -10.055047
| 65>   C                      -2.069070            -1.113965            -10.051209
| 66>   O                      -2.786500            0.074723             -9.618453
| 67>   H                      -2.244731            0.793029             -9.834136
| 68>   H                      -1.978243            -1.258131            -11.155097
| 69>   H                      -1.003208            -1.199668            -9.598012
| 70>   H                      -2.557384            -2.048450            -9.723826
| 71> *
| 72>
| 73>                          ****END OF INPUT****
 Total Charge           Charge          ....    0
 Multiplicity           Mult            ....    1
 Number of Electrons    NEL             ....   36
Dispersion correction           -0.002244631
FINAL SINGLE POINT ENERGY      -231.469638676068
Dispersion correction           -0.000215773
FINAL SINGLE POINT ENERGY      -115.732090987534

CARTESIAN COORDINATES (ANGSTROEM)
---------------------------------
  C      0.396485    1.545882  -10.724549
  O     -0.826474    2.070652  -10.288100
  H     -0.568896    2.435322   -9.420965
  H      0.355493    1.121078  -11.721559
  H      1.248323    2.261888  -10.577302
  H      0.667296    0.698376  -10.055047
  C     -2.069070   -1.113965  -10.051209
  O     -2.786500    0.074723   -9.618453
  H     -2.244731    0.793029   -9.834136
  H     -1.978243   -1.258131  -11.155097
  H     -1.003208   -1.199668   -9.598012
  H     -2.557384   -2.048450   -9.723826

 Multiplicity           Mult            ....    1
 Number of Electrons    NEL             ....   18
 Basis Dimension        Dim             ....  172

ORBITAL ENERGIES
----------------

  NO   OCC          E(Eh)            E(eV)
   0   2.0000     -19.234773      -523.4048
   1   2.0000     -10.328369      -281.0492
   2   2.0000      -1.136419       -30.9235
   3   2.0000      -0.794929       -21.6311
   4   2.0000      -0.607477       -16.5303
   5   2.0000      -0.530611       -14.4387
   6   2.0000      -0.523705       -14.2507
   7   2.0000      -0.436999       -11.8914
   8   2.0000      -0.380218       -10.3462
   9   0.0000       0.071165         1.9365
  10   0.0000       0.133459         3.6316
  11   0.0000       0.143424         3.9028
  12   0.0000       0.165712         4.5092
  13   0.0000       0.184637         5.0242

MULLIKEN ATOMIC CHARGES
-----------------------
   0 C :    0.001938
   1 O :   -0.004870
   2 H :   -0.000741
   3 H :   -0.000641
   4 H :    0.000061
   5 H :   -0.000769
   6 C :   -0.195580
   7 O :   -0.455928
   8 H :    0.309533
   9 H :    0.111890
  10 H :    0.104894
  11 H :    0.130215
Sum of atomic charges:   -0.0000000

LOEWDIN ATOMIC CHARGES
----------------------
   0 C :   -0.006247
   1 O :   -0.018019
   2 H :   -0.002031
   3 H :   -0.000355
   4 H :   -0.000057
   5 H :   -0.002840
   6 C :   -0.371227
   7 O :   -0.068726
   8 H :    0.151018
   9 H :    0.099703
  10 H :    0.108976
  11 H :    0.109804

  Mayer bond orders larger than 0.1
B(  6-C ,  7-O ) :   0.9967 B(  6-C ,  9-H ) :   0.9683 B(  6-C , 10-H ) :   0.9718
B(  6-C , 11-H ) :   0.9728 B(  7-O ,  8-H ) :   0.9166

Dispersion correction           -0.000292973
FINAL SINGLE POINT ENERGY      -115.730020794320

DIPOLE MOMENT
-------------
                                X             Y             Z
Electronic contribution:     -1.12764       1.56374       0.58622
Nuclear contribution   :      1.74285      -1.60982      -0.89476
                        -----------------------------------------
Total Dipole Moment    :      0.61521      -0.04609      -0.30854
                        -----------------------------------------
Magnitude (a.u.)       :      0.68979
Magnitude (Debye)      :      1.75329

Rotational constants in cm-1:     4.283471     0.774464     0.754678
Rotational constants in MHz : 128415.218852 23217.836313 22624.663691

                             ****ORCA TERMINATED NORMALLY****
TOTAL RUN TIME: 0 days 0 hours 1 minutes 5 seconds 173 msec
