                         Program Version 4.1.2  - RELEASE  -
|  1> #Run DFT-D3 single point of the dimer
|  2> ! wB97X-D3 def2-TZVP TIGHTSCF CHELPG PMODEL PAL8
|  3>
|  4> %base "16-65_DFT_AB"
|  5>
|  6> %scf
|  7> MaxIter 1000
|  8> end
|  9>
| 10> * xyz 0 1
| 11>   C                      8.058946             -9.033042            0.461038
| 12>   O                      8.872390             -8.090761            1.090432
| 13>   H                      8.823240             -8.265778            1.999192
| 14>   H                      7.747471             -8.809037            -0.550858
| 15>   H                      8.601848             -9.949009            0.269711
| 16>   H                      7.118040             -9.192842            0.968932
| 17>   C                      7.044460             -8.555838            4.250525
| 18>   O                      8.427938             -8.312662            4.214939
| 19>   H                      8.527758             -7.683992            4.984987
| 20>   H                      6.586191             -8.085614            5.164987
| 21>   H                      6.645034             -8.034134            3.466934
| 22>   H                      6.790780             -9.623085            4.091890
| 23> *
| 24>
| 25> #Run DFT-D3 single point of the molecule with dimer basis set
| 26> $new_job
| 27> %base "16-65_DFT_A"
| 28> ! wB97X-D3 def2-TZVP TIGHTSCF CHELPG PMODEL
| 29>
| 30> %scf
| 31> MaxIter 1000
| 32> end
| 33>
| 34> * xyz 0 1
| 35>   C                      8.058946             -9.033042            0.461038
| 36>   O                      8.872390             -8.090761            1.090432
| 37>   H                      8.823240             -8.265778            1.999192
| 38>   H                      7.747471             -8.809037            -0.550858
| 39>   H                      8.601848             -9.949009            0.269711
| 40>   H                      7.118040             -9.192842            0.968932
| 41>   C                    : 7.044460             -8.555838            4.250525
| 42>   O                    : 8.427938             -8.312662            4.214939
| 43>   H                    : 8.527758             -7.683992            4.984987
| 44>   H                    : 6.586191             -8.085614            5.164987
| 45>   H                    : 6.645034             -8.034134            3.466934
| 46>   H                    : 6.790780             -9.623085            4.091890
| 47> *
| 48>
| 49> #Run DFT-D3 single point of the particle with dimer basis set
| 50> $new_job
| 51> %base "16-65_DFT_B"
| 52> ! wB97X-D3 def2-TZVP TIGHTSCF CHELPG PMODEL
| 53>
| 54> %scf
| 55> MaxIter 1000
| 56> end
| 57>
| 58> * xyz 0 1
| 59>   C                    : 8.058946             -9.033042            0.461038
| 60>   O                    : 8.872390             -8.090761            1.090432
| 61>   H                    : 8.823240             -8.265778            1.999192
| 62>   H                    : 7.747471             -8.809037            -0.550858
| 63>   H                    : 8.601848             -9.949009            0.269711
| 64>   H                    : 7.118040             -9.192842            0.968932
| 65>   C                      7.044460             -8.555838            4.250525
| 66>   O                      8.427938             -8.312662            4.214939
| 67>   H                      8.527758             -7.683992            4.984987
| 68>   H                      6.586191             -8.085614            5.164987
| 69>   H                      6.645034             -8.034134            3.466934
| 70>   H                      6.790780             -9.623085            4.091890
| 71> *
| 72>
| 73>                          ****END OF INPUT****
 Total Charge           Charge          ....    0
 Multiplicity           Mult            ....    1
 Number of Electrons    NEL             ....   36
Dispersion correction           -0.001936030
FINAL SINGLE POINT ENERGY      -231.462468997775
Dispersion correction           -0.000234318
FINAL SINGLE POINT ENERGY      -115.730976964032

CARTESIAN COORDINATES (ANGSTROEM)
---------------------------------
  C      8.058946   -9.033042    0.461038
  O      8.872390   -8.090761    1.090432
  H      8.823240   -8.265778    1.999192
  H      7.747471   -8.809037   -0.550858
  H      8.601848   -9.949009    0.269711
  H      7.118040   -9.192842    0.968932
  C      7.044460   -8.555838    4.250525
  O      8.427938   -8.312662    4.214939
  H      8.527758   -7.683992    4.984987
  H      6.586191   -8.085614    5.164987
  H      6.645034   -8.034134    3.466934
  H      6.790780   -9.623085    4.091890

 Multiplicity           Mult            ....    1
 Number of Electrons    NEL             ....   18
 Basis Dimension        Dim             ....  172

ORBITAL ENERGIES
----------------

  NO   OCC          E(Eh)            E(eV)
   0   2.0000     -19.232754      -523.3499
   1   2.0000     -10.308658      -280.5128
   2   2.0000      -1.136466       -30.9248
   3   2.0000      -0.791151       -21.5283
   4   2.0000      -0.608401       -16.5554
   5   2.0000      -0.544470       -14.8158
   6   2.0000      -0.528519       -14.3817
   7   2.0000      -0.439197       -11.9511
   8   2.0000      -0.369704       -10.0602
   9   0.0000       0.092002         2.5035
  10   0.0000       0.114328         3.1110
  11   0.0000       0.155818         4.2400
  12   0.0000       0.183813         5.0018
  13   0.0000       0.194054         5.2805

MULLIKEN ATOMIC CHARGES
-----------------------
   0 C :    0.000175
   1 O :   -0.001357
   2 H :   -0.005881
   3 H :    0.000067
   4 H :   -0.000013
   5 H :    0.000586
   6 C :   -0.176945
   7 O :   -0.460727
   8 H :    0.316852
   9 H :    0.100962
  10 H :    0.118634
  11 H :    0.107646
Sum of atomic charges:   -0.0000000

LOEWDIN ATOMIC CHARGES
----------------------
   0 C :   -0.001376
   1 O :   -0.001975
   2 H :   -0.020182
   3 H :   -0.000006
   4 H :   -0.000009
   5 H :   -0.001149
   6 C :   -0.392820
   7 O :   -0.071948
   8 H :    0.196757
   9 H :    0.103614
  10 H :    0.082650
  11 H :    0.106443

  Mayer bond orders larger than 0.1
B(  6-C ,  7-O ) :   0.9990 B(  6-C ,  9-H ) :   0.9853 B(  6-C , 10-H ) :   0.9815
B(  6-C , 11-H ) :   0.9740 B(  7-O ,  8-H ) :   0.8969

Dispersion correction           -0.000217801
FINAL SINGLE POINT ENERGY      -115.725002643013

DIPOLE MOMENT
-------------
                                X             Y             Z
Electronic contribution:      1.80243       0.11743      -0.17906
Nuclear contribution   :     -2.27723       0.19902       0.64567
                        -----------------------------------------
Total Dipole Moment    :     -0.47481       0.31645       0.46661
                        -----------------------------------------
Magnitude (a.u.)       :      0.73709
Magnitude (Debye)      :      1.87354

Rotational constants in cm-1:     4.173072     0.863116     0.810437
Rotational constants in MHz : 125105.564514 25875.578758 24296.286284

                             ****ORCA TERMINATED NORMALLY****
TOTAL RUN TIME: 0 days 0 hours 1 minutes 4 seconds 377 msec
