                         Program Version 4.1.2  - RELEASE  -
|  1> #Run DFT-D3 single point of the dimer
|  2> ! wB97X-D3 def2-TZVP TIGHTSCF CHELPG PMODEL PAL8
|  3>
|  4> %base "17-191_DFT_AB"
|  5>
|  6> %scf
|  7> MaxIter 1000
|  8> end
|  9>
| 10> * xyz 0 1
| 11>   C                      -9.527822            -9.728058            -0.734884
| 12>   O                      -9.588153            -10.262342           0.524446
| 13>   H                      -9.808452            -9.662483            1.212237
| 14>   H                      -10.053993           -8.784656            -0.838553
| 15>   H                      -8.566556            -9.455384            -1.089109
| 16>   H                      -9.991204            -10.377157           -1.505548
| 17>   C                      -7.114895            -9.252736            2.911161
| 18>   O                      -7.963711            -8.318133            2.377793
| 19>   H                      -8.671788            -8.236899            3.028148
| 20>   H                      -6.159559            -9.294814            2.385530
| 21>   H                      -6.893088            -8.897432            3.925126
| 22>   H                      -7.565943            -10.294245           2.959604
| 23> *
| 24>
| 25> #Run DFT-D3 single point of the molecule with dimer basis set
| 26> $new_job
| 27> %base "17-191_DFT_A"
| 28> ! wB97X-D3 def2-TZVP TIGHTSCF CHELPG PMODEL
| 29>
| 30> %scf
| 31> MaxIter 1000
| 32> end
| 33>
| 34> * xyz 0 1
| 35>   C                      -9.527822            -9.728058            -0.734884
| 36>   O                      -9.588153            -10.262342           0.524446
| 37>   H                      -9.808452            -9.662483            1.212237
| 38>   H                      -10.053993           -8.784656            -0.838553
| 39>   H                      -8.566556            -9.455384            -1.089109
| 40>   H                      -9.991204            -10.377157           -1.505548
| 41>   C                    : -7.114895            -9.252736            2.911161
| 42>   O                    : -7.963711            -8.318133            2.377793
| 43>   H                    : -8.671788            -8.236899            3.028148
| 44>   H                    : -6.159559            -9.294814            2.385530
| 45>   H                    : -6.893088            -8.897432            3.925126
| 46>   H                    : -7.565943            -10.294245           2.959604
| 47> *
| 48>
| 49> #Run DFT-D3 single point of the particle with dimer basis set
| 50> $new_job
| 51> %base "17-191_DFT_B"
| 52> ! wB97X-D3 def2-TZVP TIGHTSCF CHELPG PMODEL
| 53>
| 54> %scf
| 55> MaxIter 1000
| 56> end
| 57>
| 58> * xyz 0 1
| 59>   C                    : -9.527822            -9.728058            -0.734884
| 60>   O                    : -9.588153            -10.262342           0.524446
| 61>   H                    : -9.808452            -9.662483            1.212237
| 62>   H                    : -10.053993           -8.784656            -0.838553
| 63>   H                    : -8.566556            -9.455384            -1.089109
| 64>   H                    : -9.991204            -10.377157           -1.505548
| 65>   C                      -7.114895            -9.252736            2.911161
| 66>   O                      -7.963711            -8.318133            2.377793
| 67>   H                      -8.671788            -8.236899            3.028148
| 68>   H                      -6.159559            -9.294814            2.385530
| 69>   H                      -6.893088            -8.897432            3.925126
| 70>   H                      -7.565943            -10.294245           2.959604
| 71> *
| 72>
| 73>                          ****END OF INPUT****
 Total Charge           Charge          ....    0
 Multiplicity           Mult            ....    1
 Number of Electrons    NEL             ....   36
Dispersion correction           -0.001820140
FINAL SINGLE POINT ENERGY      -231.465511066984
Dispersion correction           -0.000251275
FINAL SINGLE POINT ENERGY      -115.731144649700

CARTESIAN COORDINATES (ANGSTROEM)
---------------------------------
  C     -9.527822   -9.728058   -0.734884
  O     -9.588153  -10.262342    0.524446
  H     -9.808452   -9.662483    1.212237
  H    -10.053993   -8.784656   -0.838553
  H     -8.566556   -9.455384   -1.089109
  H     -9.991204  -10.377157   -1.505548
  C     -7.114895   -9.252736    2.911161
  O     -7.963711   -8.318133    2.377793
  H     -8.671788   -8.236899    3.028148
  H     -6.159559   -9.294814    2.385530
  H     -6.893088   -8.897432    3.925126
  H     -7.565943  -10.294245    2.959604

 Multiplicity           Mult            ....    1
 Number of Electrons    NEL             ....   18
 Basis Dimension        Dim             ....  172

ORBITAL ENERGIES
----------------

  NO   OCC          E(Eh)            E(eV)
   0   2.0000     -19.232067      -523.3311
   1   2.0000     -10.314191      -280.6634
   2   2.0000      -1.153802       -31.3965
   3   2.0000      -0.788055       -21.4441
   4   2.0000      -0.616278       -16.7698
   5   2.0000      -0.547700       -14.9037
   6   2.0000      -0.536941       -14.6109
   7   2.0000      -0.431163       -11.7325
   8   2.0000      -0.370286       -10.0760
   9   0.0000       0.092097         2.5061
  10   0.0000       0.121596         3.3088
  11   0.0000       0.155338         4.2270
  12   0.0000       0.175471         4.7748
  13   0.0000       0.199105         5.4179

MULLIKEN ATOMIC CHARGES
-----------------------
   0 C :    0.001764
   1 O :    0.003347
   2 H :   -0.012535
   3 H :   -0.000580
   4 H :   -0.001191
   5 H :   -0.000215
   6 C :   -0.163456
   7 O :   -0.450941
   8 H :    0.318264
   9 H :    0.117839
  10 H :    0.094693
  11 H :    0.093012
Sum of atomic charges:   -0.0000000

LOEWDIN ATOMIC CHARGES
----------------------
   0 C :   -0.003293
   1 O :   -0.003184
   2 H :   -0.011204
   3 H :   -0.000239
   4 H :   -0.000409
   5 H :   -0.000071
   6 C :   -0.425947
   7 O :   -0.034994
   8 H :    0.179835
   9 H :    0.106615
  10 H :    0.094667
  11 H :    0.098223

  Mayer bond orders larger than 0.1
B(  6-C ,  7-O ) :   0.9991 B(  6-C ,  9-H ) :   0.9716 B(  6-C , 10-H ) :   0.9898
B(  6-C , 11-H ) :   0.9692 B(  7-O ,  8-H ) :   0.8960

Dispersion correction           -0.000211028
FINAL SINGLE POINT ENERGY      -115.732597844212

DIPOLE MOMENT
-------------
                                X             Y             Z
Electronic contribution:     -1.00644       1.25352      -0.92532
Nuclear contribution   :      0.90324      -1.50862       1.53132
                        -----------------------------------------
Total Dipole Moment    :     -0.10320      -0.25510       0.60601
                        -----------------------------------------
Magnitude (a.u.)       :      0.66556
Magnitude (Debye)      :      1.69172

Rotational constants in cm-1:     4.161595     0.876782     0.846887
Rotational constants in MHz : 124761.490304 26285.255662 25389.043496

                             ****ORCA TERMINATED NORMALLY****
TOTAL RUN TIME: 0 days 0 hours 1 minutes 13 seconds 897 msec
