                         Program Version 4.1.2  - RELEASE  -
|  1> #Run DFT-D3 single point of the dimer
|  2> ! wB97X-D3 def2-TZVP TIGHTSCF CHELPG PMODEL PAL8
|  3>
|  4> %base "18-77_DFT_AB"
|  5>
|  6> %scf
|  7> MaxIter 1000
|  8> end
|  9>
| 10> * xyz 0 1
| 11>   C                      1.357016             -4.144993            -10.981236
| 12>   O                      0.027472             -4.230226            -11.449429
| 13>   H                      -0.609732            -4.116617            -10.744449
| 14>   H                      1.503885             -3.179850            -10.444601
| 15>   H                      1.556631             -4.875398            -10.229939
| 16>   H                      2.132881             -4.103547            -11.830028
| 17>   C                      0.652887             -4.603899            -7.329924
| 18>   O                      1.034029             -3.278051            -7.200782
| 19>   H                      0.242085             -2.708499            -7.235678
| 20>   H                      -0.055861            -4.676612            -8.180890
| 21>   H                      1.491770             -5.297775            -7.503752
| 22>   H                      0.134496             -4.970212            -6.478246
| 23> *
| 24>
| 25> #Run DFT-D3 single point of the molecule with dimer basis set
| 26> $new_job
| 27> %base "18-77_DFT_A"
| 28> ! wB97X-D3 def2-TZVP TIGHTSCF CHELPG PMODEL
| 29>
| 30> %scf
| 31> MaxIter 1000
| 32> end
| 33>
| 34> * xyz 0 1
| 35>   C                      1.357016             -4.144993            -10.981236
| 36>   O                      0.027472             -4.230226            -11.449429
| 37>   H                      -0.609732            -4.116617            -10.744449
| 38>   H                      1.503885             -3.179850            -10.444601
| 39>   H                      1.556631             -4.875398            -10.229939
| 40>   H                      2.132881             -4.103547            -11.830028
| 41>   C                    : 0.652887             -4.603899            -7.329924
| 42>   O                    : 1.034029             -3.278051            -7.200782
| 43>   H                    : 0.242085             -2.708499            -7.235678
| 44>   H                    : -0.055861            -4.676612            -8.180890
| 45>   H                    : 1.491770             -5.297775            -7.503752
| 46>   H                    : 0.134496             -4.970212            -6.478246
| 47> *
| 48>
| 49> #Run DFT-D3 single point of the particle with dimer basis set
| 50> $new_job
| 51> %base "18-77_DFT_B"
| 52> ! wB97X-D3 def2-TZVP TIGHTSCF CHELPG PMODEL
| 53>
| 54> %scf
| 55> MaxIter 1000
| 56> end
| 57>
| 58> * xyz 0 1
| 59>   C                    : 1.357016             -4.144993            -10.981236
| 60>   O                    : 0.027472             -4.230226            -11.449429
| 61>   H                    : -0.609732            -4.116617            -10.744449
| 62>   H                    : 1.503885             -3.179850            -10.444601
| 63>   H                    : 1.556631             -4.875398            -10.229939
| 64>   H                    : 2.132881             -4.103547            -11.830028
| 65>   C                      0.652887             -4.603899            -7.329924
| 66>   O                      1.034029             -3.278051            -7.200782
| 67>   H                      0.242085             -2.708499            -7.235678
| 68>   H                      -0.055861            -4.676612            -8.180890
| 69>   H                      1.491770             -5.297775            -7.503752
| 70>   H                      0.134496             -4.970212            -6.478246
| 71> *
| 72>
| 73>                          ****END OF INPUT****
 Total Charge           Charge          ....    0
 Multiplicity           Mult            ....    1
 Number of Electrons    NEL             ....   36
Dispersion correction           -0.001998888
FINAL SINGLE POINT ENERGY      -231.465864642029
Dispersion correction           -0.000247279
FINAL SINGLE POINT ENERGY      -115.731019415142

CARTESIAN COORDINATES (ANGSTROEM)
---------------------------------
  C      1.357016   -4.144993  -10.981236
  O      0.027472   -4.230226  -11.449429
  H     -0.609732   -4.116617  -10.744449
  H      1.503885   -3.179850  -10.444601
  H      1.556631   -4.875398  -10.229939
  H      2.132881   -4.103547  -11.830028
  C      0.652887   -4.603899   -7.329924
  O      1.034029   -3.278051   -7.200782
  H      0.242085   -2.708499   -7.235678
  H     -0.055861   -4.676612   -8.180890
  H      1.491770   -5.297775   -7.503752
  H      0.134496   -4.970212   -6.478246

 Multiplicity           Mult            ....    1
 Number of Electrons    NEL             ....   18
 Basis Dimension        Dim             ....  172

ORBITAL ENERGIES
----------------

  NO   OCC          E(Eh)            E(eV)
   0   2.0000     -19.230599      -523.2912
   1   2.0000     -10.309935      -280.5476
   2   2.0000      -1.141557       -31.0633
   3   2.0000      -0.794142       -21.6097
   4   2.0000      -0.615398       -16.7458
   5   2.0000      -0.544561       -14.8183
   6   2.0000      -0.534287       -14.5387
   7   2.0000      -0.428242       -11.6530
   8   2.0000      -0.370125       -10.0716
   9   0.0000       0.086309         2.3486
  10   0.0000       0.123643         3.3645
  11   0.0000       0.155334         4.2269
  12   0.0000       0.161047         4.3823
  13   0.0000       0.202740         5.5168

MULLIKEN ATOMIC CHARGES
-----------------------
   0 C :    0.007461
   1 O :   -0.000816
   2 H :    0.000023
   3 H :   -0.004640
   4 H :   -0.003625
   5 H :    0.000061
   6 C :   -0.159107
   7 O :   -0.475668
   8 H :    0.320457
   9 H :    0.092594
  10 H :    0.115480
  11 H :    0.107778
Sum of atomic charges:    0.0000000

LOEWDIN ATOMIC CHARGES
----------------------
   0 C :   -0.003995
   1 O :   -0.000225
   2 H :   -0.001796
   3 H :   -0.002399
   4 H :   -0.003194
   5 H :   -0.000009
   6 C :   -0.403900
   7 O :   -0.063237
   8 H :    0.182568
   9 H :    0.098796
  10 H :    0.111302
  11 H :    0.086087

  Mayer bond orders larger than 0.1
B(  6-C ,  7-O ) :   0.9940 B(  6-C ,  9-H ) :   0.9917 B(  6-C , 10-H ) :   0.9714
B(  6-C , 11-H ) :   0.9720 B(  7-O ,  8-H ) :   0.8916

Dispersion correction           -0.000225227
FINAL SINGLE POINT ENERGY      -115.733761807501

DIPOLE MOMENT
-------------
                                X             Y             Z
Electronic contribution:      0.71735       1.69574       0.24896
Nuclear contribution   :     -1.36631      -1.84954      -0.30567
                        -----------------------------------------
Total Dipole Moment    :     -0.64895      -0.15379      -0.05671
                        -----------------------------------------
Magnitude (a.u.)       :      0.66933
Magnitude (Debye)      :      1.70131

Rotational constants in cm-1:     4.349305     0.857348     0.820394
Rotational constants in MHz : 130388.875476 25702.652798 24594.784743

                             ****ORCA TERMINATED NORMALLY****
TOTAL RUN TIME: 0 days 0 hours 1 minutes 5 seconds 160 msec
