                         Program Version 4.1.2  - RELEASE  -
|  1> #Run DFT-D3 single point of the dimer
|  2> ! wB97X-D3 def2-TZVP TIGHTSCF CHELPG PMODEL PAL8
|  3>
|  4> %base "9-69_DFT_AB"
|  5>
|  6> %scf
|  7> MaxIter 1000
|  8> end
|  9>
| 10> * xyz 0 1
| 11>   C                      -6.988085            5.917320             -1.756806
| 12>   O                      -5.841079            5.346315             -1.198149
| 13>   H                      -6.238028            4.725105             -0.596400
| 14>   H                      -7.469596            5.138823             -2.402609
| 15>   H                      -7.670168            6.304700             -1.043612
| 16>   H                      -6.732474            6.712058             -2.340388
| 17>   C                      -2.998582            9.133272             -1.790097
| 18>   O                      -4.163758            8.383739             -1.734354
| 19>   H                      -4.391098            8.568409             -2.645364
| 20>   H                      -2.714693            9.333360             -2.837383
| 21>   H                      -3.005740            10.087952            -1.249025
| 22>   H                      -2.180196            8.576818             -1.433633
| 23> *
| 24>
| 25> #Run DFT-D3 single point of the molecule with dimer basis set
| 26> $new_job
| 27> %base "9-69_DFT_A"
| 28> ! wB97X-D3 def2-TZVP TIGHTSCF CHELPG PMODEL
| 29>
| 30> %scf
| 31> MaxIter 1000
| 32> end
| 33>
| 34> * xyz 0 1
| 35>   C                      -6.988085            5.917320             -1.756806
| 36>   O                      -5.841079            5.346315             -1.198149
| 37>   H                      -6.238028            4.725105             -0.596400
| 38>   H                      -7.469596            5.138823             -2.402609
| 39>   H                      -7.670168            6.304700             -1.043612
| 40>   H                      -6.732474            6.712058             -2.340388
| 41>   C                    : -2.998582            9.133272             -1.790097
| 42>   O                    : -4.163758            8.383739             -1.734354
| 43>   H                    : -4.391098            8.568409             -2.645364
| 44>   H                    : -2.714693            9.333360             -2.837383
| 45>   H                    : -3.005740            10.087952            -1.249025
| 46>   H                    : -2.180196            8.576818             -1.433633
| 47> *
| 48>
| 49> #Run DFT-D3 single point of the particle with dimer basis set
| 50> $new_job
| 51> %base "9-69_DFT_B"
| 52> ! wB97X-D3 def2-TZVP TIGHTSCF CHELPG PMODEL
| 53>
| 54> %scf
| 55> MaxIter 1000
| 56> end
| 57>
| 58> * xyz 0 1
| 59>   C                    : -6.988085            5.917320             -1.756806
| 60>   O                    : -5.841079            5.346315             -1.198149
| 61>   H                    : -6.238028            4.725105             -0.596400
| 62>   H                    : -7.469596            5.138823             -2.402609
| 63>   H                    : -7.670168            6.304700             -1.043612
| 64>   H                    : -6.732474            6.712058             -2.340388
| 65>   C                      -2.998582            9.133272             -1.790097
| 66>   O                      -4.163758            8.383739             -1.734354
| 67>   H                      -4.391098            8.568409             -2.645364
| 68>   H                      -2.714693            9.333360             -2.837383
| 69>   H                      -3.005740            10.087952            -1.249025
| 70>   H                      -2.180196            8.576818             -1.433633
| 71> *
| 72>
| 73>                          ****END OF INPUT****
 Total Charge           Charge          ....    0
 Multiplicity           Mult            ....    1
 Number of Electrons    NEL             ....   36
Dispersion correction           -0.001140663
FINAL SINGLE POINT ENERGY      -231.452574058916
Dispersion correction           -0.000197776
FINAL SINGLE POINT ENERGY      -115.729267714026

CARTESIAN COORDINATES (ANGSTROEM)
---------------------------------
  C     -6.988085    5.917320   -1.756806
  O     -5.841079    5.346315   -1.198149
  H     -6.238028    4.725105   -0.596400
  H     -7.469596    5.138823   -2.402609
  H     -7.670168    6.304700   -1.043612
  H     -6.732474    6.712058   -2.340388
  C     -2.998582    9.133272   -1.790097
  O     -4.163758    8.383739   -1.734354
  H     -4.391098    8.568409   -2.645364
  H     -2.714693    9.333360   -2.837383
  H     -3.005740   10.087952   -1.249025
  H     -2.180196    8.576818   -1.433633

 Multiplicity           Mult            ....    1
 Number of Electrons    NEL             ....   18
 Basis Dimension        Dim             ....  172

ORBITAL ENERGIES
----------------

  NO   OCC          E(Eh)            E(eV)
   0   2.0000     -19.235069      -523.4128
   1   2.0000     -10.308886      -280.5191
   2   2.0000      -1.158532       -31.5252
   3   2.0000      -0.792308       -21.5598
   4   2.0000      -0.619667       -16.8620
   5   2.0000      -0.549436       -14.9509
   6   2.0000      -0.532449       -14.4887
   7   2.0000      -0.441285       -12.0080
   8   2.0000      -0.376898       -10.2559
   9   0.0000       0.093751         2.5511
  10   0.0000       0.114359         3.1119
  11   0.0000       0.156033         4.2459
  12   0.0000       0.179556         4.8860
  13   0.0000       0.195437         5.3181

MULLIKEN ATOMIC CHARGES
-----------------------
   0 C :   -0.000747
   1 O :   -0.000096
   2 H :    0.000038
   3 H :   -0.000010
   4 H :   -0.000025
   5 H :   -0.002355
   6 C :   -0.174293
   7 O :   -0.439703
   8 H :    0.321144
   9 H :    0.086946
  10 H :    0.098288
  11 H :    0.110816
Sum of atomic charges:   -0.0000000

LOEWDIN ATOMIC CHARGES
----------------------
   0 C :   -0.002854
   1 O :   -0.001177
   2 H :   -0.000059
   3 H :   -0.000028
   4 H :   -0.000058
   5 H :   -0.001595
   6 C :   -0.414553
   7 O :   -0.048213
   8 H :    0.181962
   9 H :    0.097441
  10 H :    0.096931
  11 H :    0.092202

  Mayer bond orders larger than 0.1
B(  6-C ,  7-O ) :   1.0189 B(  6-C ,  9-H ) :   0.9964 B(  6-C , 10-H ) :   0.9686
B(  6-C , 11-H ) :   0.9790 B(  7-O ,  8-H ) :   0.8993

Dispersion correction           -0.000205505
FINAL SINGLE POINT ENERGY      -115.724723239455

DIPOLE MOMENT
-------------
                                X             Y             Z
Electronic contribution:     -1.62953      -1.05852       0.33734
Nuclear contribution   :      1.93089       1.42633      -0.92781
                        -----------------------------------------
Total Dipole Moment    :      0.30136       0.36781      -0.59047
                        -----------------------------------------
Magnitude (a.u.)       :      0.75812
Magnitude (Debye)      :      1.92700

Rotational constants in cm-1:     4.342736     0.872232     0.837527
Rotational constants in MHz : 130191.959424 26148.842670 25108.420820

                             ****ORCA TERMINATED NORMALLY****
TOTAL RUN TIME: 0 days 0 hours 0 minutes 43 seconds 188 msec
