                         Program Version 4.1.2  - RELEASE  -
|  1> #Run DFT-D3 single point of the dimer
|  2> ! wB97X-D3 def2-TZVP TIGHTSCF CHELPG PMODEL PAL8
|  3>
|  4> %base "21-81_DFT_AB"
|  5>
|  6> %scf
|  7> MaxIter 1000
|  8> end
|  9>
| 10> * xyz 0 1
| 11>   C                      3.842016             6.695679             2.250202
| 12>   O                      2.873278             7.246164             1.343030
| 13>   H                      3.031708             6.919436             0.425400
| 14>   H                      3.817862             5.565453             2.173094
| 15>   H                      4.822762             6.953849             1.878522
| 16>   H                      3.663193             7.138407             3.241986
| 17>   C                      3.235561             4.551749             5.934133
| 18>   O                      2.594535             4.358241             7.218356
| 19>   H                      3.030707             4.934264             7.863506
| 20>   H                      4.267933             4.089265             5.970276
| 21>   H                      2.610780             4.061850             5.130225
| 22>   H                      3.285283             5.611217             5.737462
| 23> *
| 24>
| 25> #Run DFT-D3 single point of the molecule with dimer basis set
| 26> $new_job
| 27> %base "21-81_DFT_A"
| 28> ! wB97X-D3 def2-TZVP TIGHTSCF CHELPG PMODEL
| 29>
| 30> %scf
| 31> MaxIter 1000
| 32> end
| 33>
| 34> * xyz 0 1
| 35>   C                      3.842016             6.695679             2.250202
| 36>   O                      2.873278             7.246164             1.343030
| 37>   H                      3.031708             6.919436             0.425400
| 38>   H                      3.817862             5.565453             2.173094
| 39>   H                      4.822762             6.953849             1.878522
| 40>   H                      3.663193             7.138407             3.241986
| 41>   C                    : 3.235561             4.551749             5.934133
| 42>   O                    : 2.594535             4.358241             7.218356
| 43>   H                    : 3.030707             4.934264             7.863506
| 44>   H                    : 4.267933             4.089265             5.970276
| 45>   H                    : 2.610780             4.061850             5.130225
| 46>   H                    : 3.285283             5.611217             5.737462
| 47> *
| 48>
| 49> #Run DFT-D3 single point of the particle with dimer basis set
| 50> $new_job
| 51> %base "21-81_DFT_B"
| 52> ! wB97X-D3 def2-TZVP TIGHTSCF CHELPG PMODEL
| 53>
| 54> %scf
| 55> MaxIter 1000
| 56> end
| 57>
| 58> * xyz 0 1
| 59>   C                    : 3.842016             6.695679             2.250202
| 60>   O                    : 2.873278             7.246164             1.343030
| 61>   H                    : 3.031708             6.919436             0.425400
| 62>   H                    : 3.817862             5.565453             2.173094
| 63>   H                    : 4.822762             6.953849             1.878522
| 64>   H                    : 3.663193             7.138407             3.241986
| 65>   C                      3.235561             4.551749             5.934133
| 66>   O                      2.594535             4.358241             7.218356
| 67>   H                      3.030707             4.934264             7.863506
| 68>   H                      4.267933             4.089265             5.970276
| 69>   H                      2.610780             4.061850             5.130225
| 70>   H                      3.285283             5.611217             5.737462
| 71> *
| 72>
| 73>                          ****END OF INPUT****
 Total Charge           Charge          ....    0
 Multiplicity           Mult            ....    1
 Number of Electrons    NEL             ....   36
Dispersion correction           -0.001113469
FINAL SINGLE POINT ENERGY      -231.466290816943
Dispersion correction           -0.000238932
FINAL SINGLE POINT ENERGY      -115.731970202780

CARTESIAN COORDINATES (ANGSTROEM)
---------------------------------
  C      3.842016    6.695679    2.250202
  O      2.873278    7.246164    1.343030
  H      3.031708    6.919436    0.425400
  H      3.817862    5.565453    2.173094
  H      4.822762    6.953849    1.878522
  H      3.663193    7.138407    3.241986
  C      3.235561    4.551749    5.934133
  O      2.594535    4.358241    7.218356
  H      3.030707    4.934264    7.863506
  H      4.267933    4.089265    5.970276
  H      2.610780    4.061850    5.130225
  H      3.285283    5.611217    5.737462

 Multiplicity           Mult            ....    1
 Number of Electrons    NEL             ....   18
 Basis Dimension        Dim             ....  172

ORBITAL ENERGIES
----------------

  NO   OCC          E(Eh)            E(eV)
   0   2.0000     -19.227728      -523.2131
   1   2.0000     -10.322240      -280.8824
   2   2.0000      -1.123074       -30.5604
   3   2.0000      -0.789885       -21.4939
   4   2.0000      -0.600313       -16.3354
   5   2.0000      -0.539818       -14.6892
   6   2.0000      -0.520554       -14.1650
   7   2.0000      -0.431871       -11.7518
   8   2.0000      -0.372597       -10.1389
   9   0.0000       0.082078         2.2334
  10   0.0000       0.114001         3.1021
  11   0.0000       0.140650         3.8273
  12   0.0000       0.168774         4.5926
  13   0.0000       0.184175         5.0117

MULLIKEN ATOMIC CHARGES
-----------------------
   0 C :    0.000234
   1 O :   -0.000001
   2 H :    0.000000
   3 H :    0.000030
   4 H :   -0.000062
   5 H :   -0.001160
   6 C :   -0.164959
   7 O :   -0.485196
   8 H :    0.313327
   9 H :    0.104229
  10 H :    0.122342
  11 H :    0.111215
Sum of atomic charges:   -0.0000000

LOEWDIN ATOMIC CHARGES
----------------------
   0 C :   -0.000971
   1 O :   -0.000007
   2 H :   -0.000001
   3 H :   -0.000151
   4 H :   -0.000006
   5 H :   -0.001214
   6 C :   -0.365694
   7 O :   -0.111802
   8 H :    0.169034
   9 H :    0.102467
  10 H :    0.116269
  11 H :    0.092077

  Mayer bond orders larger than 0.1
B(  6-C ,  7-O ) :   0.9886 B(  6-C ,  9-H ) :   0.9716 B(  6-C , 10-H ) :   0.9692
B(  6-C , 11-H ) :   0.9791 B(  7-O ,  8-H ) :   0.8993

Dispersion correction           -0.000248175
FINAL SINGLE POINT ENERGY      -115.733867323502

DIPOLE MOMENT
-------------
                                X             Y             Z
Electronic contribution:     -0.87688      -0.30324       1.47605
Nuclear contribution   :      1.40332       0.76246      -1.60592
                        -----------------------------------------
Total Dipole Moment    :      0.52644       0.45922      -0.12987
                        -----------------------------------------
Magnitude (a.u.)       :      0.71056
Magnitude (Debye)      :      1.80609

Rotational constants in cm-1:     4.077972     0.801430     0.774470
Rotational constants in MHz : 122254.522191 24026.260739 23218.036167

                             ****ORCA TERMINATED NORMALLY****
TOTAL RUN TIME: 0 days 0 hours 1 minutes 3 seconds 956 msec
