                         Program Version 4.1.2  - RELEASE  -
|  1> #Run DFT-D3 single point of the dimer
|  2> ! wB97X-D3 def2-TZVP TIGHTSCF CHELPG PMODEL PAL8
|  3>
|  4> %base "17-86_DFT_AB"
|  5>
|  6> %scf
|  7> MaxIter 1000
|  8> end
|  9>
| 10> * xyz 0 1
| 11>   C                      -5.201214            2.513529             -9.631531
| 12>   O                      -4.515403            1.567229             -8.775223
| 13>   H                      -3.611690            1.885344             -8.810768
| 14>   H                      -5.769243            3.251244             -9.067049
| 15>   H                      -4.640554            2.954154             -10.383649
| 16>   H                      -6.017593            1.996925             -10.226665
| 17>   C                      -9.052009            -1.199109            -8.938639
| 18>   O                      -10.155990           -1.919231            -8.421240
| 19>   H                      -10.052188           -2.063370            -7.485254
| 20>   H                      -8.106593            -1.434244            -8.527533
| 21>   H                      -8.975813            -1.231575            -10.048567
| 22>   H                      -9.261180            -0.121086            -8.653161
| 23> *
| 24>
| 25> #Run DFT-D3 single point of the molecule with dimer basis set
| 26> $new_job
| 27> %base "17-86_DFT_A"
| 28> ! wB97X-D3 def2-TZVP TIGHTSCF CHELPG PMODEL
| 29>
| 30> %scf
| 31> MaxIter 1000
| 32> end
| 33>
| 34> * xyz 0 1
| 35>   C                      -5.201214            2.513529             -9.631531
| 36>   O                      -4.515403            1.567229             -8.775223
| 37>   H                      -3.611690            1.885344             -8.810768
| 38>   H                      -5.769243            3.251244             -9.067049
| 39>   H                      -4.640554            2.954154             -10.383649
| 40>   H                      -6.017593            1.996925             -10.226665
| 41>   C                    : -9.052009            -1.199109            -8.938639
| 42>   O                    : -10.155990           -1.919231            -8.421240
| 43>   H                    : -10.052188           -2.063370            -7.485254
| 44>   H                    : -8.106593            -1.434244            -8.527533
| 45>   H                    : -8.975813            -1.231575            -10.048567
| 46>   H                    : -9.261180            -0.121086            -8.653161
| 47> *
| 48>
| 49> #Run DFT-D3 single point of the particle with dimer basis set
| 50> $new_job
| 51> %base "17-86_DFT_B"
| 52> ! wB97X-D3 def2-TZVP TIGHTSCF CHELPG PMODEL
| 53>
| 54> %scf
| 55> MaxIter 1000
| 56> end
| 57>
| 58> * xyz 0 1
| 59>   C                    : -5.201214            2.513529             -9.631531
| 60>   O                    : -4.515403            1.567229             -8.775223
| 61>   H                    : -3.611690            1.885344             -8.810768
| 62>   H                    : -5.769243            3.251244             -9.067049
| 63>   H                    : -4.640554            2.954154             -10.383649
| 64>   H                    : -6.017593            1.996925             -10.226665
| 65>   C                      -9.052009            -1.199109            -8.938639
| 66>   O                      -10.155990           -1.919231            -8.421240
| 67>   H                      -10.052188           -2.063370            -7.485254
| 68>   H                      -8.106593            -1.434244            -8.527533
| 69>   H                      -8.975813            -1.231575            -10.048567
| 70>   H                      -9.261180            -0.121086            -8.653161
| 71> *
| 72>
| 73>                          ****END OF INPUT****
 Total Charge           Charge          ....    0
 Multiplicity           Mult            ....    1
 Number of Electrons    NEL             ....   36
Dispersion correction           -0.000718552
FINAL SINGLE POINT ENERGY      -231.460734585980
Dispersion correction           -0.000262466
FINAL SINGLE POINT ENERGY      -115.728749546598

CARTESIAN COORDINATES (ANGSTROEM)
---------------------------------
  C     -5.201214    2.513529   -9.631531
  O     -4.515403    1.567229   -8.775223
  H     -3.611690    1.885344   -8.810768
  H     -5.769243    3.251244   -9.067049
  H     -4.640554    2.954154  -10.383649
  H     -6.017593    1.996925  -10.226665
  C     -9.052009   -1.199109   -8.938639
  O    -10.155990   -1.919231   -8.421240
  H    -10.052188   -2.063370   -7.485254
  H     -8.106593   -1.434244   -8.527533
  H     -8.975813   -1.231575  -10.048567
  H     -9.261180   -0.121086   -8.653161

 Multiplicity           Mult            ....    1
 Number of Electrons    NEL             ....   18
 Basis Dimension        Dim             ....  172

ORBITAL ENERGIES
----------------

  NO   OCC          E(Eh)            E(eV)
   0   2.0000     -19.228012      -523.2208
   1   2.0000     -10.316349      -280.7221
   2   2.0000      -1.135326       -30.8938
   3   2.0000      -0.796071       -21.6622
   4   2.0000      -0.615128       -16.7385
   5   2.0000      -0.534895       -14.5552
   6   2.0000      -0.528511       -14.3815
   7   2.0000      -0.434623       -11.8267
   8   2.0000      -0.368017       -10.0143
   9   0.0000       0.082928         2.2566
  10   0.0000       0.116645         3.1741
  11   0.0000       0.142371         3.8741
  12   0.0000       0.165207         4.4955
  13   0.0000       0.188960         5.1419

MULLIKEN ATOMIC CHARGES
-----------------------
   0 C :   -0.000030
   1 O :    0.000002
   2 H :    0.000000
   3 H :   -0.000003
   4 H :   -0.000004
   5 H :   -0.000005
   6 C :   -0.164125
   7 O :   -0.477046
   8 H :    0.314512
   9 H :    0.107105
  10 H :    0.122565
  11 H :    0.097029
Sum of atomic charges:    0.0000000

LOEWDIN ATOMIC CHARGES
----------------------
   0 C :   -0.000044
   1 O :   -0.000005
   2 H :   -0.000000
   3 H :   -0.000004
   4 H :   -0.000001
   5 H :   -0.000043
   6 C :   -0.384618
   7 O :   -0.078381
   8 H :    0.163472
   9 H :    0.084863
  10 H :    0.112117
  11 H :    0.102645

  Mayer bond orders larger than 0.1
B(  6-C ,  7-O ) :   0.9942 B(  6-C ,  9-H ) :   0.9715 B(  6-C , 10-H ) :   0.9694
B(  6-C , 11-H ) :   0.9879 B(  7-O ,  8-H ) :   0.8986

Dispersion correction           -0.000245915
FINAL SINGLE POINT ENERGY      -115.731369478573

DIPOLE MOMENT
-------------
                                X             Y             Z
Electronic contribution:     -1.37797      -1.12381       0.51501
Nuclear contribution   :      1.90656       1.29989      -0.11318
                        -----------------------------------------
Total Dipole Moment    :      0.52859       0.17607       0.40183
                        -----------------------------------------
Magnitude (a.u.)       :      0.68693
Magnitude (Debye)      :      1.74603

Rotational constants in cm-1:     4.333141     0.822890     0.794243
Rotational constants in MHz : 129904.308337 24669.614375 23810.815908

                             ****ORCA TERMINATED NORMALLY****
TOTAL RUN TIME: 0 days 0 hours 1 minutes 4 seconds 405 msec
