                         Program Version 4.1.2  - RELEASE  -
|  1> #Run DFT-D3 single point of the dimer
|  2> ! wB97X-D3 def2-TZVP TIGHTSCF CHELPG PMODEL PAL8
|  3>
|  4> %base "1-91_DFT_AB"
|  5>
|  6> %scf
|  7> MaxIter 1000
|  8> end
|  9>
| 10> * xyz 0 1
| 11>   C                      -7.546642            5.310844             -2.485952
| 12>   O                      -6.537382            4.702897             -1.704250
| 13>   H                      -6.634103            3.799627             -2.072274
| 14>   H                      -7.343214            5.297082             -3.570693
| 15>   H                      -8.497672            4.889586             -2.433377
| 16>   H                      -7.670592            6.410111             -2.234567
| 17>   C                      -7.383524            3.060164             -0.078590
| 18>   O                      -8.585551            2.833917             0.656873
| 19>   H                      -9.181825            3.527931             0.406084
| 20>   H                      -7.269240            2.349186             -0.874769
| 21>   H                      -7.253227            4.048759             -0.503714
| 22>   H                      -6.526529            2.898875             0.498537
| 23> *
| 24>
| 25> #Run DFT-D3 single point of the molecule with dimer basis set
| 26> $new_job
| 27> %base "1-91_DFT_A"
| 28> ! wB97X-D3 def2-TZVP TIGHTSCF CHELPG PMODEL
| 29>
| 30> %scf
| 31> MaxIter 1000
| 32> end
| 33>
| 34> * xyz 0 1
| 35>   C                      -7.546642            5.310844             -2.485952
| 36>   O                      -6.537382            4.702897             -1.704250
| 37>   H                      -6.634103            3.799627             -2.072274
| 38>   H                      -7.343214            5.297082             -3.570693
| 39>   H                      -8.497672            4.889586             -2.433377
| 40>   H                      -7.670592            6.410111             -2.234567
| 41>   C                    : -7.383524            3.060164             -0.078590
| 42>   O                    : -8.585551            2.833917             0.656873
| 43>   H                    : -9.181825            3.527931             0.406084
| 44>   H                    : -7.269240            2.349186             -0.874769
| 45>   H                    : -7.253227            4.048759             -0.503714
| 46>   H                    : -6.526529            2.898875             0.498537
| 47> *
| 48>
| 49> #Run DFT-D3 single point of the particle with dimer basis set
| 50> $new_job
| 51> %base "1-91_DFT_B"
| 52> ! wB97X-D3 def2-TZVP TIGHTSCF CHELPG PMODEL
| 53>
| 54> %scf
| 55> MaxIter 1000
| 56> end
| 57>
| 58> * xyz 0 1
| 59>   C                    : -7.546642            5.310844             -2.485952
| 60>   O                    : -6.537382            4.702897             -1.704250
| 61>   H                    : -6.634103            3.799627             -2.072274
| 62>   H                    : -7.343214            5.297082             -3.570693
| 63>   H                    : -8.497672            4.889586             -2.433377
| 64>   H                    : -7.670592            6.410111             -2.234567
| 65>   C                      -7.383524            3.060164             -0.078590
| 66>   O                      -8.585551            2.833917             0.656873
| 67>   H                      -9.181825            3.527931             0.406084
| 68>   H                      -7.269240            2.349186             -0.874769
| 69>   H                      -7.253227            4.048759             -0.503714
| 70>   H                      -6.526529            2.898875             0.498537
| 71> *
| 72>
| 73>                          ****END OF INPUT****
 Total Charge           Charge          ....    0
 Multiplicity           Mult            ....    1
 Number of Electrons    NEL             ....   36
Dispersion correction           -0.002062595
FINAL SINGLE POINT ENERGY      -231.428409261047
Dispersion correction           -0.000227655
FINAL SINGLE POINT ENERGY      -115.728827439941

CARTESIAN COORDINATES (ANGSTROEM)
---------------------------------
  C     -7.546642    5.310844   -2.485952
  O     -6.537382    4.702897   -1.704250
  H     -6.634103    3.799627   -2.072274
  H     -7.343214    5.297082   -3.570693
  H     -8.497672    4.889586   -2.433377
  H     -7.670592    6.410111   -2.234567
  C     -7.383524    3.060164   -0.078590
  O     -8.585551    2.833917    0.656873
  H     -9.181825    3.527931    0.406084
  H     -7.269240    2.349186   -0.874769
  H     -7.253227    4.048759   -0.503714
  H     -6.526529    2.898875    0.498537

 Multiplicity           Mult            ....    1
 Number of Electrons    NEL             ....   18
 Basis Dimension        Dim             ....  172

ORBITAL ENERGIES
----------------

  NO   OCC          E(Eh)            E(eV)
   0   2.0000     -19.231881      -523.3261
   1   2.0000     -10.305251      -280.4201
   2   2.0000      -1.136059       -30.9137
   3   2.0000      -0.805525       -21.9195
   4   2.0000      -0.613118       -16.6838
   5   2.0000      -0.537378       -14.6228
   6   2.0000      -0.531189       -14.4544
   7   2.0000      -0.442029       -12.0282
   8   2.0000      -0.375136       -10.2080
   9   0.0000       0.079547         2.1646
  10   0.0000       0.122852         3.3430
  11   0.0000       0.153478         4.1764
  12   0.0000       0.174986         4.7616
  13   0.0000       0.196215         5.3393

MULLIKEN ATOMIC CHARGES
-----------------------
   0 C :    0.002142
   1 O :   -0.001264
   2 H :   -0.005781
   3 H :    0.000230
   4 H :   -0.000134
   5 H :   -0.000051
   6 C :   -0.142185
   7 O :   -0.472689
   8 H :    0.315121
   9 H :    0.097209
  10 H :    0.090165
  11 H :    0.117236
Sum of atomic charges:   -0.0000000

LOEWDIN ATOMIC CHARGES
----------------------
   0 C :   -0.020169
   1 O :   -0.076782
   2 H :   -0.025307
   3 H :   -0.000314
   4 H :   -0.002199
   5 H :   -0.000532
   6 C :   -0.320527
   7 O :   -0.071979
   8 H :    0.163109
   9 H :    0.103158
  10 H :    0.155131
  11 H :    0.096411

  Mayer bond orders larger than 0.1
B(  6-C ,  7-O ) :   1.0177 B(  6-C ,  9-H ) :   0.9823 B(  6-C , 10-H ) :   0.9886
B(  6-C , 11-H ) :   0.9736 B(  7-O ,  8-H ) :   0.9049

Dispersion correction           -0.000253110
FINAL SINGLE POINT ENERGY      -115.732296593184

DIPOLE MOMENT
-------------
                                X             Y             Z
Electronic contribution:     -1.55869      -0.35693       1.05981
Nuclear contribution   :      1.67235       0.90102      -1.50338
                        -----------------------------------------
Total Dipole Moment    :      0.11366       0.54408      -0.44358
                        -----------------------------------------
Magnitude (a.u.)       :      0.71113
Magnitude (Debye)      :      1.80755

Rotational constants in cm-1:     4.603411     0.817817     0.785823
Rotational constants in MHz : 138006.775383 24517.527879 23558.366397

                             ****ORCA TERMINATED NORMALLY****
TOTAL RUN TIME: 0 days 0 hours 5 minutes 9 seconds 888 msec
