                         Program Version 4.1.2  - RELEASE  -
|  1> #Run DFT-D3 single point of the dimer
|  2> ! wB97X-D3 def2-TZVP TIGHTSCF CHELPG PMODEL PAL8
|  3>
|  4> %base "5-66_DFT_AB"
|  5>
|  6> %scf
|  7> MaxIter 1000
|  8> end
|  9>
| 10> * xyz 0 1
| 11>   C                      0.496941             1.392049             5.026981
| 12>   O                      -0.494197            0.337308             5.082726
| 13>   H                      -0.689183            0.394878             4.127763
| 14>   H                      1.282604             1.248695             5.776744
| 15>   H                      1.032644             1.416140             4.066925
| 16>   H                      -0.013328            2.353019             5.225455
| 17>   C                      0.255841             -3.219939            6.750236
| 18>   O                      -0.231669            -2.914213            8.068768
| 19>   H                      0.176344             -2.033813            8.312058
| 20>   H                      0.410983             -2.223815            6.248797
| 21>   H                      1.273961             -3.723358            6.828161
| 22>   H                      -0.387087            -3.896676            6.146418
| 23> *
| 24>
| 25> #Run DFT-D3 single point of the molecule with dimer basis set
| 26> $new_job
| 27> %base "5-66_DFT_A"
| 28> ! wB97X-D3 def2-TZVP TIGHTSCF CHELPG PMODEL
| 29>
| 30> %scf
| 31> MaxIter 1000
| 32> end
| 33>
| 34> * xyz 0 1
| 35>   C                      0.496941             1.392049             5.026981
| 36>   O                      -0.494197            0.337308             5.082726
| 37>   H                      -0.689183            0.394878             4.127763
| 38>   H                      1.282604             1.248695             5.776744
| 39>   H                      1.032644             1.416140             4.066925
| 40>   H                      -0.013328            2.353019             5.225455
| 41>   C                    : 0.255841             -3.219939            6.750236
| 42>   O                    : -0.231669            -2.914213            8.068768
| 43>   H                    : 0.176344             -2.033813            8.312058
| 44>   H                    : 0.410983             -2.223815            6.248797
| 45>   H                    : 1.273961             -3.723358            6.828161
| 46>   H                    : -0.387087            -3.896676            6.146418
| 47> *
| 48>
| 49> #Run DFT-D3 single point of the particle with dimer basis set
| 50> $new_job
| 51> %base "5-66_DFT_B"
| 52> ! wB97X-D3 def2-TZVP TIGHTSCF CHELPG PMODEL
| 53>
| 54> %scf
| 55> MaxIter 1000
| 56> end
| 57>
| 58> * xyz 0 1
| 59>   C                    : 0.496941             1.392049             5.026981
| 60>   O                    : -0.494197            0.337308             5.082726
| 61>   H                    : -0.689183            0.394878             4.127763
| 62>   H                    : 1.282604             1.248695             5.776744
| 63>   H                    : 1.032644             1.416140             4.066925
| 64>   H                    : -0.013328            2.353019             5.225455
| 65>   C                      0.255841             -3.219939            6.750236
| 66>   O                      -0.231669            -2.914213            8.068768
| 67>   H                      0.176344             -2.033813            8.312058
| 68>   H                      0.410983             -2.223815            6.248797
| 69>   H                      1.273961             -3.723358            6.828161
| 70>   H                      -0.387087            -3.896676            6.146418
| 71> *
| 72>
| 73>                          ****END OF INPUT****
 Total Charge           Charge          ....    0
 Multiplicity           Mult            ....    1
 Number of Electrons    NEL             ....   36
Dispersion correction           -0.001143771
FINAL SINGLE POINT ENERGY      -231.459770201364
Dispersion correction           -0.000226452
FINAL SINGLE POINT ENERGY      -115.728990602707

CARTESIAN COORDINATES (ANGSTROEM)
---------------------------------
  C      0.496941    1.392049    5.026981
  O     -0.494197    0.337308    5.082726
  H     -0.689183    0.394878    4.127763
  H      1.282604    1.248695    5.776744
  H      1.032644    1.416140    4.066925
  H     -0.013328    2.353019    5.225455
  C      0.255841   -3.219939    6.750236
  O     -0.231669   -2.914213    8.068768
  H      0.176344   -2.033813    8.312058
  H      0.410983   -2.223815    6.248797
  H      1.273961   -3.723358    6.828161
  H     -0.387087   -3.896676    6.146418

 Multiplicity           Mult            ....    1
 Number of Electrons    NEL             ....   18
 Basis Dimension        Dim             ....  172

ORBITAL ENERGIES
----------------

  NO   OCC          E(Eh)            E(eV)
   0   2.0000     -19.233740      -523.3767
   1   2.0000     -10.326097      -280.9874
   2   2.0000      -1.123335       -30.5675
   3   2.0000      -0.784196       -21.3391
   4   2.0000      -0.598938       -16.2979
   5   2.0000      -0.532547       -14.4914
   6   2.0000      -0.528723       -14.3873
   7   2.0000      -0.431984       -11.7549
   8   2.0000      -0.369797       -10.0627
   9   0.0000       0.074337         2.0228
  10   0.0000       0.110982         3.0200
  11   0.0000       0.147597         4.0163
  12   0.0000       0.166335         4.5262
  13   0.0000       0.180443         4.9101

MULLIKEN ATOMIC CHARGES
-----------------------
   0 C :    0.000124
   1 O :    0.000130
   2 H :   -0.000080
   3 H :   -0.000020
   4 H :   -0.000018
   5 H :   -0.000021
   6 C :   -0.177906
   7 O :   -0.473752
   8 H :    0.320149
   9 H :    0.103366
  10 H :    0.103484
  11 H :    0.124544
Sum of atomic charges:   -0.0000000

LOEWDIN ATOMIC CHARGES
----------------------
   0 C :   -0.000567
   1 O :   -0.001361
   2 H :   -0.000175
   3 H :   -0.000096
   4 H :   -0.000009
   5 H :   -0.000013
   6 C :   -0.382909
   7 O :   -0.118067
   8 H :    0.192443
   9 H :    0.101828
  10 H :    0.101025
  11 H :    0.107901

  Mayer bond orders larger than 0.1
B(  6-C ,  7-O ) :   0.9978 B(  6-C ,  9-H ) :   0.9876 B(  6-C , 10-H ) :   0.9704
B(  6-C , 11-H ) :   0.9679 B(  7-O ,  8-H ) :   0.8931

Dispersion correction           -0.000253006
FINAL SINGLE POINT ENERGY      -115.729188090316

DIPOLE MOMENT
-------------
                                X             Y             Z
Electronic contribution:     -0.84612       0.17675       1.64424
Nuclear contribution   :      1.27941       0.25077      -2.02277
                        -----------------------------------------
Total Dipole Moment    :      0.43328       0.42753      -0.37853
                        -----------------------------------------
Magnitude (a.u.)       :      0.71680
Magnitude (Debye)      :      1.82196

Rotational constants in cm-1:     4.013118     0.807149     0.772893
Rotational constants in MHz : 120310.241075 24197.705957 23170.761771

                             ****ORCA TERMINATED NORMALLY****
TOTAL RUN TIME: 0 days 0 hours 1 minutes 3 seconds 842 msec
