                         Program Version 4.1.2  - RELEASE  -
|  1> #Run DFT-D3 single point of the dimer
|  2> ! wB97X-D3 def2-TZVP TIGHTSCF CHELPG PMODEL PAL8
|  3>
|  4> %base "7-35_DFT_AB"
|  5>
|  6> %scf
|  7> MaxIter 1000
|  8> end
|  9>
| 10> * xyz 0 1
| 11>   C                      4.287323             3.811473             -10.095497
| 12>   O                      5.437001             3.561698             -10.899745
| 13>   H                      5.610883             2.637790             -10.816381
| 14>   H                      3.601199             4.500166             -10.683801
| 15>   H                      3.740410             2.909689             -9.881101
| 16>   H                      4.471084             4.301608             -9.117160
| 17>   C                      7.566947             5.501724             -7.688367
| 18>   O                      8.871619             5.154170             -7.252014
| 19>   H                      9.390646             4.968212             -8.055029
| 20>   H                      7.136891             4.654805             -8.248062
| 21>   H                      6.874358             5.827062             -6.924543
| 22>   H                      7.614516             6.193306             -8.485146
| 23> *
| 24>
| 25> #Run DFT-D3 single point of the molecule with dimer basis set
| 26> $new_job
| 27> %base "7-35_DFT_A"
| 28> ! wB97X-D3 def2-TZVP TIGHTSCF CHELPG PMODEL
| 29>
| 30> %scf
| 31> MaxIter 1000
| 32> end
| 33>
| 34> * xyz 0 1
| 35>   C                      4.287323             3.811473             -10.095497
| 36>   O                      5.437001             3.561698             -10.899745
| 37>   H                      5.610883             2.637790             -10.816381
| 38>   H                      3.601199             4.500166             -10.683801
| 39>   H                      3.740410             2.909689             -9.881101
| 40>   H                      4.471084             4.301608             -9.117160
| 41>   C                    : 7.566947             5.501724             -7.688367
| 42>   O                    : 8.871619             5.154170             -7.252014
| 43>   H                    : 9.390646             4.968212             -8.055029
| 44>   H                    : 7.136891             4.654805             -8.248062
| 45>   H                    : 6.874358             5.827062             -6.924543
| 46>   H                    : 7.614516             6.193306             -8.485146
| 47> *
| 48>
| 49> #Run DFT-D3 single point of the particle with dimer basis set
| 50> $new_job
| 51> %base "7-35_DFT_B"
| 52> ! wB97X-D3 def2-TZVP TIGHTSCF CHELPG PMODEL
| 53>
| 54> %scf
| 55> MaxIter 1000
| 56> end
| 57>
| 58> * xyz 0 1
| 59>   C                    : 4.287323             3.811473             -10.095497
| 60>   O                    : 5.437001             3.561698             -10.899745
| 61>   H                    : 5.610883             2.637790             -10.816381
| 62>   H                    : 3.601199             4.500166             -10.683801
| 63>   H                    : 3.740410             2.909689             -9.881101
| 64>   H                    : 4.471084             4.301608             -9.117160
| 65>   C                      7.566947             5.501724             -7.688367
| 66>   O                      8.871619             5.154170             -7.252014
| 67>   H                      9.390646             4.968212             -8.055029
| 68>   H                      7.136891             4.654805             -8.248062
| 69>   H                      6.874358             5.827062             -6.924543
| 70>   H                      7.614516             6.193306             -8.485146
| 71> *
| 72>
| 73>                          ****END OF INPUT****
 Total Charge           Charge          ....    0
 Multiplicity           Mult            ....    1
 Number of Electrons    NEL             ....   36
Dispersion correction           -0.001248258
FINAL SINGLE POINT ENERGY      -231.465156840447
Dispersion correction           -0.000258314
FINAL SINGLE POINT ENERGY      -115.733646078158

CARTESIAN COORDINATES (ANGSTROEM)
---------------------------------
  C      4.287323    3.811473  -10.095497
  O      5.437001    3.561698  -10.899745
  H      5.610883    2.637790  -10.816381
  H      3.601199    4.500166  -10.683801
  H      3.740410    2.909689   -9.881101
  H      4.471084    4.301608   -9.117160
  C      7.566947    5.501724   -7.688367
  O      8.871619    5.154170   -7.252014
  H      9.390646    4.968212   -8.055029
  H      7.136891    4.654805   -8.248062
  H      6.874358    5.827062   -6.924543
  H      7.614516    6.193306   -8.485146

 Multiplicity           Mult            ....    1
 Number of Electrons    NEL             ....   18
 Basis Dimension        Dim             ....  172

ORBITAL ENERGIES
----------------

  NO   OCC          E(Eh)            E(eV)
   0   2.0000     -19.231068      -523.3040
   1   2.0000     -10.309171      -280.5268
   2   2.0000      -1.132926       -30.8285
   3   2.0000      -0.798364       -21.7246
   4   2.0000      -0.614105       -16.7106
   5   2.0000      -0.537036       -14.6135
   6   2.0000      -0.529774       -14.4159
   7   2.0000      -0.441305       -12.0085
   8   2.0000      -0.367074        -9.9886
   9   0.0000       0.081058         2.2057
  10   0.0000       0.113301         3.0831
  11   0.0000       0.151016         4.1094
  12   0.0000       0.161195         4.3864
  13   0.0000       0.192112         5.2276

MULLIKEN ATOMIC CHARGES
-----------------------
   0 C :    0.000034
   1 O :    0.000076
   2 H :   -0.000042
   3 H :   -0.000033
   4 H :   -0.000032
   5 H :   -0.001205
   6 C :   -0.177007
   7 O :   -0.473258
   8 H :    0.316782
   9 H :    0.098398
  10 H :    0.130244
  11 H :    0.106043
Sum of atomic charges:   -0.0000000

LOEWDIN ATOMIC CHARGES
----------------------
   0 C :   -0.001919
   1 O :   -0.000350
   2 H :   -0.000151
   3 H :   -0.000018
   4 H :   -0.000017
   5 H :   -0.001690
   6 C :   -0.381380
   7 O :   -0.087368
   8 H :    0.179436
   9 H :    0.098258
  10 H :    0.107830
  11 H :    0.087369

  Mayer bond orders larger than 0.1
B(  6-C ,  7-O ) :   0.9910 B(  6-C ,  9-H ) :   0.9836 B(  6-C , 10-H ) :   0.9676
B(  6-C , 11-H ) :   0.9810 B(  7-O ,  8-H ) :   0.8963

Dispersion correction           -0.000222908
FINAL SINGLE POINT ENERGY      -115.729978211397

DIPOLE MOMENT
-------------
                                X             Y             Z
Electronic contribution:      1.62310      -0.31363       0.90761
Nuclear contribution   :     -1.82139       0.35071      -1.60070
                        -----------------------------------------
Total Dipole Moment    :     -0.19829       0.03708      -0.69309
                        -----------------------------------------
Magnitude (a.u.)       :      0.72185
Magnitude (Debye)      :      1.83480

Rotational constants in cm-1:     4.408025     0.834119     0.789700
Rotational constants in MHz : 132149.263284 25006.253070 23674.597599

                             ****ORCA TERMINATED NORMALLY****
TOTAL RUN TIME: 0 days 0 hours 0 minutes 59 seconds 3 msec
