                         Program Version 4.1.2  - RELEASE  -
|  1> #Run DFT-D3 single point of the dimer
|  2> ! wB97X-D3 def2-TZVP TIGHTSCF CHELPG PMODEL PAL8
|  3>
|  4> %base "6-146_DFT_AB"
|  5>
|  6> %scf
|  7> MaxIter 1000
|  8> end
|  9>
| 10> * xyz 0 1
| 11>   C                      8.189695             -3.280318            4.656080
| 12>   O                      8.707699             -3.551856            5.981906
| 13>   H                      9.065366             -2.754849            6.337936
| 14>   H                      8.093782             -2.275202            4.356234
| 15>   H                      8.937084             -3.749127            3.947132
| 16>   H                      7.235108             -3.741698            4.433493
| 17>   C                      5.586763             -5.731699            3.556566
| 18>   O                      6.439240             -6.855940            3.875305
| 19>   H                      6.470313             -7.460647            3.132939
| 20>   H                      4.635582             -6.021316            3.065610
| 21>   H                      5.302791             -4.989773            4.428867
| 22>   H                      6.078548             -5.071582            2.862421
| 23> *
| 24>
| 25> #Run DFT-D3 single point of the molecule with dimer basis set
| 26> $new_job
| 27> %base "6-146_DFT_A"
| 28> ! wB97X-D3 def2-TZVP TIGHTSCF CHELPG PMODEL
| 29>
| 30> %scf
| 31> MaxIter 1000
| 32> end
| 33>
| 34> * xyz 0 1
| 35>   C                      8.189695             -3.280318            4.656080
| 36>   O                      8.707699             -3.551856            5.981906
| 37>   H                      9.065366             -2.754849            6.337936
| 38>   H                      8.093782             -2.275202            4.356234
| 39>   H                      8.937084             -3.749127            3.947132
| 40>   H                      7.235108             -3.741698            4.433493
| 41>   C                    : 5.586763             -5.731699            3.556566
| 42>   O                    : 6.439240             -6.855940            3.875305
| 43>   H                    : 6.470313             -7.460647            3.132939
| 44>   H                    : 4.635582             -6.021316            3.065610
| 45>   H                    : 5.302791             -4.989773            4.428867
| 46>   H                    : 6.078548             -5.071582            2.862421
| 47> *
| 48>
| 49> #Run DFT-D3 single point of the particle with dimer basis set
| 50> $new_job
| 51> %base "6-146_DFT_B"
| 52> ! wB97X-D3 def2-TZVP TIGHTSCF CHELPG PMODEL
| 53>
| 54> %scf
| 55> MaxIter 1000
| 56> end
| 57>
| 58> * xyz 0 1
| 59>   C                    : 8.189695             -3.280318            4.656080
| 60>   O                    : 8.707699             -3.551856            5.981906
| 61>   H                    : 9.065366             -2.754849            6.337936
| 62>   H                    : 8.093782             -2.275202            4.356234
| 63>   H                    : 8.937084             -3.749127            3.947132
| 64>   H                    : 7.235108             -3.741698            4.433493
| 65>   C                      5.586763             -5.731699            3.556566
| 66>   O                      6.439240             -6.855940            3.875305
| 67>   H                      6.470313             -7.460647            3.132939
| 68>   H                      4.635582             -6.021316            3.065610
| 69>   H                      5.302791             -4.989773            4.428867
| 70>   H                      6.078548             -5.071582            2.862421
| 71> *
| 72>
| 73>                          ****END OF INPUT****
 Total Charge           Charge          ....    0
 Multiplicity           Mult            ....    1
 Number of Electrons    NEL             ....   36
Dispersion correction           -0.001624479
FINAL SINGLE POINT ENERGY      -231.456216202408
Dispersion correction           -0.000271708
FINAL SINGLE POINT ENERGY      -115.729892507959

CARTESIAN COORDINATES (ANGSTROEM)
---------------------------------
  C      8.189695   -3.280318    4.656080
  O      8.707699   -3.551856    5.981906
  H      9.065366   -2.754849    6.337936
  H      8.093782   -2.275202    4.356234
  H      8.937084   -3.749127    3.947132
  H      7.235108   -3.741698    4.433493
  C      5.586763   -5.731699    3.556566
  O      6.439240   -6.855940    3.875305
  H      6.470313   -7.460647    3.132939
  H      4.635582   -6.021316    3.065610
  H      5.302791   -4.989773    4.428867
  H      6.078548   -5.071582    2.862421

 Multiplicity           Mult            ....    1
 Number of Electrons    NEL             ....   18
 Basis Dimension        Dim             ....  172

ORBITAL ENERGIES
----------------

  NO   OCC          E(Eh)            E(eV)
   0   2.0000     -19.233258      -523.3636
   1   2.0000     -10.325851      -280.9807
   2   2.0000      -1.127825       -30.6897
   3   2.0000      -0.793900       -21.6031
   4   2.0000      -0.608214       -16.5504
   5   2.0000      -0.534885       -14.5550
   6   2.0000      -0.519203       -14.1282
   7   2.0000      -0.429913       -11.6985
   8   2.0000      -0.375313       -10.2128
   9   0.0000       0.090071         2.4510
  10   0.0000       0.119564         3.2535
  11   0.0000       0.142032         3.8649
  12   0.0000       0.170242         4.6325
  13   0.0000       0.190762         5.1909

MULLIKEN ATOMIC CHARGES
-----------------------
   0 C :    0.004783
   1 O :   -0.000054
   2 H :   -0.000007
   3 H :    0.000111
   4 H :   -0.000700
   5 H :   -0.007183
   6 C :   -0.186004
   7 O :   -0.478520
   8 H :    0.317508
   9 H :    0.113537
  10 H :    0.122425
  11 H :    0.114104
Sum of atomic charges:   -0.0000000

LOEWDIN ATOMIC CHARGES
----------------------
   0 C :   -0.003655
   1 O :   -0.000022
   2 H :   -0.000002
   3 H :   -0.000020
   4 H :   -0.000187
   5 H :   -0.008413
   6 C :   -0.374019
   7 O :   -0.097173
   8 H :    0.166639
   9 H :    0.097223
  10 H :    0.127541
  11 H :    0.092088

  Mayer bond orders larger than 0.1
B(  6-C ,  7-O ) :   0.9927 B(  6-C ,  9-H ) :   0.9670 B(  6-C , 10-H ) :   0.9678
B(  6-C , 11-H ) :   0.9760 B(  7-O ,  8-H ) :   0.8953

Dispersion correction           -0.000283681
FINAL SINGLE POINT ENERGY      -115.727005832981

DIPOLE MOMENT
-------------
                                X             Y             Z
Electronic contribution:      1.14630      -1.51115       0.56769
Nuclear contribution   :     -1.47614       1.59292      -1.19850
                        -----------------------------------------
Total Dipole Moment    :     -0.32983       0.08176      -0.63081
                        -----------------------------------------
Magnitude (a.u.)       :      0.71652
Magnitude (Debye)      :      1.82125

Rotational constants in cm-1:     4.334745     0.782761     0.750699
Rotational constants in MHz : 129952.392606 23466.578391 22505.385274

                             ****ORCA TERMINATED NORMALLY****
TOTAL RUN TIME: 0 days 0 hours 1 minutes 0 seconds 493 msec
