                         Program Version 4.1.2  - RELEASE  -
|  1> #Run DFT-D3 single point of the dimer
|  2> ! wB97X-D3 def2-TZVP TIGHTSCF CHELPG PMODEL PAL8
|  3>
|  4> %base "22-180_DFT_AB"
|  5>
|  6> %scf
|  7> MaxIter 1000
|  8> end
|  9>
| 10> * xyz 0 1
| 11>   C                      -4.521975            -6.233287            5.954755
| 12>   O                      -4.879138            -6.814400            7.255290
| 13>   H                      -4.346958            -6.453633            7.886201
| 14>   H                      -3.499010            -6.592115            5.620698
| 15>   H                      -5.202318            -6.713222            5.198677
| 16>   H                      -4.591454            -5.146394            5.966266
| 17>   C                      -5.704143            -4.582436            9.340201
| 18>   O                      -6.258970            -4.143728            8.110816
| 19>   H                      -6.607318            -4.873166            7.598088
| 20>   H                      -5.487212            -3.772024            10.044190
| 21>   H                      -6.435321            -5.206368            9.937870
| 22>   H                      -4.824860            -5.154785            9.351215
| 23> *
| 24>
| 25> #Run DFT-D3 single point of the molecule with dimer basis set
| 26> $new_job
| 27> %base "22-180_DFT_A"
| 28> ! wB97X-D3 def2-TZVP TIGHTSCF CHELPG PMODEL
| 29>
| 30> %scf
| 31> MaxIter 1000
| 32> end
| 33>
| 34> * xyz 0 1
| 35>   C                      -4.521975            -6.233287            5.954755
| 36>   O                      -4.879138            -6.814400            7.255290
| 37>   H                      -4.346958            -6.453633            7.886201
| 38>   H                      -3.499010            -6.592115            5.620698
| 39>   H                      -5.202318            -6.713222            5.198677
| 40>   H                      -4.591454            -5.146394            5.966266
| 41>   C                    : -5.704143            -4.582436            9.340201
| 42>   O                    : -6.258970            -4.143728            8.110816
| 43>   H                    : -6.607318            -4.873166            7.598088
| 44>   H                    : -5.487212            -3.772024            10.044190
| 45>   H                    : -6.435321            -5.206368            9.937870
| 46>   H                    : -4.824860            -5.154785            9.351215
| 47> *
| 48>
| 49> #Run DFT-D3 single point of the particle with dimer basis set
| 50> $new_job
| 51> %base "22-180_DFT_B"
| 52> ! wB97X-D3 def2-TZVP TIGHTSCF CHELPG PMODEL
| 53>
| 54> %scf
| 55> MaxIter 1000
| 56> end
| 57>
| 58> * xyz 0 1
| 59>   C                    : -4.521975            -6.233287            5.954755
| 60>   O                    : -4.879138            -6.814400            7.255290
| 61>   H                    : -4.346958            -6.453633            7.886201
| 62>   H                    : -3.499010            -6.592115            5.620698
| 63>   H                    : -5.202318            -6.713222            5.198677
| 64>   H                    : -4.591454            -5.146394            5.966266
| 65>   C                      -5.704143            -4.582436            9.340201
| 66>   O                      -6.258970            -4.143728            8.110816
| 67>   H                      -6.607318            -4.873166            7.598088
| 68>   H                      -5.487212            -3.772024            10.044190
| 69>   H                      -6.435321            -5.206368            9.937870
| 70>   H                      -4.824860            -5.154785            9.351215
| 71> *
| 72>
| 73>                          ****END OF INPUT****
 Total Charge           Charge          ....    0
 Multiplicity           Mult            ....    1
 Number of Electrons    NEL             ....   36
Dispersion correction           -0.002395459
FINAL SINGLE POINT ENERGY      -231.464210146902
Dispersion correction           -0.000268103
FINAL SINGLE POINT ENERGY      -115.729997766694

CARTESIAN COORDINATES (ANGSTROEM)
---------------------------------
  C     -4.521975   -6.233287    5.954755
  O     -4.879138   -6.814400    7.255290
  H     -4.346958   -6.453633    7.886201
  H     -3.499010   -6.592115    5.620698
  H     -5.202318   -6.713222    5.198677
  H     -4.591454   -5.146394    5.966266
  C     -5.704143   -4.582436    9.340201
  O     -6.258970   -4.143728    8.110816
  H     -6.607318   -4.873166    7.598088
  H     -5.487212   -3.772024   10.044190
  H     -6.435321   -5.206368    9.937870
  H     -4.824860   -5.154785    9.351215

 Multiplicity           Mult            ....    1
 Number of Electrons    NEL             ....   18
 Basis Dimension        Dim             ....  172

ORBITAL ENERGIES
----------------

  NO   OCC          E(Eh)            E(eV)
   0   2.0000     -19.236285      -523.4459
   1   2.0000     -10.313889      -280.6552
   2   2.0000      -1.136187       -30.9172
   3   2.0000      -0.803258       -21.8578
   4   2.0000      -0.618853       -16.8398
   5   2.0000      -0.535936       -14.5836
   6   2.0000      -0.528403       -14.3786
   7   2.0000      -0.429829       -11.6963
   8   2.0000      -0.377731       -10.2786
   9   0.0000       0.080792         2.1985
  10   0.0000       0.135538         3.6882
  11   0.0000       0.142451         3.8763
  12   0.0000       0.177774         4.8375
  13   0.0000       0.192620         5.2415

MULLIKEN ATOMIC CHARGES
-----------------------
   0 C :   -0.002897
   1 O :   -0.001986
   2 H :    0.001586
   3 H :   -0.000359
   4 H :    0.000471
   5 H :   -0.006318
   6 C :   -0.184385
   7 O :   -0.469017
   8 H :    0.322870
   9 H :    0.127042
  10 H :    0.100667
  11 H :    0.112326
Sum of atomic charges:   -0.0000000

LOEWDIN ATOMIC CHARGES
----------------------
   0 C :   -0.007567
   1 O :   -0.005593
   2 H :   -0.010302
   3 H :   -0.000102
   4 H :   -0.000127
   5 H :   -0.005492
   6 C :   -0.383077
   7 O :   -0.059458
   8 H :    0.169266
   9 H :    0.110988
  10 H :    0.102430
  11 H :    0.089034

  Mayer bond orders larger than 0.1
B(  6-C ,  7-O ) :   1.0080 B(  6-C ,  9-H ) :   0.9749 B(  6-C , 10-H ) :   0.9865
B(  6-C , 11-H ) :   0.9647 B(  7-O ,  8-H ) :   0.8930

Dispersion correction           -0.000276247
FINAL SINGLE POINT ENERGY      -115.730685957380

DIPOLE MOMENT
-------------
                                X             Y             Z
Electronic contribution:     -0.59007       0.74176      -1.76200
Nuclear contribution   :      0.59442      -1.37337       1.94250
                        -----------------------------------------
Total Dipole Moment    :      0.00436      -0.63161       0.18049
                        -----------------------------------------
Magnitude (a.u.)       :      0.65691
Magnitude (Debye)      :      1.66974

Rotational constants in cm-1:     4.603162     0.805095     0.778420
Rotational constants in MHz : 137999.310145 24136.146802 23336.444868

                             ****ORCA TERMINATED NORMALLY****
TOTAL RUN TIME: 0 days 0 hours 1 minutes 8 seconds 895 msec
