                         Program Version 4.1.2  - RELEASE  -
|  1> #Run DFT-D3 single point of the dimer
|  2> ! wB97X-D3 def2-TZVP TIGHTSCF CHELPG PMODEL PAL8
|  3>
|  4> %base "18-85_DFT_AB"
|  5>
|  6> %scf
|  7> MaxIter 1000
|  8> end
|  9>
| 10> * xyz 0 1
| 11>   C                      1.101496             -2.053978            7.307832
| 12>   O                      1.384987             -2.297058            5.969188
| 13>   H                      1.151471             -3.185395            5.702275
| 14>   H                      1.317104             -1.048099            7.698919
| 15>   H                      0.046442             -2.231063            7.406682
| 16>   H                      1.610017             -2.809292            7.907819
| 17>   C                      5.252981             -0.803003            7.182503
| 18>   O                      5.599119             -0.796855            5.796567
| 19>   H                      4.741925             -0.668005            5.308270
| 20>   H                      5.988763             -1.259529            7.777616
| 21>   H                      5.132993             0.267707             7.477022
| 22>   H                      4.233948             -1.214135            7.383336
| 23> *
| 24>
| 25> #Run DFT-D3 single point of the molecule with dimer basis set
| 26> $new_job
| 27> %base "18-85_DFT_A"
| 28> ! wB97X-D3 def2-TZVP TIGHTSCF CHELPG PMODEL
| 29>
| 30> %scf
| 31> MaxIter 1000
| 32> end
| 33>
| 34> * xyz 0 1
| 35>   C                      1.101496             -2.053978            7.307832
| 36>   O                      1.384987             -2.297058            5.969188
| 37>   H                      1.151471             -3.185395            5.702275
| 38>   H                      1.317104             -1.048099            7.698919
| 39>   H                      0.046442             -2.231063            7.406682
| 40>   H                      1.610017             -2.809292            7.907819
| 41>   C                    : 5.252981             -0.803003            7.182503
| 42>   O                    : 5.599119             -0.796855            5.796567
| 43>   H                    : 4.741925             -0.668005            5.308270
| 44>   H                    : 5.988763             -1.259529            7.777616
| 45>   H                    : 5.132993             0.267707             7.477022
| 46>   H                    : 4.233948             -1.214135            7.383336
| 47> *
| 48>
| 49> #Run DFT-D3 single point of the particle with dimer basis set
| 50> $new_job
| 51> %base "18-85_DFT_B"
| 52> ! wB97X-D3 def2-TZVP TIGHTSCF CHELPG PMODEL
| 53>
| 54> %scf
| 55> MaxIter 1000
| 56> end
| 57>
| 58> * xyz 0 1
| 59>   C                    : 1.101496             -2.053978            7.307832
| 60>   O                    : 1.384987             -2.297058            5.969188
| 61>   H                    : 1.151471             -3.185395            5.702275
| 62>   H                    : 1.317104             -1.048099            7.698919
| 63>   H                    : 0.046442             -2.231063            7.406682
| 64>   H                    : 1.610017             -2.809292            7.907819
| 65>   C                      5.252981             -0.803003            7.182503
| 66>   O                      5.599119             -0.796855            5.796567
| 67>   H                      4.741925             -0.668005            5.308270
| 68>   H                      5.988763             -1.259529            7.777616
| 69>   H                      5.132993             0.267707             7.477022
| 70>   H                      4.233948             -1.214135            7.383336
| 71> *
| 72>
| 73>                          ****END OF INPUT****
 Total Charge           Charge          ....    0
 Multiplicity           Mult            ....    1
 Number of Electrons    NEL             ....   36
Dispersion correction           -0.001308300
FINAL SINGLE POINT ENERGY      -231.463904217887
Dispersion correction           -0.000215820
FINAL SINGLE POINT ENERGY      -115.730665068557

CARTESIAN COORDINATES (ANGSTROEM)
---------------------------------
  C      1.101496   -2.053978    7.307832
  O      1.384987   -2.297058    5.969188
  H      1.151471   -3.185395    5.702275
  H      1.317104   -1.048099    7.698919
  H      0.046442   -2.231063    7.406682
  H      1.610017   -2.809292    7.907819
  C      5.252981   -0.803003    7.182503
  O      5.599119   -0.796855    5.796567
  H      4.741925   -0.668005    5.308270
  H      5.988763   -1.259529    7.777616
  H      5.132993    0.267707    7.477022
  H      4.233948   -1.214135    7.383336

 Multiplicity           Mult            ....    1
 Number of Electrons    NEL             ....   18
 Basis Dimension        Dim             ....  172

ORBITAL ENERGIES
----------------

  NO   OCC          E(Eh)            E(eV)
   0   2.0000     -19.232653      -523.3471
   1   2.0000     -10.314597      -280.6745
   2   2.0000      -1.126512       -30.6539
   3   2.0000      -0.792355       -21.5611
   4   2.0000      -0.605178       -16.4677
   5   2.0000      -0.539175       -14.6717
   6   2.0000      -0.523633       -14.2488
   7   2.0000      -0.441285       -12.0080
   8   2.0000      -0.367408        -9.9977
   9   0.0000       0.073526         2.0007
  10   0.0000       0.116251         3.1634
  11   0.0000       0.144795         3.9401
  12   0.0000       0.170853         4.6492
  13   0.0000       0.184245         5.0136

MULLIKEN ATOMIC CHARGES
-----------------------
   0 C :    0.003065
   1 O :   -0.000353
   2 H :   -0.000037
   3 H :   -0.000707
   4 H :    0.000028
   5 H :   -0.001069
   6 C :   -0.168248
   7 O :   -0.473899
   8 H :    0.317182
   9 H :    0.128086
  10 H :    0.101506
  11 H :    0.094445
Sum of atomic charges:   -0.0000000

LOEWDIN ATOMIC CHARGES
----------------------
   0 C :   -0.003366
   1 O :   -0.000150
   2 H :   -0.000015
   3 H :   -0.000795
   4 H :   -0.000032
   5 H :   -0.000565
   6 C :   -0.377057
   7 O :   -0.104753
   8 H :    0.189611
   9 H :    0.096012
  10 H :    0.100383
  11 H :    0.100726

  Mayer bond orders larger than 0.1
B(  6-C ,  7-O ) :   0.9983 B(  6-C ,  9-H ) :   0.9719 B(  6-C , 10-H ) :   0.9823
B(  6-C , 11-H ) :   0.9775 B(  7-O ,  8-H ) :   0.8957

Dispersion correction           -0.000237328
FINAL SINGLE POINT ENERGY      -115.730951902092

DIPOLE MOMENT
-------------
                                X             Y             Z
Electronic contribution:      0.73015      -0.19679      -1.69260
Nuclear contribution   :     -1.39543       0.26561       1.94425
                        -----------------------------------------
Total Dipole Moment    :     -0.66528       0.06883       0.25165
                        -----------------------------------------
Magnitude (a.u.)       :      0.71461
Magnitude (Debye)      :      1.81640

Rotational constants in cm-1:     4.190490     0.823606     0.785884
Rotational constants in MHz : 125627.718250 24691.081935 23560.195475

                             ****ORCA TERMINATED NORMALLY****
TOTAL RUN TIME: 0 days 0 hours 1 minutes 2 seconds 395 msec
