                         Program Version 4.1.2  - RELEASE  -
|  1> #Run DFT-D3 single point of the dimer
|  2> ! wB97X-D3 def2-TZVP TIGHTSCF CHELPG PMODEL PAL8
|  3>
|  4> %base "10-206_DFT_AB"
|  5>
|  6> %scf
|  7> MaxIter 1000
|  8> end
|  9>
| 10> * xyz 0 1
| 11>   C                      8.342874             0.104326             4.201428
| 12>   O                      7.583200             -0.980625            4.645904
| 13>   H                      6.758597             -0.933515            4.068780
| 14>   H                      8.598974             -0.101445            3.202489
| 15>   H                      7.803589             1.065992             4.327193
| 16>   H                      9.238974             0.066731             4.795214
| 17>   C                      9.598185             -2.203292            7.606864
| 18>   O                      9.218014             -2.751726            6.369150
| 19>   H                      8.917730             -1.988035            5.834676
| 20>   H                      9.861956             -2.945192            8.385856
| 21>   H                      10.572371            -1.642456            7.436267
| 22>   H                      8.937665             -1.366411            8.022716
| 23> *
| 24>
| 25> #Run DFT-D3 single point of the molecule with dimer basis set
| 26> $new_job
| 27> %base "10-206_DFT_A"
| 28> ! wB97X-D3 def2-TZVP TIGHTSCF CHELPG PMODEL
| 29>
| 30> %scf
| 31> MaxIter 1000
| 32> end
| 33>
| 34> * xyz 0 1
| 35>   C                      8.342874             0.104326             4.201428
| 36>   O                      7.583200             -0.980625            4.645904
| 37>   H                      6.758597             -0.933515            4.068780
| 38>   H                      8.598974             -0.101445            3.202489
| 39>   H                      7.803589             1.065992             4.327193
| 40>   H                      9.238974             0.066731             4.795214
| 41>   C                    : 9.598185             -2.203292            7.606864
| 42>   O                    : 9.218014             -2.751726            6.369150
| 43>   H                    : 8.917730             -1.988035            5.834676
| 44>   H                    : 9.861956             -2.945192            8.385856
| 45>   H                    : 10.572371            -1.642456            7.436267
| 46>   H                    : 8.937665             -1.366411            8.022716
| 47> *
| 48>
| 49> #Run DFT-D3 single point of the particle with dimer basis set
| 50> $new_job
| 51> %base "10-206_DFT_B"
| 52> ! wB97X-D3 def2-TZVP TIGHTSCF CHELPG PMODEL
| 53>
| 54> %scf
| 55> MaxIter 1000
| 56> end
| 57>
| 58> * xyz 0 1
| 59>   C                    : 8.342874             0.104326             4.201428
| 60>   O                    : 7.583200             -0.980625            4.645904
| 61>   H                    : 6.758597             -0.933515            4.068780
| 62>   H                    : 8.598974             -0.101445            3.202489
| 63>   H                    : 7.803589             1.065992             4.327193
| 64>   H                    : 9.238974             0.066731             4.795214
| 65>   C                      9.598185             -2.203292            7.606864
| 66>   O                      9.218014             -2.751726            6.369150
| 67>   H                      8.917730             -1.988035            5.834676
| 68>   H                      9.861956             -2.945192            8.385856
| 69>   H                      10.572371            -1.642456            7.436267
| 70>   H                      8.937665             -1.366411            8.022716
| 71> *
| 72>
| 73>                          ****END OF INPUT****
 Total Charge           Charge          ....    0
 Multiplicity           Mult            ....    1
 Number of Electrons    NEL             ....   36
Dispersion correction           -0.001708563
FINAL SINGLE POINT ENERGY      -231.465266148850
Dispersion correction           -0.000201165
FINAL SINGLE POINT ENERGY      -115.730994064750

CARTESIAN COORDINATES (ANGSTROEM)
---------------------------------
  C      8.342874    0.104326    4.201428
  O      7.583200   -0.980625    4.645904
  H      6.758597   -0.933515    4.068780
  H      8.598974   -0.101445    3.202489
  H      7.803589    1.065992    4.327193
  H      9.238974    0.066731    4.795214
  C      9.598185   -2.203292    7.606864
  O      9.218014   -2.751726    6.369150
  H      8.917730   -1.988035    5.834676
  H      9.861956   -2.945192    8.385856
  H     10.572371   -1.642456    7.436267
  H      8.937665   -1.366411    8.022716

 Multiplicity           Mult            ....    1
 Number of Electrons    NEL             ....   18
 Basis Dimension        Dim             ....  172

ORBITAL ENERGIES
----------------

  NO   OCC          E(Eh)            E(eV)
   0   2.0000     -19.237929      -523.4907
   1   2.0000     -10.324084      -280.9326
   2   2.0000      -1.140255       -31.0279
   3   2.0000      -0.786207       -21.3938
   4   2.0000      -0.612127       -16.6568
   5   2.0000      -0.533266       -14.5109
   6   2.0000      -0.526586       -14.3291
   7   2.0000      -0.440724       -11.9927
   8   2.0000      -0.367294        -9.9946
   9   0.0000       0.067580         1.8389
  10   0.0000       0.127994         3.4829
  11   0.0000       0.149593         4.0706
  12   0.0000       0.162831         4.4309
  13   0.0000       0.185801         5.0559

MULLIKEN ATOMIC CHARGES
-----------------------
   0 C :   -0.001083
   1 O :   -0.002311
   2 H :   -0.000185
   3 H :   -0.000047
   4 H :   -0.000025
   5 H :   -0.001631
   6 C :   -0.194852
   7 O :   -0.454931
   8 H :    0.318974
   9 H :    0.130821
  10 H :    0.100409
  11 H :    0.104861
Sum of atomic charges:   -0.0000000

LOEWDIN ATOMIC CHARGES
----------------------
   0 C :   -0.005819
   1 O :   -0.014382
   2 H :   -0.000541
   3 H :   -0.000111
   4 H :   -0.000075
   5 H :   -0.002411
   6 C :   -0.415165
   7 O :   -0.066546
   8 H :    0.193208
   9 H :    0.110709
  10 H :    0.099069
  11 H :    0.102064

  Mayer bond orders larger than 0.1
B(  6-C ,  7-O ) :   0.9939 B(  6-C ,  9-H ) :   0.9687 B(  6-C , 10-H ) :   0.9831
B(  6-C , 11-H ) :   0.9643 B(  7-O ,  8-H ) :   0.9012

Dispersion correction           -0.000250705
FINAL SINGLE POINT ENERGY      -115.729299901338

DIPOLE MOMENT
-------------
                                X             Y             Z
Electronic contribution:     -0.65503      -1.07273      -1.56325
Nuclear contribution   :      0.62510       1.73756       1.69698
                        -----------------------------------------
Total Dipole Moment    :     -0.02992       0.66483       0.13373
                        -----------------------------------------
Magnitude (a.u.)       :      0.67881
Magnitude (Debye)      :      1.72539

Rotational constants in cm-1:     4.124091     0.831490     0.790380
Rotational constants in MHz : 123637.138173 24927.428363 23694.985770

                             ****ORCA TERMINATED NORMALLY****
TOTAL RUN TIME: 0 days 0 hours 1 minutes 6 seconds 879 msec
