                         Program Version 4.1.2  - RELEASE  -
|  1> #Run DFT-D3 single point of the dimer
|  2> ! wB97X-D3 def2-TZVP TIGHTSCF CHELPG PMODEL PAL8
|  3>
|  4> %base "18-148_DFT_AB"
|  5>
|  6> %scf
|  7> MaxIter 1000
|  8> end
|  9>
| 10> * xyz 0 1
| 11>   C                      5.641995             4.520124             -8.847300
| 12>   O                      5.914629             3.378470             -9.529383
| 13>   H                      5.066729             3.001475             -9.704170
| 14>   H                      4.686652             4.955392             -9.118282
| 15>   H                      5.772955             4.386332             -7.807525
| 16>   H                      6.396416             5.279030             -8.989679
| 17>   C                      9.787844             2.152567             -10.184364
| 18>   O                      8.841214             3.115848             -10.503385
| 19>   H                      7.997305             3.046407             -10.016759
| 20>   H                      9.332874             1.321949             -9.644591
| 21>   H                      10.278225            1.725676             -11.109056
| 22>   H                      10.528190            2.590519             -9.499628
| 23> *
| 24>
| 25> #Run DFT-D3 single point of the molecule with dimer basis set
| 26> $new_job
| 27> %base "18-148_DFT_A"
| 28> ! wB97X-D3 def2-TZVP TIGHTSCF CHELPG PMODEL
| 29>
| 30> %scf
| 31> MaxIter 1000
| 32> end
| 33>
| 34> * xyz 0 1
| 35>   C                      5.641995             4.520124             -8.847300
| 36>   O                      5.914629             3.378470             -9.529383
| 37>   H                      5.066729             3.001475             -9.704170
| 38>   H                      4.686652             4.955392             -9.118282
| 39>   H                      5.772955             4.386332             -7.807525
| 40>   H                      6.396416             5.279030             -8.989679
| 41>   C                    : 9.787844             2.152567             -10.184364
| 42>   O                    : 8.841214             3.115848             -10.503385
| 43>   H                    : 7.997305             3.046407             -10.016759
| 44>   H                    : 9.332874             1.321949             -9.644591
| 45>   H                    : 10.278225            1.725676             -11.109056
| 46>   H                    : 10.528190            2.590519             -9.499628
| 47> *
| 48>
| 49> #Run DFT-D3 single point of the particle with dimer basis set
| 50> $new_job
| 51> %base "18-148_DFT_B"
| 52> ! wB97X-D3 def2-TZVP TIGHTSCF CHELPG PMODEL
| 53>
| 54> %scf
| 55> MaxIter 1000
| 56> end
| 57>
| 58> * xyz 0 1
| 59>   C                    : 5.641995             4.520124             -8.847300
| 60>   O                    : 5.914629             3.378470             -9.529383
| 61>   H                    : 5.066729             3.001475             -9.704170
| 62>   H                    : 4.686652             4.955392             -9.118282
| 63>   H                    : 5.772955             4.386332             -7.807525
| 64>   H                    : 6.396416             5.279030             -8.989679
| 65>   C                      9.787844             2.152567             -10.184364
| 66>   O                      8.841214             3.115848             -10.503385
| 67>   H                      7.997305             3.046407             -10.016759
| 68>   H                      9.332874             1.321949             -9.644591
| 69>   H                      10.278225            1.725676             -11.109056
| 70>   H                      10.528190            2.590519             -9.499628
| 71> *
| 72>
| 73>                          ****END OF INPUT****
 Total Charge           Charge          ....    0
 Multiplicity           Mult            ....    1
 Number of Electrons    NEL             ....   36
Dispersion correction           -0.001409025
FINAL SINGLE POINT ENERGY      -231.468894710358
Dispersion correction           -0.000209949
FINAL SINGLE POINT ENERGY      -115.728816777026

CARTESIAN COORDINATES (ANGSTROEM)
---------------------------------
  C      5.641995    4.520124   -8.847300
  O      5.914629    3.378470   -9.529383
  H      5.066729    3.001475   -9.704170
  H      4.686652    4.955392   -9.118282
  H      5.772955    4.386332   -7.807525
  H      6.396416    5.279030   -8.989679
  C      9.787844    2.152567  -10.184364
  O      8.841214    3.115848  -10.503385
  H      7.997305    3.046407  -10.016759
  H      9.332874    1.321949   -9.644591
  H     10.278225    1.725676  -11.109056
  H     10.528190    2.590519   -9.499628

 Multiplicity           Mult            ....    1
 Number of Electrons    NEL             ....   18
 Basis Dimension        Dim             ....  172

ORBITAL ENERGIES
----------------

  NO   OCC          E(Eh)            E(eV)
   0   2.0000     -19.227794      -523.2149
   1   2.0000     -10.314926      -280.6834
   2   2.0000      -1.136712       -30.9315
   3   2.0000      -0.792316       -21.5600
   4   2.0000      -0.616145       -16.7662
   5   2.0000      -0.542748       -14.7689
   6   2.0000      -0.527887       -14.3645
   7   2.0000      -0.420791       -11.4503
   8   2.0000      -0.370061       -10.0699
   9   0.0000       0.072479         1.9723
  10   0.0000       0.127932         3.4812
  11   0.0000       0.152380         4.1465
  12   0.0000       0.166226         4.5233
  13   0.0000       0.195908         5.3309

MULLIKEN ATOMIC CHARGES
-----------------------
   0 C :   -0.001862
   1 O :    0.000865
   2 H :   -0.000019
   3 H :   -0.000085
   4 H :    0.000263
   5 H :   -0.000356
   6 C :   -0.148061
   7 O :   -0.481524
   8 H :    0.316932
   9 H :    0.101114
  10 H :    0.108638
  11 H :    0.104094
Sum of atomic charges:    0.0000000

LOEWDIN ATOMIC CHARGES
----------------------
   0 C :   -0.003037
   1 O :   -0.010236
   2 H :   -0.000505
   3 H :   -0.000073
   4 H :   -0.000079
   5 H :   -0.000645
   6 C :   -0.405756
   7 O :   -0.065608
   8 H :    0.184859
   9 H :    0.093726
  10 H :    0.110052
  11 H :    0.097303

  Mayer bond orders larger than 0.1
B(  6-C ,  7-O ) :   1.0013 B(  6-C ,  9-H ) :   0.9855 B(  6-C , 10-H ) :   0.9693
B(  6-C , 11-H ) :   0.9756 B(  7-O ,  8-H ) :   0.8937

Dispersion correction           -0.000249822
FINAL SINGLE POINT ENERGY      -115.733079497657

DIPOLE MOMENT
-------------
                                X             Y             Z
Electronic contribution:     -1.14081       1.29401      -0.52155
Nuclear contribution   :      0.93499      -1.73695       0.97854
                        -----------------------------------------
Total Dipole Moment    :     -0.20582      -0.44294       0.45699
                        -----------------------------------------
Magnitude (a.u.)       :      0.66888
Magnitude (Debye)      :      1.70015

Rotational constants in cm-1:     4.268500     0.843656     0.818178
Rotational constants in MHz : 127966.399900 25292.155777 24528.366652

                             ****ORCA TERMINATED NORMALLY****
TOTAL RUN TIME: 0 days 0 hours 0 minutes 59 seconds 120 msec
