                         Program Version 4.1.2  - RELEASE  -
|  1> #Run DFT-D3 single point of the dimer
|  2> ! wB97X-D3 def2-TZVP TIGHTSCF CHELPG PMODEL PAL8
|  3>
|  4> %base "8-134_DFT_AB"
|  5>
|  6> %scf
|  7> MaxIter 1000
|  8> end
|  9>
| 10> * xyz 0 1
| 11>   C                      -3.245610            4.766604             5.925738
| 12>   O                      -2.105204            5.526825             5.753957
| 13>   H                      -2.061038            5.470847             4.812791
| 14>   H                      -3.398093            4.514218             6.964937
| 15>   H                      -4.115643            5.335577             5.674308
| 16>   H                      -3.145554            3.834048             5.296263
| 17>   C                      -0.724076            2.085475             2.183284
| 18>   O                      -1.374681            2.465893             3.392818
| 19>   H                      -1.953464            3.260510             3.216241
| 20>   H                      0.226551             1.538815             2.290839
| 21>   H                      -1.235051            1.347565             1.552322
| 22>   H                      -0.372481            2.892699             1.636223
| 23> *
| 24>
| 25> #Run DFT-D3 single point of the molecule with dimer basis set
| 26> $new_job
| 27> %base "8-134_DFT_A"
| 28> ! wB97X-D3 def2-TZVP TIGHTSCF CHELPG PMODEL
| 29>
| 30> %scf
| 31> MaxIter 1000
| 32> end
| 33>
| 34> * xyz 0 1
| 35>   C                      -3.245610            4.766604             5.925738
| 36>   O                      -2.105204            5.526825             5.753957
| 37>   H                      -2.061038            5.470847             4.812791
| 38>   H                      -3.398093            4.514218             6.964937
| 39>   H                      -4.115643            5.335577             5.674308
| 40>   H                      -3.145554            3.834048             5.296263
| 41>   C                    : -0.724076            2.085475             2.183284
| 42>   O                    : -1.374681            2.465893             3.392818
| 43>   H                    : -1.953464            3.260510             3.216241
| 44>   H                    : 0.226551             1.538815             2.290839
| 45>   H                    : -1.235051            1.347565             1.552322
| 46>   H                    : -0.372481            2.892699             1.636223
| 47> *
| 48>
| 49> #Run DFT-D3 single point of the particle with dimer basis set
| 50> $new_job
| 51> %base "8-134_DFT_B"
| 52> ! wB97X-D3 def2-TZVP TIGHTSCF CHELPG PMODEL
| 53>
| 54> %scf
| 55> MaxIter 1000
| 56> end
| 57>
| 58> * xyz 0 1
| 59>   C                    : -3.245610            4.766604             5.925738
| 60>   O                    : -2.105204            5.526825             5.753957
| 61>   H                    : -2.061038            5.470847             4.812791
| 62>   H                    : -3.398093            4.514218             6.964937
| 63>   H                    : -4.115643            5.335577             5.674308
| 64>   H                    : -3.145554            3.834048             5.296263
| 65>   C                      -0.724076            2.085475             2.183284
| 66>   O                      -1.374681            2.465893             3.392818
| 67>   H                      -1.953464            3.260510             3.216241
| 68>   H                      0.226551             1.538815             2.290839
| 69>   H                      -1.235051            1.347565             1.552322
| 70>   H                      -0.372481            2.892699             1.636223
| 71> *
| 72>
| 73>                          ****END OF INPUT****
 Total Charge           Charge          ....    0
 Multiplicity           Mult            ....    1
 Number of Electrons    NEL             ....   36
Dispersion correction           -0.001355938
FINAL SINGLE POINT ENERGY      -231.453538612458
Dispersion correction           -0.000191737
FINAL SINGLE POINT ENERGY      -115.729312863280

CARTESIAN COORDINATES (ANGSTROEM)
---------------------------------
  C     -3.245610    4.766604    5.925738
  O     -2.105204    5.526825    5.753957
  H     -2.061038    5.470847    4.812791
  H     -3.398093    4.514218    6.964937
  H     -4.115643    5.335577    5.674308
  H     -3.145554    3.834048    5.296263
  C     -0.724076    2.085475    2.183284
  O     -1.374681    2.465893    3.392818
  H     -1.953464    3.260510    3.216241
  H      0.226551    1.538815    2.290839
  H     -1.235051    1.347565    1.552322
  H     -0.372481    2.892699    1.636223

 Multiplicity           Mult            ....    1
 Number of Electrons    NEL             ....   18
 Basis Dimension        Dim             ....  172

ORBITAL ENERGIES
----------------

  NO   OCC          E(Eh)            E(eV)
   0   2.0000     -19.238461      -523.5051
   1   2.0000     -10.308825      -280.5174
   2   2.0000      -1.126806       -30.6620
   3   2.0000      -0.802695       -21.8425
   4   2.0000      -0.608828       -16.5671
   5   2.0000      -0.546205       -14.8630
   6   2.0000      -0.522620       -14.2212
   7   2.0000      -0.426043       -11.5932
   8   2.0000      -0.377245       -10.2654
   9   0.0000       0.081781         2.2254
  10   0.0000       0.125911         3.4262
  11   0.0000       0.146327         3.9818
  12   0.0000       0.176624         4.8062
  13   0.0000       0.200073         5.4443

MULLIKEN ATOMIC CHARGES
-----------------------
   0 C :    0.000523
   1 O :    0.000119
   2 H :   -0.002044
   3 H :    0.000012
   4 H :    0.000020
   5 H :   -0.002899
   6 C :   -0.181576
   7 O :   -0.472009
   8 H :    0.324492
   9 H :    0.114123
  10 H :    0.103775
  11 H :    0.115465
Sum of atomic charges:   -0.0000000

LOEWDIN ATOMIC CHARGES
----------------------
   0 C :   -0.001533
   1 O :   -0.000204
   2 H :   -0.001855
   3 H :   -0.000005
   4 H :   -0.000009
   5 H :   -0.002884
   6 C :   -0.388772
   7 O :   -0.093908
   8 H :    0.194801
   9 H :    0.111349
  10 H :    0.097455
  11 H :    0.085564

  Mayer bond orders larger than 0.1
B(  6-C ,  7-O ) :   1.0117 B(  6-C ,  9-H ) :   0.9733 B(  6-C , 10-H ) :   0.9753
B(  6-C , 11-H ) :   0.9800 B(  7-O ,  8-H ) :   0.8873

Dispersion correction           -0.000274384
FINAL SINGLE POINT ENERGY      -115.725374288594

DIPOLE MOMENT
-------------
                                X             Y             Z
Electronic contribution:     -0.90937       0.49232       1.68272
Nuclear contribution   :      0.85515      -0.13814      -2.28819
                        -----------------------------------------
Total Dipole Moment    :     -0.05422       0.35418      -0.60547
                        -----------------------------------------
Magnitude (a.u.)       :      0.70355
Magnitude (Debye)      :      1.78827

Rotational constants in cm-1:     4.624518     0.797540     0.776208
Rotational constants in MHz : 138639.572114 23909.639544 23270.135595

                             ****ORCA TERMINATED NORMALLY****
TOTAL RUN TIME: 0 days 0 hours 0 minutes 43 seconds 762 msec
