                         Program Version 4.1.2  - RELEASE  -
|  1> #Run DFT-D3 single point of the dimer
|  2> ! wB97X-D3 def2-TZVP TIGHTSCF CHELPG PMODEL PAL8
|  3>
|  4> %base "5-135_DFT_AB"
|  5>
|  6> %scf
|  7> MaxIter 1000
|  8> end
|  9>
| 10> * xyz 0 1
| 11>   C                      0.074017             4.217301             -5.496732
| 12>   O                      0.563221             5.487481             -5.740181
| 13>   H                      -0.073991            6.071840             -5.294138
| 14>   H                      -0.913316            4.025196             -5.905946
| 15>   H                      0.774878             3.517048             -5.955846
| 16>   H                      -0.044787            3.904843             -4.515804
| 17>   C                      -1.613132            7.950779             -1.862534
| 18>   O                      -2.005124            8.287322             -3.185681
| 19>   H                      -2.797053            7.751525             -3.445970
| 20>   H                      -1.196587            6.901148             -1.756135
| 21>   H                      -0.742310            8.533457             -1.647358
| 22>   H                      -2.418454            8.136153             -1.107895
| 23> *
| 24>
| 25> #Run DFT-D3 single point of the molecule with dimer basis set
| 26> $new_job
| 27> %base "5-135_DFT_A"
| 28> ! wB97X-D3 def2-TZVP TIGHTSCF CHELPG PMODEL
| 29>
| 30> %scf
| 31> MaxIter 1000
| 32> end
| 33>
| 34> * xyz 0 1
| 35>   C                      0.074017             4.217301             -5.496732
| 36>   O                      0.563221             5.487481             -5.740181
| 37>   H                      -0.073991            6.071840             -5.294138
| 38>   H                      -0.913316            4.025196             -5.905946
| 39>   H                      0.774878             3.517048             -5.955846
| 40>   H                      -0.044787            3.904843             -4.515804
| 41>   C                    : -1.613132            7.950779             -1.862534
| 42>   O                    : -2.005124            8.287322             -3.185681
| 43>   H                    : -2.797053            7.751525             -3.445970
| 44>   H                    : -1.196587            6.901148             -1.756135
| 45>   H                    : -0.742310            8.533457             -1.647358
| 46>   H                    : -2.418454            8.136153             -1.107895
| 47> *
| 48>
| 49> #Run DFT-D3 single point of the particle with dimer basis set
| 50> $new_job
| 51> %base "5-135_DFT_B"
| 52> ! wB97X-D3 def2-TZVP TIGHTSCF CHELPG PMODEL
| 53>
| 54> %scf
| 55> MaxIter 1000
| 56> end
| 57>
| 58> * xyz 0 1
| 59>   C                    : 0.074017             4.217301             -5.496732
| 60>   O                    : 0.563221             5.487481             -5.740181
| 61>   H                    : -0.073991            6.071840             -5.294138
| 62>   H                    : -0.913316            4.025196             -5.905946
| 63>   H                    : 0.774878             3.517048             -5.955846
| 64>   H                    : -0.044787            3.904843             -4.515804
| 65>   C                      -1.613132            7.950779             -1.862534
| 66>   O                      -2.005124            8.287322             -3.185681
| 67>   H                      -2.797053            7.751525             -3.445970
| 68>   H                      -1.196587            6.901148             -1.756135
| 69>   H                      -0.742310            8.533457             -1.647358
| 70>   H                      -2.418454            8.136153             -1.107895
| 71> *
| 72>
| 73>                          ****END OF INPUT****
 Total Charge           Charge          ....    0
 Multiplicity           Mult            ....    1
 Number of Electrons    NEL             ....   36
Dispersion correction           -0.000908510
FINAL SINGLE POINT ENERGY      -231.466088078582
Dispersion correction           -0.000222440
FINAL SINGLE POINT ENERGY      -115.731076325626

CARTESIAN COORDINATES (ANGSTROEM)
---------------------------------
  C      0.074017    4.217301   -5.496732
  O      0.563221    5.487481   -5.740181
  H     -0.073991    6.071840   -5.294138
  H     -0.913316    4.025196   -5.905946
  H      0.774878    3.517048   -5.955846
  H     -0.044787    3.904843   -4.515804
  C     -1.613132    7.950779   -1.862534
  O     -2.005124    8.287322   -3.185681
  H     -2.797053    7.751525   -3.445970
  H     -1.196587    6.901148   -1.756135
  H     -0.742310    8.533457   -1.647358
  H     -2.418454    8.136153   -1.107895

 Multiplicity           Mult            ....    1
 Number of Electrons    NEL             ....   18
 Basis Dimension        Dim             ....  172

ORBITAL ENERGIES
----------------

  NO   OCC          E(Eh)            E(eV)
   0   2.0000     -19.234905      -523.4084
   1   2.0000     -10.317166      -280.7444
   2   2.0000      -1.128596       -30.7107
   3   2.0000      -0.792362       -21.5613
   4   2.0000      -0.604271       -16.4431
   5   2.0000      -0.541515       -14.7354
   6   2.0000      -0.521496       -14.1906
   7   2.0000      -0.431112       -11.7312
   8   2.0000      -0.374365       -10.1870
   9   0.0000       0.084365         2.2957
  10   0.0000       0.116419         3.1679
  11   0.0000       0.149075         4.0565
  12   0.0000       0.174381         4.7452
  13   0.0000       0.188225         5.1219

MULLIKEN ATOMIC CHARGES
-----------------------
   0 C :    0.000253
   1 O :    0.000381
   2 H :   -0.003287
   3 H :   -0.000011
   4 H :   -0.000005
   5 H :   -0.000046
   6 C :   -0.164163
   7 O :   -0.477036
   8 H :    0.317403
   9 H :    0.097633
  10 H :    0.123652
  11 H :    0.105226
Sum of atomic charges:    0.0000000

LOEWDIN ATOMIC CHARGES
----------------------
   0 C :   -0.000054
   1 O :   -0.000034
   2 H :   -0.001928
   3 H :   -0.000002
   4 H :   -0.000001
   5 H :   -0.000026
   6 C :   -0.392663
   7 O :   -0.093696
   8 H :    0.184941
   9 H :    0.100272
  10 H :    0.103971
  11 H :    0.099221

  Mayer bond orders larger than 0.1
B(  6-C ,  7-O ) :   1.0019 B(  6-C ,  9-H ) :   0.9712 B(  6-C , 10-H ) :   0.9746
B(  6-C , 11-H ) :   0.9711 B(  7-O ,  8-H ) :   0.8932

Dispersion correction           -0.000269213
FINAL SINGLE POINT ENERGY      -115.733794502104

DIPOLE MOMENT
-------------
                                X             Y             Z
Electronic contribution:     -0.47721       0.57660      -1.69178
Nuclear contribution   :      0.15631      -1.02223       2.05374
                        -----------------------------------------
Total Dipole Moment    :     -0.32091      -0.44564       0.36195
                        -----------------------------------------
Magnitude (a.u.)       :      0.65771
Magnitude (Debye)      :      1.67177

Rotational constants in cm-1:     4.201903     0.813483     0.790182
Rotational constants in MHz : 125969.889563 24387.609289 23689.052730

                             ****ORCA TERMINATED NORMALLY****
TOTAL RUN TIME: 0 days 0 hours 0 minutes 48 seconds 931 msec
