                         Program Version 4.1.2  - RELEASE  -
|  1> #Run DFT-D3 single point of the dimer
|  2> ! wB97X-D3 def2-TZVP TIGHTSCF  CHELPG PAL8
|  3>
|  4> %base "127_charges"
|  5>
|  6> %scf
|  7> MaxIter 1000
|  8> end
|  9> %output
| 10>   Print[ P_Mayer ] 1
| 11>   Print[ P_NatPop ] 1
| 12>   Print[ P_Hirshfeld ] 1
| 13>   Print[ P_Mulliken ] 1
| 14>   Print [ P_Loewdin ] 1
| 15> end
| 16>
| 17> * xyz 0 1
| 18>   C                      -10.098520           10.833077            -6.815279
| 19>   O                      -10.981571           11.908553            -6.668838
| 20>   H                      -11.639317           11.588059            -6.074430
| 21>   H                      -9.229156            11.043200            -6.215133
| 22>   H                      -10.519480           9.872046             -6.504603
| 23>   H                      -9.689245            10.734752            -7.778384
| 24> *
| 25>
| 26>                          ****END OF INPUT****

CARTESIAN COORDINATES (ANGSTROEM)
---------------------------------
  C    -10.098520   10.833077   -6.815279
  O    -10.981571   11.908553   -6.668838
  H    -11.639317   11.588059   -6.074430
  H     -9.229156   11.043200   -6.215133
  H    -10.519480    9.872046   -6.504603
  H     -9.689245   10.734752   -7.778384

 Total Charge           Charge          ....    0
 Multiplicity           Mult            ....    1
 Number of Electrons    NEL             ....   18
 Basis Dimension        Dim             ....   86

ORBITAL ENERGIES
----------------

  NO   OCC          E(Eh)            E(eV)
   0   2.0000     -19.228550      -523.2355
   1   2.0000     -10.304570      -280.4016
   2   2.0000      -1.146353       -31.1939
   3   2.0000      -0.800489       -21.7824
   4   2.0000      -0.616197       -16.7676
   5   2.0000      -0.540131       -14.6977
   6   2.0000      -0.537682       -14.6311
   7   2.0000      -0.441368       -12.0102
   8   2.0000      -0.370216       -10.0741
   9   0.0000       0.116031         3.1574
  10   0.0000       0.159218         4.3325
  11   0.0000       0.198805         5.4098
  12   0.0000       0.215265         5.8577
  13   0.0000       0.237378         6.4594

MULLIKEN ATOMIC CHARGES
-----------------------
   0 C :   -0.167443
   1 O :   -0.459748
   2 H :    0.313743
   3 H :    0.101656
   4 H :    0.098082
   5 H :    0.113709
Sum of atomic charges:   -0.0000000

LOEWDIN ATOMIC CHARGES
----------------------
   0 C :   -0.391092
   1 O :   -0.057159
   2 H :    0.162290
   3 H :    0.094945
   4 H :    0.096796
   5 H :    0.094220

  Mayer bond orders larger than 0.1
B(  0-C ,  1-O ) :   1.0133 B(  0-C ,  3-H ) :   0.9831 B(  0-C ,  4-H ) :   0.9856
B(  0-C ,  5-H ) :   0.9758 B(  1-O ,  2-H ) :   0.9057

Dispersion correction           -0.000224190
FINAL SINGLE POINT ENERGY      -115.731585364283

DIPOLE MOMENT
-------------
                                X             Y             Z
Electronic contribution:     -1.16398       1.45952       0.02264
Nuclear contribution   :      1.08818      -2.08449       0.29107
                        -----------------------------------------
Total Dipole Moment    :     -0.07580      -0.62497       0.31372
                        -----------------------------------------
Magnitude (a.u.)       :      0.70339
Magnitude (Debye)      :      1.78787

Rotational constants in cm-1:     4.474493     0.855598     0.816564
Rotational constants in MHz : 134141.924827 25650.190239 24479.967916

                             ****ORCA TERMINATED NORMALLY****
TOTAL RUN TIME: 0 days 0 hours 0 minutes 43 seconds 86 msec
