                         Program Version 4.1.2  - RELEASE  -
|  1> #Run DFT-D3 single point of the dimer
|  2> ! wB97X-D3 def2-TZVP TIGHTSCF CHELPG PMODEL PAL8
|  3>
|  4> %base "19-21_DFT_AB"
|  5>
|  6> %scf
|  7> MaxIter 1000
|  8> end
|  9>
| 10> * xyz 0 1
| 11>   C                      9.121018             -8.002332            -6.658130
| 12>   O                      10.161908            -7.980103            -7.581041
| 13>   H                      10.228390            -8.853579            -7.970329
| 14>   H                      8.705024             -7.045005            -6.526222
| 15>   H                      8.234115             -8.471532            -7.034247
| 16>   H                      9.419755             -8.306082            -5.708888
| 17>   C                      4.563243             -8.956103            -7.843925
| 18>   O                      4.352439             -9.628202            -9.066214
| 19>   H                      4.870757             -10.458427           -8.890365
| 20>   H                      3.999747             -9.345409            -6.942468
| 21>   H                      5.655802             -9.041741            -7.518581
| 22>   H                      4.320447             -7.883231            -7.849700
| 23> *
| 24>
| 25> #Run DFT-D3 single point of the molecule with dimer basis set
| 26> $new_job
| 27> %base "19-21_DFT_A"
| 28> ! wB97X-D3 def2-TZVP TIGHTSCF CHELPG PMODEL
| 29>
| 30> %scf
| 31> MaxIter 1000
| 32> end
| 33>
| 34> * xyz 0 1
| 35>   C                      9.121018             -8.002332            -6.658130
| 36>   O                      10.161908            -7.980103            -7.581041
| 37>   H                      10.228390            -8.853579            -7.970329
| 38>   H                      8.705024             -7.045005            -6.526222
| 39>   H                      8.234115             -8.471532            -7.034247
| 40>   H                      9.419755             -8.306082            -5.708888
| 41>   C                    : 4.563243             -8.956103            -7.843925
| 42>   O                    : 4.352439             -9.628202            -9.066214
| 43>   H                    : 4.870757             -10.458427           -8.890365
| 44>   H                    : 3.999747             -9.345409            -6.942468
| 45>   H                    : 5.655802             -9.041741            -7.518581
| 46>   H                    : 4.320447             -7.883231            -7.849700
| 47> *
| 48>
| 49> #Run DFT-D3 single point of the particle with dimer basis set
| 50> $new_job
| 51> %base "19-21_DFT_B"
| 52> ! wB97X-D3 def2-TZVP TIGHTSCF CHELPG PMODEL
| 53>
| 54> %scf
| 55> MaxIter 1000
| 56> end
| 57>
| 58> * xyz 0 1
| 59>   C                    : 9.121018             -8.002332            -6.658130
| 60>   O                    : 10.161908            -7.980103            -7.581041
| 61>   H                    : 10.228390            -8.853579            -7.970329
| 62>   H                    : 8.705024             -7.045005            -6.526222
| 63>   H                    : 8.234115             -8.471532            -7.034247
| 64>   H                    : 9.419755             -8.306082            -5.708888
| 65>   C                      4.563243             -8.956103            -7.843925
| 66>   O                      4.352439             -9.628202            -9.066214
| 67>   H                      4.870757             -10.458427           -8.890365
| 68>   H                      3.999747             -9.345409            -6.942468
| 69>   H                      5.655802             -9.041741            -7.518581
| 70>   H                      4.320447             -7.883231            -7.849700
| 71> *
| 72>
| 73>                          ****END OF INPUT****
 Total Charge           Charge          ....    0
 Multiplicity           Mult            ....    1
 Number of Electrons    NEL             ....   36
Dispersion correction           -0.000953913
FINAL SINGLE POINT ENERGY      -231.458143528033
Dispersion correction           -0.000227595
FINAL SINGLE POINT ENERGY      -115.728993670515

CARTESIAN COORDINATES (ANGSTROEM)
---------------------------------
  C      9.121018   -8.002332   -6.658130
  O     10.161908   -7.980103   -7.581041
  H     10.228390   -8.853579   -7.970329
  H      8.705024   -7.045005   -6.526222
  H      8.234115   -8.471532   -7.034247
  H      9.419755   -8.306082   -5.708888
  C      4.563243   -8.956103   -7.843925
  O      4.352439   -9.628202   -9.066214
  H      4.870757  -10.458427   -8.890365
  H      3.999747   -9.345409   -6.942468
  H      5.655802   -9.041741   -7.518581
  H      4.320447   -7.883231   -7.849700

 Multiplicity           Mult            ....    1
 Number of Electrons    NEL             ....   18
 Basis Dimension        Dim             ....  172

ORBITAL ENERGIES
----------------

  NO   OCC          E(Eh)            E(eV)
   0   2.0000     -19.242199      -523.6068
   1   2.0000     -10.323545      -280.9179
   2   2.0000      -1.140217       -31.0269
   3   2.0000      -0.784899       -21.3582
   4   2.0000      -0.608681       -16.5630
   5   2.0000      -0.533763       -14.5244
   6   2.0000      -0.528152       -14.3717
   7   2.0000      -0.440268       -11.9803
   8   2.0000      -0.373289       -10.1577
   9   0.0000       0.082429         2.2430
  10   0.0000       0.111681         3.0390
  11   0.0000       0.144727         3.9382
  12   0.0000       0.167605         4.5608
  13   0.0000       0.184737         5.0269

MULLIKEN ATOMIC CHARGES
-----------------------
   0 C :   -0.001333
   1 O :   -0.000005
   2 H :   -0.000006
   3 H :   -0.000018
   4 H :    0.002222
   5 H :    0.000024
   6 C :   -0.189306
   7 O :   -0.451628
   8 H :    0.322667
   9 H :    0.099295
  10 H :    0.092804
  11 H :    0.125286
Sum of atomic charges:    0.0000000

LOEWDIN ATOMIC CHARGES
----------------------
   0 C :   -0.000877
   1 O :   -0.000008
   2 H :   -0.000001
   3 H :   -0.000053
   4 H :   -0.002726
   5 H :   -0.000004
   6 C :   -0.417464
   7 O :   -0.083065
   8 H :    0.197909
   9 H :    0.097259
  10 H :    0.102183
  11 H :    0.106846

  Mayer bond orders larger than 0.1
B(  6-C ,  7-O ) :   1.0087 B(  6-C ,  9-H ) :   0.9630 B(  6-C , 10-H ) :   0.9842
B(  6-C , 11-H ) :   0.9740 B(  7-O ,  8-H ) :   0.8940

Dispersion correction           -0.000251702
FINAL SINGLE POINT ENERGY      -115.729057417652

DIPOLE MOMENT
-------------
                                X             Y             Z
Electronic contribution:     -0.49051      -0.75281      -1.88056
Nuclear contribution   :      0.88013       0.51309       2.42435
                        -----------------------------------------
Total Dipole Moment    :      0.38963      -0.23972       0.54379
                        -----------------------------------------
Magnitude (a.u.)       :      0.71062
Magnitude (Debye)      :      1.80625

Rotational constants in cm-1:     4.138984     0.825294     0.788736
Rotational constants in MHz : 124083.606085 24741.697629 23645.724722

                             ****ORCA TERMINATED NORMALLY****
TOTAL RUN TIME: 0 days 0 hours 0 minutes 47 seconds 244 msec
