                         Program Version 4.1.2  - RELEASE  -
|  1> #Run DFT-D3 single point of the dimer
|  2> ! wB97X-D3 def2-TZVP TIGHTSCF CHELPG PMODEL PAL8
|  3>
|  4> %base "17-43_DFT_AB"
|  5>
|  6> %scf
|  7> MaxIter 1000
|  8> end
|  9>
| 10> * xyz 0 1
| 11>   C                      8.855435             2.500085             -1.398292
| 12>   O                      8.460156             1.355056             -0.672985
| 13>   H                      9.255421             1.118995             -0.121987
| 14>   H                      9.214119             3.364614             -0.741264
| 15>   H                      9.646805             2.202095             -2.062144
| 16>   H                      8.024161             2.826217             -2.019382
| 17>   C                      7.325339             5.251497             0.133177
| 18>   O                      6.504811             4.108082             0.081789
| 19>   H                      5.631289             4.365463             -0.281375
| 20>   H                      8.367817             5.088402             0.117534
| 21>   H                      7.009722             5.937494             -0.695289
| 22>   H                      6.979847             5.774637             1.076056
| 23> *
| 24>
| 25> #Run DFT-D3 single point of the molecule with dimer basis set
| 26> $new_job
| 27> %base "17-43_DFT_A"
| 28> ! wB97X-D3 def2-TZVP TIGHTSCF CHELPG PMODEL
| 29>
| 30> %scf
| 31> MaxIter 1000
| 32> end
| 33>
| 34> * xyz 0 1
| 35>   C                      8.855435             2.500085             -1.398292
| 36>   O                      8.460156             1.355056             -0.672985
| 37>   H                      9.255421             1.118995             -0.121987
| 38>   H                      9.214119             3.364614             -0.741264
| 39>   H                      9.646805             2.202095             -2.062144
| 40>   H                      8.024161             2.826217             -2.019382
| 41>   C                    : 7.325339             5.251497             0.133177
| 42>   O                    : 6.504811             4.108082             0.081789
| 43>   H                    : 5.631289             4.365463             -0.281375
| 44>   H                    : 8.367817             5.088402             0.117534
| 45>   H                    : 7.009722             5.937494             -0.695289
| 46>   H                    : 6.979847             5.774637             1.076056
| 47> *
| 48>
| 49> #Run DFT-D3 single point of the particle with dimer basis set
| 50> $new_job
| 51> %base "17-43_DFT_B"
| 52> ! wB97X-D3 def2-TZVP TIGHTSCF CHELPG PMODEL
| 53>
| 54> %scf
| 55> MaxIter 1000
| 56> end
| 57>
| 58> * xyz 0 1
| 59>   C                    : 8.855435             2.500085             -1.398292
| 60>   O                    : 8.460156             1.355056             -0.672985
| 61>   H                    : 9.255421             1.118995             -0.121987
| 62>   H                    : 9.214119             3.364614             -0.741264
| 63>   H                    : 9.646805             2.202095             -2.062144
| 64>   H                    : 8.024161             2.826217             -2.019382
| 65>   C                      7.325339             5.251497             0.133177
| 66>   O                      6.504811             4.108082             0.081789
| 67>   H                      5.631289             4.365463             -0.281375
| 68>   H                      8.367817             5.088402             0.117534
| 69>   H                      7.009722             5.937494             -0.695289
| 70>   H                      6.979847             5.774637             1.076056
| 71> *
| 72>
| 73>                          ****END OF INPUT****
 Total Charge           Charge          ....    0
 Multiplicity           Mult            ....    1
 Number of Electrons    NEL             ....   36
Dispersion correction           -0.001994707
FINAL SINGLE POINT ENERGY      -231.460421557880
Dispersion correction           -0.000231603
FINAL SINGLE POINT ENERGY      -115.733536204635

CARTESIAN COORDINATES (ANGSTROEM)
---------------------------------
  C      8.855435    2.500085   -1.398292
  O      8.460156    1.355056   -0.672985
  H      9.255421    1.118995   -0.121987
  H      9.214119    3.364614   -0.741264
  H      9.646805    2.202095   -2.062144
  H      8.024161    2.826217   -2.019382
  C      7.325339    5.251497    0.133177
  O      6.504811    4.108082    0.081789
  H      5.631289    4.365463   -0.281375
  H      8.367817    5.088402    0.117534
  H      7.009722    5.937494   -0.695289
  H      6.979847    5.774637    1.076056

 Multiplicity           Mult            ....    1
 Number of Electrons    NEL             ....   18
 Basis Dimension        Dim             ....  172

ORBITAL ENERGIES
----------------

  NO   OCC          E(Eh)            E(eV)
   0   2.0000     -19.228641      -523.2379
   1   2.0000     -10.316302      -280.7209
   2   2.0000      -1.133713       -30.8499
   3   2.0000      -0.791074       -21.5262
   4   2.0000      -0.607165       -16.5218
   5   2.0000      -0.549029       -14.9398
   6   2.0000      -0.528820       -14.3899
   7   2.0000      -0.430602       -11.7173
   8   2.0000      -0.364958        -9.9310
   9   0.0000       0.093593         2.5468
  10   0.0000       0.118294         3.2189
  11   0.0000       0.154574         4.2062
  12   0.0000       0.179992         4.8978
  13   0.0000       0.192770         5.2455

MULLIKEN ATOMIC CHARGES
-----------------------
   0 C :    0.015931
   1 O :   -0.001633
   2 H :   -0.000119
   3 H :   -0.002304
   4 H :    0.000081
   5 H :   -0.012341
   6 C :   -0.184413
   7 O :   -0.480507
   8 H :    0.320186
   9 H :    0.133477
  10 H :    0.105362
  11 H :    0.106278
Sum of atomic charges:    0.0000000

LOEWDIN ATOMIC CHARGES
----------------------
   0 C :   -0.013280
   1 O :   -0.000940
   2 H :   -0.000098
   3 H :   -0.006794
   4 H :   -0.000107
   5 H :   -0.005215
   6 C :   -0.384435
   7 O :   -0.077263
   8 H :    0.182656
   9 H :    0.099989
  10 H :    0.100932
  11 H :    0.104557

  Mayer bond orders larger than 0.1
B(  6-C ,  7-O ) :   0.9815 B(  6-C ,  9-H ) :   0.9665 B(  6-C , 10-H ) :   0.9861
B(  6-C , 11-H ) :   0.9819 B(  7-O ,  8-H ) :   0.8919

Dispersion correction           -0.000221473
FINAL SINGLE POINT ENERGY      -115.728641761865

DIPOLE MOMENT
-------------
                                X             Y             Z
Electronic contribution:     -0.67779      -1.65732      -0.05500
Nuclear contribution   :      0.45546       2.26519      -0.16292
                        -----------------------------------------
Total Dipole Moment    :     -0.22232       0.60787      -0.21793
                        -----------------------------------------
Magnitude (a.u.)       :      0.68296
Magnitude (Debye)      :      1.73593

Rotational constants in cm-1:     4.157880     0.842139     0.809297
Rotational constants in MHz : 124650.119067 25246.687320 24262.128270

                             ****ORCA TERMINATED NORMALLY****
TOTAL RUN TIME: 0 days 0 hours 1 minutes 12 seconds 72 msec
