                         Program Version 4.1.2  - RELEASE  -
|  1> #Run DFT-D3 single point of the dimer
|  2> ! wB97X-D3 def2-TZVP TIGHTSCF CHELPG PMODEL PAL8
|  3>
|  4> %base "13-30_DFT_AB"
|  5>
|  6> %scf
|  7> MaxIter 1000
|  8> end
|  9>
| 10> * xyz 0 1
| 11>   C                      0.693580             10.738664            9.003647
| 12>   O                      -0.631449            10.218537            8.833525
| 13>   H                      -0.875626            10.477739            7.931465
| 14>   H                      0.926423             11.509323            8.158757
| 15>   H                      0.794173             11.306749            9.896924
| 16>   H                      1.519966             9.978133             8.991568
| 17>   C                      2.701878             9.705959             5.380964
| 18>   O                      1.464070             9.997816             5.992280
| 19>   H                      1.000192             9.224758             6.311026
| 20>   H                      3.526265             9.544627             6.159898
| 21>   H                      2.591694             8.808226             4.797396
| 22>   H                      3.152210             10.482703            4.708439
| 23> *
| 24>
| 25> #Run DFT-D3 single point of the molecule with dimer basis set
| 26> $new_job
| 27> %base "13-30_DFT_A"
| 28> ! wB97X-D3 def2-TZVP TIGHTSCF CHELPG PMODEL
| 29>
| 30> %scf
| 31> MaxIter 1000
| 32> end
| 33>
| 34> * xyz 0 1
| 35>   C                      0.693580             10.738664            9.003647
| 36>   O                      -0.631449            10.218537            8.833525
| 37>   H                      -0.875626            10.477739            7.931465
| 38>   H                      0.926423             11.509323            8.158757
| 39>   H                      0.794173             11.306749            9.896924
| 40>   H                      1.519966             9.978133             8.991568
| 41>   C                    : 2.701878             9.705959             5.380964
| 42>   O                    : 1.464070             9.997816             5.992280
| 43>   H                    : 1.000192             9.224758             6.311026
| 44>   H                    : 3.526265             9.544627             6.159898
| 45>   H                    : 2.591694             8.808226             4.797396
| 46>   H                    : 3.152210             10.482703            4.708439
| 47> *
| 48>
| 49> #Run DFT-D3 single point of the particle with dimer basis set
| 50> $new_job
| 51> %base "13-30_DFT_B"
| 52> ! wB97X-D3 def2-TZVP TIGHTSCF CHELPG PMODEL
| 53>
| 54> %scf
| 55> MaxIter 1000
| 56> end
| 57>
| 58> * xyz 0 1
| 59>   C                    : 0.693580             10.738664            9.003647
| 60>   O                    : -0.631449            10.218537            8.833525
| 61>   H                    : -0.875626            10.477739            7.931465
| 62>   H                    : 0.926423             11.509323            8.158757
| 63>   H                    : 0.794173             11.306749            9.896924
| 64>   H                    : 1.519966             9.978133             8.991568
| 65>   C                      2.701878             9.705959             5.380964
| 66>   O                      1.464070             9.997816             5.992280
| 67>   H                      1.000192             9.224758             6.311026
| 68>   H                      3.526265             9.544627             6.159898
| 69>   H                      2.591694             8.808226             4.797396
| 70>   H                      3.152210             10.482703            4.708439
| 71> *
| 72>
| 73>                          ****END OF INPUT****
 Total Charge           Charge          ....    0
 Multiplicity           Mult            ....    1
 Number of Electrons    NEL             ....   36
Dispersion correction           -0.002010998
FINAL SINGLE POINT ENERGY      -231.463323934966
Dispersion correction           -0.000268285
FINAL SINGLE POINT ENERGY      -115.730080235034

CARTESIAN COORDINATES (ANGSTROEM)
---------------------------------
  C      0.693580   10.738664    9.003647
  O     -0.631449   10.218537    8.833525
  H     -0.875626   10.477739    7.931465
  H      0.926423   11.509323    8.158757
  H      0.794173   11.306749    9.896924
  H      1.519966    9.978133    8.991568
  C      2.701878    9.705959    5.380964
  O      1.464070    9.997816    5.992280
  H      1.000192    9.224758    6.311026
  H      3.526265    9.544627    6.159898
  H      2.591694    8.808226    4.797396
  H      3.152210   10.482703    4.708439

 Multiplicity           Mult            ....    1
 Number of Electrons    NEL             ....   18
 Basis Dimension        Dim             ....  172

ORBITAL ENERGIES
----------------

  NO   OCC          E(Eh)            E(eV)
   0   2.0000     -19.230700      -523.2940
   1   2.0000     -10.321449      -280.8609
   2   2.0000      -1.136132       -30.9157
   3   2.0000      -0.795327       -21.6419
   4   2.0000      -0.614516       -16.7218
   5   2.0000      -0.541197       -14.7267
   6   2.0000      -0.528348       -14.3771
   7   2.0000      -0.423663       -11.5285
   8   2.0000      -0.372076       -10.1247
   9   0.0000       0.090291         2.4569
  10   0.0000       0.131448         3.5769
  11   0.0000       0.145375         3.9558
  12   0.0000       0.177524         4.8307
  13   0.0000       0.193622         5.2687

MULLIKEN ATOMIC CHARGES
-----------------------
   0 C :   -0.001661
   1 O :    0.000317
   2 H :   -0.001155
   3 H :   -0.003894
   4 H :   -0.001175
   5 H :   -0.004687
   6 C :   -0.163840
   7 O :   -0.475687
   8 H :    0.324889
   9 H :    0.094346
  10 H :    0.107481
  11 H :    0.125066
Sum of atomic charges:    0.0000000

LOEWDIN ATOMIC CHARGES
----------------------
   0 C :   -0.014556
   1 O :   -0.000280
   2 H :   -0.001502
   3 H :   -0.007638
   4 H :   -0.000200
   5 H :   -0.003087
   6 C :   -0.392808
   7 O :   -0.056080
   8 H :    0.169786
   9 H :    0.100886
  10 H :    0.092078
  11 H :    0.113402

  Mayer bond orders larger than 0.1
B(  6-C ,  7-O ) :   0.9983 B(  6-C ,  9-H ) :   0.9735 B(  6-C , 10-H ) :   0.9820
B(  6-C , 11-H ) :   0.9676 B(  7-O ,  8-H ) :   0.8879

Dispersion correction           -0.000263899
FINAL SINGLE POINT ENERGY      -115.730595123799

DIPOLE MOMENT
-------------
                                X             Y             Z
Electronic contribution:     -1.67812       0.53387       0.68462
Nuclear contribution   :      1.86993      -1.17054      -0.76972
                        -----------------------------------------
Total Dipole Moment    :      0.19182      -0.63667      -0.08510
                        -----------------------------------------
Magnitude (a.u.)       :      0.67036
Magnitude (Debye)      :      1.70393

Rotational constants in cm-1:     4.365472     0.812356     0.790070
Rotational constants in MHz : 130873.552947 24353.824860 23685.716566

                             ****ORCA TERMINATED NORMALLY****
TOTAL RUN TIME: 0 days 0 hours 1 minutes 11 seconds 926 msec
