                         Program Version 4.1.2  - RELEASE  -
|  1> #Run DFT-D3 single point of the dimer
|  2> ! wB97X-D3 def2-TZVP TIGHTSCF CHELPG PMODEL PAL8
|  3>
|  4> %base "9-167_DFT_AB"
|  5>
|  6> %scf
|  7> MaxIter 1000
|  8> end
|  9>
| 10> * xyz 0 1
| 11>   C                      -7.550475            9.806501             -0.603258
| 12>   O                      -7.865887            10.973173            -1.323224
| 13>   H                      -7.785045            10.780546            -2.221348
| 14>   H                      -6.566115            9.411658             -0.904041
| 15>   H                      -7.466330            9.899597             0.516049
| 16>   H                      -8.253710            8.914090             -0.880003
| 17>   C                      -8.705510            10.196739            -5.063374
| 18>   O                      -7.708803            9.851671             -4.077808
| 19>   H                      -7.153227            9.081296             -4.423253
| 20>   H                      -9.588809            10.602126            -4.537238
| 21>   H                      -8.457030            10.856627            -5.890543
| 22>   H                      -9.100420            9.336630             -5.577473
| 23> *
| 24>
| 25> #Run DFT-D3 single point of the molecule with dimer basis set
| 26> $new_job
| 27> %base "9-167_DFT_A"
| 28> ! wB97X-D3 def2-TZVP TIGHTSCF CHELPG PMODEL
| 29>
| 30> %scf
| 31> MaxIter 1000
| 32> end
| 33>
| 34> * xyz 0 1
| 35>   C                      -7.550475            9.806501             -0.603258
| 36>   O                      -7.865887            10.973173            -1.323224
| 37>   H                      -7.785045            10.780546            -2.221348
| 38>   H                      -6.566115            9.411658             -0.904041
| 39>   H                      -7.466330            9.899597             0.516049
| 40>   H                      -8.253710            8.914090             -0.880003
| 41>   C                    : -8.705510            10.196739            -5.063374
| 42>   O                    : -7.708803            9.851671             -4.077808
| 43>   H                    : -7.153227            9.081296             -4.423253
| 44>   H                    : -9.588809            10.602126            -4.537238
| 45>   H                    : -8.457030            10.856627            -5.890543
| 46>   H                    : -9.100420            9.336630             -5.577473
| 47> *
| 48>
| 49> #Run DFT-D3 single point of the particle with dimer basis set
| 50> $new_job
| 51> %base "9-167_DFT_B"
| 52> ! wB97X-D3 def2-TZVP TIGHTSCF CHELPG PMODEL
| 53>
| 54> %scf
| 55> MaxIter 1000
| 56> end
| 57>
| 58> * xyz 0 1
| 59>   C                    : -7.550475            9.806501             -0.603258
| 60>   O                    : -7.865887            10.973173            -1.323224
| 61>   H                    : -7.785045            10.780546            -2.221348
| 62>   H                    : -6.566115            9.411658             -0.904041
| 63>   H                    : -7.466330            9.899597             0.516049
| 64>   H                    : -8.253710            8.914090             -0.880003
| 65>   C                      -8.705510            10.196739            -5.063374
| 66>   O                      -7.708803            9.851671             -4.077808
| 67>   H                      -7.153227            9.081296             -4.423253
| 68>   H                      -9.588809            10.602126            -4.537238
| 69>   H                      -8.457030            10.856627            -5.890543
| 70>   H                      -9.100420            9.336630             -5.577473
| 71> *
| 72>
| 73>                          ****END OF INPUT****
 Total Charge           Charge          ....    0
 Multiplicity           Mult            ....    1
 Number of Electrons    NEL             ....   36
Dispersion correction           -0.001780844
FINAL SINGLE POINT ENERGY      -231.466380815339
Dispersion correction           -0.000254438
FINAL SINGLE POINT ENERGY      -115.728507498618

CARTESIAN COORDINATES (ANGSTROEM)
---------------------------------
  C     -7.550475    9.806501   -0.603258
  O     -7.865887   10.973173   -1.323224
  H     -7.785045   10.780546   -2.221348
  H     -6.566115    9.411658   -0.904041
  H     -7.466330    9.899597    0.516049
  H     -8.253710    8.914090   -0.880003
  C     -8.705510   10.196739   -5.063374
  O     -7.708803    9.851671   -4.077808
  H     -7.153227    9.081296   -4.423253
  H     -9.588809   10.602126   -4.537238
  H     -8.457030   10.856627   -5.890543
  H     -9.100420    9.336630   -5.577473

 Multiplicity           Mult            ....    1
 Number of Electrons    NEL             ....   18
 Basis Dimension        Dim             ....  172

ORBITAL ENERGIES
----------------

  NO   OCC          E(Eh)            E(eV)
   0   2.0000     -19.239115      -523.5229
   1   2.0000     -10.313809      -280.6530
   2   2.0000      -1.119430       -30.4612
   3   2.0000      -0.797329       -21.6964
   4   2.0000      -0.607006       -16.5175
   5   2.0000      -0.533440       -14.5156
   6   2.0000      -0.519190       -14.1279
   7   2.0000      -0.433939       -11.8081
   8   2.0000      -0.376999       -10.2587
   9   0.0000       0.094937         2.5834
  10   0.0000       0.122904         3.3444
  11   0.0000       0.145267         3.9529
  12   0.0000       0.181520         4.9394
  13   0.0000       0.204575         5.5668

MULLIKEN ATOMIC CHARGES
-----------------------
   0 C :    0.003964
   1 O :   -0.000490
   2 H :   -0.006487
   3 H :   -0.001918
   4 H :   -0.000224
   5 H :   -0.003157
   6 C :   -0.173554
   7 O :   -0.472236
   8 H :    0.316581
   9 H :    0.123098
  10 H :    0.107442
  11 H :    0.106981
Sum of atomic charges:   -0.0000000

LOEWDIN ATOMIC CHARGES
----------------------
   0 C :   -0.005248
   1 O :   -0.003362
   2 H :   -0.028131
   3 H :   -0.000583
   4 H :   -0.000067
   5 H :   -0.001292
   6 C :   -0.373560
   7 O :   -0.082846
   8 H :    0.195425
   9 H :    0.112163
  10 H :    0.094175
  11 H :    0.093325

  Mayer bond orders larger than 0.1
B(  6-C ,  7-O ) :   1.0053 B(  6-C ,  9-H ) :   0.9791 B(  6-C , 10-H ) :   0.9626
B(  6-C , 11-H ) :   0.9770 B(  7-O ,  8-H ) :   0.8905

Dispersion correction           -0.000281325
FINAL SINGLE POINT ENERGY      -115.729776349770

DIPOLE MOMENT
-------------
                                X             Y             Z
Electronic contribution:      1.34996      -0.27091       1.34670
Nuclear contribution   :     -1.43191      -0.10209      -1.98288
                        -----------------------------------------
Total Dipole Moment    :     -0.08195      -0.37300      -0.63618
                        -----------------------------------------
Magnitude (a.u.)       :      0.74200
Magnitude (Debye)      :      1.88602

Rotational constants in cm-1:     4.405562     0.789964     0.759759
Rotational constants in MHz : 132075.438145 23682.533359 22776.990330

                             ****ORCA TERMINATED NORMALLY****
TOTAL RUN TIME: 0 days 0 hours 0 minutes 46 seconds 152 msec
