                         Program Version 4.1.2  - RELEASE  -
|  1> #Run DFT-D3 single point of the dimer
|  2> ! wB97X-D3 def2-TZVP TIGHTSCF CHELPG PMODEL PAL8
|  3>
|  4> %base "22-194_DFT_AB"
|  5>
|  6> %scf
|  7> MaxIter 1000
|  8> end
|  9>
| 10> * xyz 0 1
| 11>   C                      -7.406490            5.114962             2.194658
| 12>   O                      -8.127863            5.716703             3.172104
| 13>   H                      -8.698114            5.083331             3.538264
| 14>   H                      -7.612737            5.667259             1.305622
| 15>   H                      -6.353386            5.182250             2.467790
| 16>   H                      -7.619469            4.045659             1.948745
| 17>   C                      -10.877618           3.785724             2.813707
| 18>   O                      -9.835554            3.230264             3.560804
| 19>   H                      -10.201807           2.573905             4.177344
| 20>   H                      -10.561509           3.838784             1.746652
| 21>   H                      -11.843129           3.206787             2.779399
| 22>   H                      -11.174965           4.797430             3.146439
| 23> *
| 24>
| 25> #Run DFT-D3 single point of the molecule with dimer basis set
| 26> $new_job
| 27> %base "22-194_DFT_A"
| 28> ! wB97X-D3 def2-TZVP TIGHTSCF CHELPG PMODEL
| 29>
| 30> %scf
| 31> MaxIter 1000
| 32> end
| 33>
| 34> * xyz 0 1
| 35>   C                      -7.406490            5.114962             2.194658
| 36>   O                      -8.127863            5.716703             3.172104
| 37>   H                      -8.698114            5.083331             3.538264
| 38>   H                      -7.612737            5.667259             1.305622
| 39>   H                      -6.353386            5.182250             2.467790
| 40>   H                      -7.619469            4.045659             1.948745
| 41>   C                    : -10.877618           3.785724             2.813707
| 42>   O                    : -9.835554            3.230264             3.560804
| 43>   H                    : -10.201807           2.573905             4.177344
| 44>   H                    : -10.561509           3.838784             1.746652
| 45>   H                    : -11.843129           3.206787             2.779399
| 46>   H                    : -11.174965           4.797430             3.146439
| 47> *
| 48>
| 49> #Run DFT-D3 single point of the particle with dimer basis set
| 50> $new_job
| 51> %base "22-194_DFT_B"
| 52> ! wB97X-D3 def2-TZVP TIGHTSCF CHELPG PMODEL
| 53>
| 54> %scf
| 55> MaxIter 1000
| 56> end
| 57>
| 58> * xyz 0 1
| 59>   C                    : -7.406490            5.114962             2.194658
| 60>   O                    : -8.127863            5.716703             3.172104
| 61>   H                    : -8.698114            5.083331             3.538264
| 62>   H                    : -7.612737            5.667259             1.305622
| 63>   H                    : -6.353386            5.182250             2.467790
| 64>   H                    : -7.619469            4.045659             1.948745
| 65>   C                      -10.877618           3.785724             2.813707
| 66>   O                      -9.835554            3.230264             3.560804
| 67>   H                      -10.201807           2.573905             4.177344
| 68>   H                      -10.561509           3.838784             1.746652
| 69>   H                      -11.843129           3.206787             2.779399
| 70>   H                      -11.174965           4.797430             3.146439
| 71> *
| 72>
| 73>                          ****END OF INPUT****
 Total Charge           Charge          ....    0
 Multiplicity           Mult            ....    1
 Number of Electrons    NEL             ....   36
Dispersion correction           -0.002213543
FINAL SINGLE POINT ENERGY      -231.471053276633
Dispersion correction           -0.000221812
FINAL SINGLE POINT ENERGY      -115.729678734775

CARTESIAN COORDINATES (ANGSTROEM)
---------------------------------
  C     -7.406490    5.114962    2.194658
  O     -8.127863    5.716703    3.172104
  H     -8.698114    5.083331    3.538264
  H     -7.612737    5.667259    1.305622
  H     -6.353386    5.182250    2.467790
  H     -7.619469    4.045659    1.948745
  C    -10.877618    3.785724    2.813707
  O     -9.835554    3.230264    3.560804
  H    -10.201807    2.573905    4.177344
  H    -10.561509    3.838784    1.746652
  H    -11.843129    3.206787    2.779399
  H    -11.174965    4.797430    3.146439

 Multiplicity           Mult            ....    1
 Number of Electrons    NEL             ....   18
 Basis Dimension        Dim             ....  172

ORBITAL ENERGIES
----------------

  NO   OCC          E(Eh)            E(eV)
   0   2.0000     -19.235288      -523.4188
   1   2.0000     -10.318416      -280.7784
   2   2.0000      -1.140790       -31.0425
   3   2.0000      -0.791007       -21.5244
   4   2.0000      -0.616075       -16.7643
   5   2.0000      -0.539698       -14.6859
   6   2.0000      -0.523605       -14.2480
   7   2.0000      -0.430206       -11.7065
   8   2.0000      -0.374384       -10.1875
   9   0.0000       0.097500         2.6531
  10   0.0000       0.124647         3.3918
  11   0.0000       0.150192         4.0869
  12   0.0000       0.181079         4.9274
  13   0.0000       0.188335         5.1249

MULLIKEN ATOMIC CHARGES
-----------------------
   0 C :    0.006385
   1 O :   -0.000796
   2 H :   -0.004217
   3 H :   -0.000685
   4 H :   -0.000060
   5 H :   -0.005428
   6 C :   -0.179586
   7 O :   -0.463327
   8 H :    0.317612
   9 H :    0.116848
  10 H :    0.110277
  11 H :    0.102978
Sum of atomic charges:    0.0000000

LOEWDIN ATOMIC CHARGES
----------------------
   0 C :   -0.005459
   1 O :   -0.002235
   2 H :   -0.020755
   3 H :   -0.000125
   4 H :   -0.000022
   5 H :   -0.003297
   6 C :   -0.408835
   7 O :   -0.046273
   8 H :    0.178512
   9 H :    0.108954
  10 H :    0.101889
  11 H :    0.097645

  Mayer bond orders larger than 0.1
B(  6-C ,  7-O ) :   1.0029 B(  6-C ,  9-H ) :   0.9770 B(  6-C , 10-H ) :   0.9714
B(  6-C , 11-H ) :   0.9738 B(  7-O ,  8-H ) :   0.8945

Dispersion correction           -0.000267419
FINAL SINGLE POINT ENERGY      -115.734233415681

DIPOLE MOMENT
-------------
                                X             Y             Z
Electronic contribution:      1.52293      -0.68103       1.02065
Nuclear contribution   :     -2.16695       0.44163      -0.90666
                        -----------------------------------------
Total Dipole Moment    :     -0.64403      -0.23940       0.11399
                        -----------------------------------------
Magnitude (a.u.)       :      0.69647
Magnitude (Debye)      :      1.77029

Rotational constants in cm-1:     4.260760     0.830649     0.803231
Rotational constants in MHz : 127734.382700 24902.234763 24080.268088

                             ****ORCA TERMINATED NORMALLY****
TOTAL RUN TIME: 0 days 0 hours 1 minutes 9 seconds 260 msec
