                         Program Version 4.1.2  - RELEASE  -
|  1> #Run DFT-D3 single point of the dimer
|  2> ! wB97X-D3 def2-TZVP TIGHTSCF CHELPG PMODEL PAL8
|  3>
|  4> %base "4-160_DFT_AB"
|  5>
|  6> %scf
|  7> MaxIter 1000
|  8> end
|  9>
| 10> * xyz 0 1
| 11>   C                      7.497052             2.270548             -2.229564
| 12>   O                      7.274644             2.219434             -0.824995
| 13>   H                      7.353373             3.087960             -0.498924
| 14>   H                      6.908298             1.511459             -2.771878
| 15>   H                      7.202090             3.245681             -2.504666
| 16>   H                      8.554469             2.117082             -2.447961
| 17>   C                      3.447843             2.517981             -1.564311
| 18>   O                      3.630382             3.821687             -1.008966
| 19>   H                      4.407714             3.800133             -0.523055
| 20>   H                      4.241171             2.142604             -2.181179
| 21>   H                      3.166179             1.787980             -0.901512
| 22>   H                      2.565668             2.317214             -2.178707
| 23> *
| 24>
| 25> #Run DFT-D3 single point of the molecule with dimer basis set
| 26> $new_job
| 27> %base "4-160_DFT_A"
| 28> ! wB97X-D3 def2-TZVP TIGHTSCF CHELPG PMODEL
| 29>
| 30> %scf
| 31> MaxIter 1000
| 32> end
| 33>
| 34> * xyz 0 1
| 35>   C                      7.497052             2.270548             -2.229564
| 36>   O                      7.274644             2.219434             -0.824995
| 37>   H                      7.353373             3.087960             -0.498924
| 38>   H                      6.908298             1.511459             -2.771878
| 39>   H                      7.202090             3.245681             -2.504666
| 40>   H                      8.554469             2.117082             -2.447961
| 41>   C                    : 3.447843             2.517981             -1.564311
| 42>   O                    : 3.630382             3.821687             -1.008966
| 43>   H                    : 4.407714             3.800133             -0.523055
| 44>   H                    : 4.241171             2.142604             -2.181179
| 45>   H                    : 3.166179             1.787980             -0.901512
| 46>   H                    : 2.565668             2.317214             -2.178707
| 47> *
| 48>
| 49> #Run DFT-D3 single point of the particle with dimer basis set
| 50> $new_job
| 51> %base "4-160_DFT_B"
| 52> ! wB97X-D3 def2-TZVP TIGHTSCF CHELPG PMODEL
| 53>
| 54> %scf
| 55> MaxIter 1000
| 56> end
| 57>
| 58> * xyz 0 1
| 59>   C                    : 7.497052             2.270548             -2.229564
| 60>   O                    : 7.274644             2.219434             -0.824995
| 61>   H                    : 7.353373             3.087960             -0.498924
| 62>   H                    : 6.908298             1.511459             -2.771878
| 63>   H                    : 7.202090             3.245681             -2.504666
| 64>   H                    : 8.554469             2.117082             -2.447961
| 65>   C                      3.447843             2.517981             -1.564311
| 66>   O                      3.630382             3.821687             -1.008966
| 67>   H                      4.407714             3.800133             -0.523055
| 68>   H                      4.241171             2.142604             -2.181179
| 69>   H                      3.166179             1.787980             -0.901512
| 70>   H                      2.565668             2.317214             -2.178707
| 71> *
| 72>
| 73>                          ****END OF INPUT****
 Total Charge           Charge          ....    0
 Multiplicity           Mult            ....    1
 Number of Electrons    NEL             ....   36
Dispersion correction           -0.001785645
FINAL SINGLE POINT ENERGY      -231.453742692644
Dispersion correction           -0.000223534
FINAL SINGLE POINT ENERGY      -115.732670302491

CARTESIAN COORDINATES (ANGSTROEM)
---------------------------------
  C      7.497052    2.270548   -2.229564
  O      7.274644    2.219434   -0.824995
  H      7.353373    3.087960   -0.498924
  H      6.908298    1.511459   -2.771878
  H      7.202090    3.245681   -2.504666
  H      8.554469    2.117082   -2.447961
  C      3.447843    2.517981   -1.564311
  O      3.630382    3.821687   -1.008966
  H      4.407714    3.800133   -0.523055
  H      4.241171    2.142604   -2.181179
  H      3.166179    1.787980   -0.901512
  H      2.565668    2.317214   -2.178707

 Multiplicity           Mult            ....    1
 Number of Electrons    NEL             ....   18
 Basis Dimension        Dim             ....  172

ORBITAL ENERGIES
----------------

  NO   OCC          E(Eh)            E(eV)
   0   2.0000     -19.232728      -523.3491
   1   2.0000     -10.304970      -280.4125
   2   2.0000      -1.143443       -31.1147
   3   2.0000      -0.815231       -22.1836
   4   2.0000      -0.619027       -16.8446
   5   2.0000      -0.552198       -15.0261
   6   2.0000      -0.523938       -14.2571
   7   2.0000      -0.428560       -11.6617
   8   2.0000      -0.382198       -10.4001
   9   0.0000       0.075416         2.0522
  10   0.0000       0.130467         3.5502
  11   0.0000       0.143070         3.8931
  12   0.0000       0.171237         4.6596
  13   0.0000       0.191358         5.2071

MULLIKEN ATOMIC CHARGES
-----------------------
   0 C :    0.001936
   1 O :   -0.000228
   2 H :   -0.000365
   3 H :   -0.001051
   4 H :   -0.000600
   5 H :    0.000093
   6 C :   -0.186815
   7 O :   -0.463801
   8 H :    0.310125
   9 H :    0.108983
  10 H :    0.114921
  11 H :    0.116803
Sum of atomic charges:    0.0000000

LOEWDIN ATOMIC CHARGES
----------------------
   0 C :   -0.002570
   1 O :   -0.000395
   2 H :   -0.000562
   3 H :   -0.001443
   4 H :   -0.000371
   5 H :   -0.000012
   6 C :   -0.378362
   7 O :   -0.054624
   8 H :    0.142038
   9 H :    0.095503
  10 H :    0.085085
  11 H :    0.115713

  Mayer bond orders larger than 0.1
B(  6-C ,  7-O ) :   1.0022 B(  6-C ,  9-H ) :   0.9779 B(  6-C , 10-H ) :   0.9781
B(  6-C , 11-H ) :   0.9737 B(  7-O ,  8-H ) :   0.9100

Dispersion correction           -0.000263726
FINAL SINGLE POINT ENERGY      -115.719184304942

DIPOLE MOMENT
-------------
                                X             Y             Z
Electronic contribution:      0.25200       1.87711       0.74690
Nuclear contribution   :      0.14239      -2.45287      -0.64895
                        -----------------------------------------
Total Dipole Moment    :      0.39438      -0.57576       0.09795
                        -----------------------------------------
Magnitude (a.u.)       :      0.70472
Magnitude (Debye)      :      1.79126

Rotational constants in cm-1:     4.970098     0.799445     0.776265
Rotational constants in MHz : 148999.777142 23966.745486 23271.847078

                             ****ORCA TERMINATED NORMALLY****
TOTAL RUN TIME: 0 days 0 hours 1 minutes 27 seconds 416 msec
