                         Program Version 4.1.2  - RELEASE  -
|  1> #Run DFT-D3 single point of the dimer
|  2> ! wB97X-D3 def2-TZVP TIGHTSCF CHELPG PMODEL PAL8
|  3>
|  4> %base "11-40_DFT_AB"
|  5>
|  6> %scf
|  7> MaxIter 1000
|  8> end
|  9>
| 10> * xyz 0 1
| 11>   C                      -4.262804            -3.298811            4.931557
| 12>   O                      -3.864564            -2.942529            6.210114
| 13>   H                      -2.899731            -2.834253            6.123950
| 14>   H                      -4.286093            -4.428996            4.908977
| 15>   H                      -5.227939            -2.841040            4.620827
| 16>   H                      -3.491225            -3.035285            4.130311
| 17>   C                      -6.377136            -5.409427            9.602485
| 18>   O                      -6.942819            -6.244277            8.593473
| 19>   H                      -6.239528            -6.315074            7.921902
| 20>   H                      -7.112668            -5.220025            10.409225
| 21>   H                      -5.434968            -5.762906            10.066727
| 22>   H                      -6.091281            -4.484647            9.137633
| 23> *
| 24>
| 25> #Run DFT-D3 single point of the molecule with dimer basis set
| 26> $new_job
| 27> %base "11-40_DFT_A"
| 28> ! wB97X-D3 def2-TZVP TIGHTSCF CHELPG PMODEL
| 29>
| 30> %scf
| 31> MaxIter 1000
| 32> end
| 33>
| 34> * xyz 0 1
| 35>   C                      -4.262804            -3.298811            4.931557
| 36>   O                      -3.864564            -2.942529            6.210114
| 37>   H                      -2.899731            -2.834253            6.123950
| 38>   H                      -4.286093            -4.428996            4.908977
| 39>   H                      -5.227939            -2.841040            4.620827
| 40>   H                      -3.491225            -3.035285            4.130311
| 41>   C                    : -6.377136            -5.409427            9.602485
| 42>   O                    : -6.942819            -6.244277            8.593473
| 43>   H                    : -6.239528            -6.315074            7.921902
| 44>   H                    : -7.112668            -5.220025            10.409225
| 45>   H                    : -5.434968            -5.762906            10.066727
| 46>   H                    : -6.091281            -4.484647            9.137633
| 47> *
| 48>
| 49> #Run DFT-D3 single point of the particle with dimer basis set
| 50> $new_job
| 51> %base "11-40_DFT_B"
| 52> ! wB97X-D3 def2-TZVP TIGHTSCF CHELPG PMODEL
| 53>
| 54> %scf
| 55> MaxIter 1000
| 56> end
| 57>
| 58> * xyz 0 1
| 59>   C                    : -4.262804            -3.298811            4.931557
| 60>   O                    : -3.864564            -2.942529            6.210114
| 61>   H                    : -2.899731            -2.834253            6.123950
| 62>   H                    : -4.286093            -4.428996            4.908977
| 63>   H                    : -5.227939            -2.841040            4.620827
| 64>   H                    : -3.491225            -3.035285            4.130311
| 65>   C                      -6.377136            -5.409427            9.602485
| 66>   O                      -6.942819            -6.244277            8.593473
| 67>   H                      -6.239528            -6.315074            7.921902
| 68>   H                      -7.112668            -5.220025            10.409225
| 69>   H                      -5.434968            -5.762906            10.066727
| 70>   H                      -6.091281            -4.484647            9.137633
| 71> *
| 72>
| 73>                          ****END OF INPUT****
 Total Charge           Charge          ....    0
 Multiplicity           Mult            ....    1
 Number of Electrons    NEL             ....   36
Dispersion correction           -0.000765572
FINAL SINGLE POINT ENERGY      -231.464713005308
Dispersion correction           -0.000233823
FINAL SINGLE POINT ENERGY      -115.729889684865

CARTESIAN COORDINATES (ANGSTROEM)
---------------------------------
  C     -4.262804   -3.298811    4.931557
  O     -3.864564   -2.942529    6.210114
  H     -2.899731   -2.834253    6.123950
  H     -4.286093   -4.428996    4.908977
  H     -5.227939   -2.841040    4.620827
  H     -3.491225   -3.035285    4.130311
  C     -6.377136   -5.409427    9.602485
  O     -6.942819   -6.244277    8.593473
  H     -6.239528   -6.315074    7.921902
  H     -7.112668   -5.220025   10.409225
  H     -5.434968   -5.762906   10.066727
  H     -6.091281   -4.484647    9.137633

 Multiplicity           Mult            ....    1
 Number of Electrons    NEL             ....   18
 Basis Dimension        Dim             ....  172

ORBITAL ENERGIES
----------------

  NO   OCC          E(Eh)            E(eV)
   0   2.0000     -19.233460      -523.3690
   1   2.0000     -10.315063      -280.6871
   2   2.0000      -1.132712       -30.8227
   3   2.0000      -0.792846       -21.5744
   4   2.0000      -0.609890       -16.5959
   5   2.0000      -0.537155       -14.6167
   6   2.0000      -0.522809       -14.2264
   7   2.0000      -0.442125       -12.0308
   8   2.0000      -0.372244       -10.1293
   9   0.0000       0.075251         2.0477
  10   0.0000       0.114540         3.1168
  11   0.0000       0.148713         4.0467
  12   0.0000       0.165996         4.5170
  13   0.0000       0.183198         4.9851

MULLIKEN ATOMIC CHARGES
-----------------------
   0 C :    0.000002
   1 O :   -0.000032
   2 H :   -0.000007
   3 H :   -0.000046
   4 H :   -0.000002
   5 H :   -0.000001
   6 C :   -0.167718
   7 O :   -0.469265
   8 H :    0.314119
   9 H :    0.121888
  10 H :    0.096924
  11 H :    0.104137
Sum of atomic charges:   -0.0000000

LOEWDIN ATOMIC CHARGES
----------------------
   0 C :   -0.000053
   1 O :   -0.000059
   2 H :   -0.000005
   3 H :   -0.000039
   4 H :   -0.000002
   5 H :   -0.000002
   6 C :   -0.383404
   7 O :   -0.091753
   8 H :    0.178490
   9 H :    0.111969
  10 H :    0.094745
  11 H :    0.090114

  Mayer bond orders larger than 0.1
B(  6-C ,  7-O ) :   0.9977 B(  6-C ,  9-H ) :   0.9730 B(  6-C , 10-H ) :   0.9681
B(  6-C , 11-H ) :   0.9838 B(  7-O ,  8-H ) :   0.8995

Dispersion correction           -0.000237475
FINAL SINGLE POINT ENERGY      -115.733805364160

DIPOLE MOMENT
-------------
                                X             Y             Z
Electronic contribution:     -0.91432      -1.13866      -1.18981
Nuclear contribution   :      1.57224       1.43934       1.16644
                        -----------------------------------------
Total Dipole Moment    :      0.65792       0.30067      -0.02337
                        -----------------------------------------
Magnitude (a.u.)       :      0.72375
Magnitude (Debye)      :      1.83962

Rotational constants in cm-1:     4.258157     0.824454     0.784745
Rotational constants in MHz : 127656.342938 24716.506612 23526.071070

                             ****ORCA TERMINATED NORMALLY****
TOTAL RUN TIME: 0 days 0 hours 1 minutes 7 seconds 483 msec
