                         Program Version 4.1.2  - RELEASE  -
|  1> #Run DFT-D3 single point of the dimer
|  2> ! wB97X-D3 def2-TZVP TIGHTSCF CHELPG PMODEL PAL8
|  3>
|  4> %base "12-92_DFT_AB"
|  5>
|  6> %scf
|  7> MaxIter 1000
|  8> end
|  9>
| 10> * xyz 0 1
| 11>   C                      -8.330021            -3.936850            9.780098
| 12>   O                      -7.082873            -4.366825            9.301597
| 13>   H                      -6.330123            -4.091510            9.880843
| 14>   H                      -9.113728            -4.603709            9.450616
| 15>   H                      -8.289771            -4.009567            10.862791
| 16>   H                      -8.578552            -2.883557            9.468591
| 17>   C                      -8.782069            -0.807775            7.570743
| 18>   O                      -8.483144            -2.095420            6.950535
| 19>   H                      -9.023656            -2.821554            7.231701
| 20>   H                      -8.608050            -0.917514            8.626769
| 21>   H                      -8.249451            0.079255             7.182491
| 22>   H                      -9.872292            -0.605238            7.324622
| 23> *
| 24>
| 25> #Run DFT-D3 single point of the molecule with dimer basis set
| 26> $new_job
| 27> %base "12-92_DFT_A"
| 28> ! wB97X-D3 def2-TZVP TIGHTSCF CHELPG PMODEL
| 29>
| 30> %scf
| 31> MaxIter 1000
| 32> end
| 33>
| 34> * xyz 0 1
| 35>   C                      -8.330021            -3.936850            9.780098
| 36>   O                      -7.082873            -4.366825            9.301597
| 37>   H                      -6.330123            -4.091510            9.880843
| 38>   H                      -9.113728            -4.603709            9.450616
| 39>   H                      -8.289771            -4.009567            10.862791
| 40>   H                      -8.578552            -2.883557            9.468591
| 41>   C                    : -8.782069            -0.807775            7.570743
| 42>   O                    : -8.483144            -2.095420            6.950535
| 43>   H                    : -9.023656            -2.821554            7.231701
| 44>   H                    : -8.608050            -0.917514            8.626769
| 45>   H                    : -8.249451            0.079255             7.182491
| 46>   H                    : -9.872292            -0.605238            7.324622
| 47> *
| 48>
| 49> #Run DFT-D3 single point of the particle with dimer basis set
| 50> $new_job
| 51> %base "12-92_DFT_B"
| 52> ! wB97X-D3 def2-TZVP TIGHTSCF CHELPG PMODEL
| 53>
| 54> %scf
| 55> MaxIter 1000
| 56> end
| 57>
| 58> * xyz 0 1
| 59>   C                    : -8.330021            -3.936850            9.780098
| 60>   O                    : -7.082873            -4.366825            9.301597
| 61>   H                    : -6.330123            -4.091510            9.880843
| 62>   H                    : -9.113728            -4.603709            9.450616
| 63>   H                    : -8.289771            -4.009567            10.862791
| 64>   H                    : -8.578552            -2.883557            9.468591
| 65>   C                      -8.782069            -0.807775            7.570743
| 66>   O                      -8.483144            -2.095420            6.950535
| 67>   H                      -9.023656            -2.821554            7.231701
| 68>   H                      -8.608050            -0.917514            8.626769
| 69>   H                      -8.249451            0.079255             7.182491
| 70>   H                      -9.872292            -0.605238            7.324622
| 71> *
| 72>
| 73>                          ****END OF INPUT****
 Total Charge           Charge          ....    0
 Multiplicity           Mult            ....    1
 Number of Electrons    NEL             ....   36
Dispersion correction           -0.001942970
FINAL SINGLE POINT ENERGY      -231.460205653398
Dispersion correction           -0.000246037
FINAL SINGLE POINT ENERGY      -115.733471680853

CARTESIAN COORDINATES (ANGSTROEM)
---------------------------------
  C     -8.330021   -3.936850    9.780098
  O     -7.082873   -4.366825    9.301597
  H     -6.330123   -4.091510    9.880843
  H     -9.113728   -4.603709    9.450616
  H     -8.289771   -4.009567   10.862791
  H     -8.578552   -2.883557    9.468591
  C     -8.782069   -0.807775    7.570743
  O     -8.483144   -2.095420    6.950535
  H     -9.023656   -2.821554    7.231701
  H     -8.608050   -0.917514    8.626769
  H     -8.249451    0.079255    7.182491
  H     -9.872292   -0.605238    7.324622

 Multiplicity           Mult            ....    1
 Number of Electrons    NEL             ....   18
 Basis Dimension        Dim             ....  172

ORBITAL ENERGIES
----------------

  NO   OCC          E(Eh)            E(eV)
   0   2.0000     -19.223626      -523.1015
   1   2.0000     -10.323701      -280.9222
   2   2.0000      -1.119632       -30.4667
   3   2.0000      -0.798733       -21.7346
   4   2.0000      -0.599757       -16.3202
   5   2.0000      -0.544997       -14.8301
   6   2.0000      -0.527722       -14.3600
   7   2.0000      -0.418468       -11.3871
   8   2.0000      -0.372345       -10.1320
   9   0.0000       0.080335         2.1860
  10   0.0000       0.133527         3.6335
  11   0.0000       0.144156         3.9227
  12   0.0000       0.166117         4.5203
  13   0.0000       0.188043         5.1169

MULLIKEN ATOMIC CHARGES
-----------------------
   0 C :   -0.010973
   1 O :    0.001435
   2 H :    0.000101
   3 H :    0.000759
   4 H :   -0.000670
   5 H :    0.000281
   6 C :   -0.167488
   7 O :   -0.494695
   8 H :    0.319726
   9 H :    0.112801
  10 H :    0.131835
  11 H :    0.106887
Sum of atomic charges:   -0.0000000

LOEWDIN ATOMIC CHARGES
----------------------
   0 C :   -0.011129
   1 O :   -0.001112
   2 H :   -0.000140
   3 H :   -0.000603
   4 H :   -0.000171
   5 H :   -0.009203
   6 C :   -0.344288
   7 O :   -0.102162
   8 H :    0.156317
   9 H :    0.094677
  10 H :    0.111910
  11 H :    0.105904

  Mayer bond orders larger than 0.1
B(  6-C ,  7-O ) :   0.9815 B(  6-C ,  9-H ) :   0.9755 B(  6-C , 10-H ) :   0.9689
B(  6-C , 11-H ) :   0.9865 B(  7-O ,  8-H ) :   0.8943

Dispersion correction           -0.000264647
FINAL SINGLE POINT ENERGY      -115.727633634050

DIPOLE MOMENT
-------------
                                X             Y             Z
Electronic contribution:      0.59256      -1.43681      -0.77993
Nuclear contribution   :     -1.07033       1.55574       1.22525
                        -----------------------------------------
Total Dipole Moment    :     -0.47777       0.11893       0.44532
                        -----------------------------------------
Magnitude (a.u.)       :      0.66387
Magnitude (Debye)      :      1.68741

Rotational constants in cm-1:     4.333868     0.776175     0.760164
Rotational constants in MHz : 129926.089080 23269.155318 22789.157120

                             ****ORCA TERMINATED NORMALLY****
TOTAL RUN TIME: 0 days 0 hours 1 minutes 7 seconds 258 msec
