                         Program Version 4.1.2  - RELEASE  -
|  1> #Run DFT-D3 single point of the dimer
|  2> ! wB97X-D3 def2-TZVP TIGHTSCF CHELPG PMODEL PAL8
|  3>
|  4> %base "12-179_DFT_AB"
|  5>
|  6> %scf
|  7> MaxIter 1000
|  8> end
|  9>
| 10> * xyz 0 1
| 11>   C                      7.950656             -4.743017            4.764325
| 12>   O                      9.242797             -5.280096            4.795065
| 13>   H                      9.468355             -5.769611            4.003566
| 14>   H                      7.277791             -5.513226            5.145170
| 15>   H                      7.881833             -3.903074            5.393011
| 16>   H                      7.745673             -4.536831            3.739062
| 17>   C                      8.676150             -7.174265            7.352139
| 18>   O                      8.440414             -7.731373            6.041367
| 19>   H                      8.937567             -7.170279            5.386156
| 20>   H                      8.050830             -7.551880            8.113145
| 21>   H                      9.728147             -7.328499            7.670504
| 22>   H                      8.544092             -6.071504            7.426219
| 23> *
| 24>
| 25> #Run DFT-D3 single point of the molecule with dimer basis set
| 26> $new_job
| 27> %base "12-179_DFT_A"
| 28> ! wB97X-D3 def2-TZVP TIGHTSCF CHELPG PMODEL
| 29>
| 30> %scf
| 31> MaxIter 1000
| 32> end
| 33>
| 34> * xyz 0 1
| 35>   C                      7.950656             -4.743017            4.764325
| 36>   O                      9.242797             -5.280096            4.795065
| 37>   H                      9.468355             -5.769611            4.003566
| 38>   H                      7.277791             -5.513226            5.145170
| 39>   H                      7.881833             -3.903074            5.393011
| 40>   H                      7.745673             -4.536831            3.739062
| 41>   C                    : 8.676150             -7.174265            7.352139
| 42>   O                    : 8.440414             -7.731373            6.041367
| 43>   H                    : 8.937567             -7.170279            5.386156
| 44>   H                    : 8.050830             -7.551880            8.113145
| 45>   H                    : 9.728147             -7.328499            7.670504
| 46>   H                    : 8.544092             -6.071504            7.426219
| 47> *
| 48>
| 49> #Run DFT-D3 single point of the particle with dimer basis set
| 50> $new_job
| 51> %base "12-179_DFT_B"
| 52> ! wB97X-D3 def2-TZVP TIGHTSCF CHELPG PMODEL
| 53>
| 54> %scf
| 55> MaxIter 1000
| 56> end
| 57>
| 58> * xyz 0 1
| 59>   C                    : 7.950656             -4.743017            4.764325
| 60>   O                    : 9.242797             -5.280096            4.795065
| 61>   H                    : 9.468355             -5.769611            4.003566
| 62>   H                    : 7.277791             -5.513226            5.145170
| 63>   H                    : 7.881833             -3.903074            5.393011
| 64>   H                    : 7.745673             -4.536831            3.739062
| 65>   C                      8.676150             -7.174265            7.352139
| 66>   O                      8.440414             -7.731373            6.041367
| 67>   H                      8.937567             -7.170279            5.386156
| 68>   H                      8.050830             -7.551880            8.113145
| 69>   H                      9.728147             -7.328499            7.670504
| 70>   H                      8.544092             -6.071504            7.426219
| 71> *
| 72>
| 73>                          ****END OF INPUT****
 Total Charge           Charge          ....    0
 Multiplicity           Mult            ....    1
 Number of Electrons    NEL             ....   36
Dispersion correction           -0.002343108
FINAL SINGLE POINT ENERGY      -231.469789818231
Dispersion correction           -0.000215447
FINAL SINGLE POINT ENERGY      -115.732403722592

CARTESIAN COORDINATES (ANGSTROEM)
---------------------------------
  C      7.950656   -4.743017    4.764325
  O      9.242797   -5.280096    4.795065
  H      9.468355   -5.769611    4.003566
  H      7.277791   -5.513226    5.145170
  H      7.881833   -3.903074    5.393011
  H      7.745673   -4.536831    3.739062
  C      8.676150   -7.174265    7.352139
  O      8.440414   -7.731373    6.041367
  H      8.937567   -7.170279    5.386156
  H      8.050830   -7.551880    8.113145
  H      9.728147   -7.328499    7.670504
  H      8.544092   -6.071504    7.426219

 Multiplicity           Mult            ....    1
 Number of Electrons    NEL             ....   18
 Basis Dimension        Dim             ....  172

ORBITAL ENERGIES
----------------

  NO   OCC          E(Eh)            E(eV)
   0   2.0000     -19.238726      -523.5124
   1   2.0000     -10.315926      -280.7106
   2   2.0000      -1.123298       -30.5665
   3   2.0000      -0.797744       -21.7077
   4   2.0000      -0.603809       -16.4305
   5   2.0000      -0.536492       -14.5987
   6   2.0000      -0.524734       -14.2787
   7   2.0000      -0.438457       -11.9310
   8   2.0000      -0.374709       -10.1963
   9   0.0000       0.073124         1.9898
  10   0.0000       0.134163         3.6508
  11   0.0000       0.144385         3.9289
  12   0.0000       0.177136         4.8201
  13   0.0000       0.187472         5.1014

MULLIKEN ATOMIC CHARGES
-----------------------
   0 C :   -0.001124
   1 O :   -0.005753
   2 H :   -0.000902
   3 H :   -0.006247
   4 H :   -0.000383
   5 H :    0.000343
   6 C :   -0.184071
   7 O :   -0.471584
   8 H :    0.325052
   9 H :    0.130633
  10 H :    0.108979
  11 H :    0.105057
Sum of atomic charges:   -0.0000000

LOEWDIN ATOMIC CHARGES
----------------------
   0 C :   -0.013301
   1 O :   -0.017344
   2 H :   -0.004659
   3 H :   -0.008177
   4 H :   -0.000471
   5 H :   -0.000110
   6 C :   -0.366970
   7 O :   -0.089190
   8 H :    0.200339
   9 H :    0.098995
  10 H :    0.099519
  11 H :    0.101371

  Mayer bond orders larger than 0.1
B(  6-C ,  7-O ) :   0.9947 B(  6-C ,  9-H ) :   0.9730 B(  6-C , 10-H ) :   0.9796
B(  6-C , 11-H ) :   0.9727 B(  7-O ,  8-H ) :   0.8926

Dispersion correction           -0.000269000
FINAL SINGLE POINT ENERGY      -115.732132773799

DIPOLE MOMENT
-------------
                                X             Y             Z
Electronic contribution:     -0.50700      -0.95032      -1.63157
Nuclear contribution   :      0.89573       1.51099       1.78039
                        -----------------------------------------
Total Dipole Moment    :      0.38873       0.56067       0.14882
                        -----------------------------------------
Magnitude (a.u.)       :      0.69829
Magnitude (Debye)      :      1.77491

Rotational constants in cm-1:     4.364046     0.791646     0.763899
Rotational constants in MHz : 130830.793445 23732.960934 22901.121736

                             ****ORCA TERMINATED NORMALLY****
TOTAL RUN TIME: 0 days 0 hours 1 minutes 16 seconds 339 msec
