                         Program Version 4.1.2  - RELEASE  -
|  1> #Run DFT-D3 single point of the dimer
|  2> ! wB97X-D3 def2-TZVP TIGHTSCF CHELPG PMODEL PAL8
|  3>
|  4> %base "16-111_DFT_AB"
|  5>
|  6> %scf
|  7> MaxIter 1000
|  8> end
|  9>
| 10> * xyz 0 1
| 11>   C                      -6.170275            7.304904             2.945659
| 12>   O                      -6.004982            5.919241             2.961373
| 13>   H                      -5.177506            5.678358             2.626186
| 14>   H                      -5.361011            7.815695             3.442207
| 15>   H                      -6.204885            7.631160             1.917815
| 16>   H                      -7.083981            7.553979             3.478656
| 17>   C                      -6.940131            6.566358             -0.307315
| 18>   O                      -6.804153            5.719720             -1.460796
| 19>   H                      -7.213268            4.883983             -1.264619
| 20>   H                      -7.939552            6.989924             -0.368983
| 21>   H                      -6.889739            5.937103             0.630884
| 22>   H                      -6.133548            7.363447             -0.310562
| 23> *
| 24>
| 25> #Run DFT-D3 single point of the molecule with dimer basis set
| 26> $new_job
| 27> %base "16-111_DFT_A"
| 28> ! wB97X-D3 def2-TZVP TIGHTSCF CHELPG PMODEL
| 29>
| 30> %scf
| 31> MaxIter 1000
| 32> end
| 33>
| 34> * xyz 0 1
| 35>   C                      -6.170275            7.304904             2.945659
| 36>   O                      -6.004982            5.919241             2.961373
| 37>   H                      -5.177506            5.678358             2.626186
| 38>   H                      -5.361011            7.815695             3.442207
| 39>   H                      -6.204885            7.631160             1.917815
| 40>   H                      -7.083981            7.553979             3.478656
| 41>   C                    : -6.940131            6.566358             -0.307315
| 42>   O                    : -6.804153            5.719720             -1.460796
| 43>   H                    : -7.213268            4.883983             -1.264619
| 44>   H                    : -7.939552            6.989924             -0.368983
| 45>   H                    : -6.889739            5.937103             0.630884
| 46>   H                    : -6.133548            7.363447             -0.310562
| 47> *
| 48>
| 49> #Run DFT-D3 single point of the particle with dimer basis set
| 50> $new_job
| 51> %base "16-111_DFT_B"
| 52> ! wB97X-D3 def2-TZVP TIGHTSCF CHELPG PMODEL
| 53>
| 54> %scf
| 55> MaxIter 1000
| 56> end
| 57>
| 58> * xyz 0 1
| 59>   C                    : -6.170275            7.304904             2.945659
| 60>   O                    : -6.004982            5.919241             2.961373
| 61>   H                    : -5.177506            5.678358             2.626186
| 62>   H                    : -5.361011            7.815695             3.442207
| 63>   H                    : -6.204885            7.631160             1.917815
| 64>   H                    : -7.083981            7.553979             3.478656
| 65>   C                      -6.940131            6.566358             -0.307315
| 66>   O                      -6.804153            5.719720             -1.460796
| 67>   H                      -7.213268            4.883983             -1.264619
| 68>   H                      -7.939552            6.989924             -0.368983
| 69>   H                      -6.889739            5.937103             0.630884
| 70>   H                      -6.133548            7.363447             -0.310562
| 71> *
| 72>
| 73>                          ****END OF INPUT****
 Total Charge           Charge          ....    0
 Multiplicity           Mult            ....    1
 Number of Electrons    NEL             ....   36
Dispersion correction           -0.001844608
FINAL SINGLE POINT ENERGY      -231.469433825582
Dispersion correction           -0.000219311
FINAL SINGLE POINT ENERGY      -115.735501261295

CARTESIAN COORDINATES (ANGSTROEM)
---------------------------------
  C     -6.170275    7.304904    2.945659
  O     -6.004982    5.919241    2.961373
  H     -5.177506    5.678358    2.626186
  H     -5.361011    7.815695    3.442207
  H     -6.204885    7.631160    1.917815
  H     -7.083981    7.553979    3.478656
  C     -6.940131    6.566358   -0.307315
  O     -6.804153    5.719720   -1.460796
  H     -7.213268    4.883983   -1.264619
  H     -7.939552    6.989924   -0.368983
  H     -6.889739    5.937103    0.630884
  H     -6.133548    7.363447   -0.310562

 Multiplicity           Mult            ....    1
 Number of Electrons    NEL             ....   18
 Basis Dimension        Dim             ....  172

ORBITAL ENERGIES
----------------

  NO   OCC          E(Eh)            E(eV)
   0   2.0000     -19.226077      -523.1682
   1   2.0000     -10.323252      -280.9100
   2   2.0000      -1.130164       -30.7533
   3   2.0000      -0.790024       -21.4977
   4   2.0000      -0.604505       -16.4494
   5   2.0000      -0.540447       -14.7063
   6   2.0000      -0.522191       -14.2095
   7   2.0000      -0.433120       -11.7858
   8   2.0000      -0.371291       -10.1034
   9   0.0000       0.084784         2.3071
  10   0.0000       0.114565         3.1175
  11   0.0000       0.159336         4.3358
  12   0.0000       0.165692         4.5087
  13   0.0000       0.177884         4.8405

MULLIKEN ATOMIC CHARGES
-----------------------
   0 C :   -0.002210
   1 O :    0.001218
   2 H :    0.000236
   3 H :   -0.000092
   4 H :   -0.003021
   5 H :   -0.000075
   6 C :   -0.158210
   7 O :   -0.479506
   8 H :    0.313027
   9 H :    0.109516
  10 H :    0.096475
  11 H :    0.122643
Sum of atomic charges:   -0.0000000

LOEWDIN ATOMIC CHARGES
----------------------
   0 C :   -0.012117
   1 O :   -0.005314
   2 H :   -0.001751
   3 H :   -0.000122
   4 H :   -0.010800
   5 H :   -0.000190
   6 C :   -0.362275
   7 O :   -0.094059
   8 H :    0.159613
   9 H :    0.095630
  10 H :    0.111643
  11 H :    0.119743

  Mayer bond orders larger than 0.1
B(  6-C ,  7-O ) :   0.9943 B(  6-C ,  9-H ) :   0.9717 B(  6-C , 10-H ) :   0.9838
B(  6-C , 11-H ) :   0.9675 B(  7-O ,  8-H ) :   0.9017

Dispersion correction           -0.000240368
FINAL SINGLE POINT ENERGY      -115.732878295263

DIPOLE MOMENT
-------------
                                X             Y             Z
Electronic contribution:      0.27237      -0.88308      -1.49525
Nuclear contribution   :     -0.59442       0.68592       2.08396
                        -----------------------------------------
Total Dipole Moment    :     -0.32205      -0.19717       0.58870
                        -----------------------------------------
Magnitude (a.u.)       :      0.69940
Magnitude (Debye)      :      1.77773

Rotational constants in cm-1:     4.072317     0.816673     0.782462
Rotational constants in MHz : 122084.981813 24483.252381 23457.635461

                             ****ORCA TERMINATED NORMALLY****
TOTAL RUN TIME: 0 days 0 hours 1 minutes 6 seconds 940 msec
