                         Program Version 4.1.2  - RELEASE  -
|  1> #Run DFT-D3 single point of the dimer
|  2> ! wB97X-D3 def2-TZVP TIGHTSCF CHELPG PMODEL PAL8
|  3>
|  4> %base "2-48_DFT_AB"
|  5>
|  6> %scf
|  7> MaxIter 1000
|  8> end
|  9>
| 10> * xyz 0 1
| 11>   C                      10.671055            10.874247            -6.224414
| 12>   O                      10.291536            10.383988            -7.491126
| 13>   H                      9.343227             10.212276            -7.351278
| 14>   H                      10.128935            11.724972            -5.827825
| 15>   H                      10.741809            10.097136            -5.461721
| 16>   H                      11.702338            11.230933            -6.279712
| 17>   C                      7.545939             11.477723            -5.060242
| 18>   O                      8.628813             10.954829            -4.312294
| 19>   H                      8.377161             10.922919            -3.407879
| 20>   H                      7.777598             11.448818            -6.128097
| 21>   H                      6.590545             10.941057            -4.773202
| 22>   H                      7.410125             12.507128            -4.888703
| 23> *
| 24>
| 25> #Run DFT-D3 single point of the molecule with dimer basis set
| 26> $new_job
| 27> %base "2-48_DFT_A"
| 28> ! wB97X-D3 def2-TZVP TIGHTSCF CHELPG PMODEL
| 29>
| 30> %scf
| 31> MaxIter 1000
| 32> end
| 33>
| 34> * xyz 0 1
| 35>   C                      10.671055            10.874247            -6.224414
| 36>   O                      10.291536            10.383988            -7.491126
| 37>   H                      9.343227             10.212276            -7.351278
| 38>   H                      10.128935            11.724972            -5.827825
| 39>   H                      10.741809            10.097136            -5.461721
| 40>   H                      11.702338            11.230933            -6.279712
| 41>   C                    : 7.545939             11.477723            -5.060242
| 42>   O                    : 8.628813             10.954829            -4.312294
| 43>   H                    : 8.377161             10.922919            -3.407879
| 44>   H                    : 7.777598             11.448818            -6.128097
| 45>   H                    : 6.590545             10.941057            -4.773202
| 46>   H                    : 7.410125             12.507128            -4.888703
| 47> *
| 48>
| 49> #Run DFT-D3 single point of the particle with dimer basis set
| 50> $new_job
| 51> %base "2-48_DFT_B"
| 52> ! wB97X-D3 def2-TZVP TIGHTSCF CHELPG PMODEL
| 53>
| 54> %scf
| 55> MaxIter 1000
| 56> end
| 57>
| 58> * xyz 0 1
| 59>   C                    : 10.671055            10.874247            -6.224414
| 60>   O                    : 10.291536            10.383988            -7.491126
| 61>   H                    : 9.343227             10.212276            -7.351278
| 62>   H                    : 10.128935            11.724972            -5.827825
| 63>   H                    : 10.741809            10.097136            -5.461721
| 64>   H                    : 11.702338            11.230933            -6.279712
| 65>   C                      7.545939             11.477723            -5.060242
| 66>   O                      8.628813             10.954829            -4.312294
| 67>   H                      8.377161             10.922919            -3.407879
| 68>   H                      7.777598             11.448818            -6.128097
| 69>   H                      6.590545             10.941057            -4.773202
| 70>   H                      7.410125             12.507128            -4.888703
| 71> *
| 72>
| 73>                          ****END OF INPUT****
 Total Charge           Charge          ....    0
 Multiplicity           Mult            ....    1
 Number of Electrons    NEL             ....   36
Dispersion correction           -0.002252869
FINAL SINGLE POINT ENERGY      -231.464313208686
Dispersion correction           -0.000240755
FINAL SINGLE POINT ENERGY      -115.733726167281

CARTESIAN COORDINATES (ANGSTROEM)
---------------------------------
  C     10.671055   10.874247   -6.224414
  O     10.291536   10.383988   -7.491126
  H      9.343227   10.212276   -7.351278
  H     10.128935   11.724972   -5.827825
  H     10.741809   10.097136   -5.461721
  H     11.702338   11.230933   -6.279712
  C      7.545939   11.477723   -5.060242
  O      8.628813   10.954829   -4.312294
  H      8.377161   10.922919   -3.407879
  H      7.777598   11.448818   -6.128097
  H      6.590545   10.941057   -4.773202
  H      7.410125   12.507128   -4.888703

 Multiplicity           Mult            ....    1
 Number of Electrons    NEL             ....   18
 Basis Dimension        Dim             ....  172

ORBITAL ENERGIES
----------------

  NO   OCC          E(Eh)            E(eV)
   0   2.0000     -19.227668      -523.2114
   1   2.0000     -10.313244      -280.6376
   2   2.0000      -1.139400       -31.0046
   3   2.0000      -0.799172       -21.7466
   4   2.0000      -0.612588       -16.6694
   5   2.0000      -0.545705       -14.8494
   6   2.0000      -0.526431       -14.3249
   7   2.0000      -0.434868       -11.8334
   8   2.0000      -0.373163       -10.1543
   9   0.0000       0.099395         2.7047
  10   0.0000       0.132306         3.6002
  11   0.0000       0.153058         4.1649
  12   0.0000       0.178093         4.8462
  13   0.0000       0.200930         5.4676

MULLIKEN ATOMIC CHARGES
-----------------------
   0 C :    0.013007
   1 O :   -0.001024
   2 H :   -0.000332
   3 H :   -0.006036
   4 H :   -0.009121
   5 H :   -0.000628
   6 C :   -0.170508
   7 O :   -0.469192
   8 H :    0.306650
   9 H :    0.122487
  10 H :    0.104342
  11 H :    0.110354
Sum of atomic charges:    0.0000000

LOEWDIN ATOMIC CHARGES
----------------------
   0 C :   -0.029774
   1 O :   -0.000374
   2 H :   -0.003398
   3 H :   -0.013990
   4 H :   -0.008315
   5 H :   -0.000212
   6 C :   -0.371342
   7 O :   -0.031634
   8 H :    0.154120
   9 H :    0.114144
  10 H :    0.104854
  11 H :    0.085921

  Mayer bond orders larger than 0.1
B(  6-C ,  7-O ) :   0.9899 B(  6-C ,  9-H ) :   0.9773 B(  6-C , 10-H ) :   0.9769
B(  6-C , 11-H ) :   0.9749 B(  7-O ,  8-H ) :   0.9042

Dispersion correction           -0.000233832
FINAL SINGLE POINT ENERGY      -115.733303101720

DIPOLE MOMENT
-------------
                                X             Y             Z
Electronic contribution:      1.45250      -0.68185       0.82045
Nuclear contribution   :     -2.04426       0.90135      -0.54098
                        -----------------------------------------
Total Dipole Moment    :     -0.59176       0.21950       0.27947
                        -----------------------------------------
Magnitude (a.u.)       :      0.69026
Magnitude (Debye)      :      1.75451

Rotational constants in cm-1:     4.326576     0.835412     0.797949
Rotational constants in MHz : 129707.496014 25045.014025 23921.918323

                             ****ORCA TERMINATED NORMALLY****
TOTAL RUN TIME: 0 days 0 hours 5 minutes 51 seconds 586 msec
