                         Program Version 4.1.2  - RELEASE  -
|  1> #Run DFT-D3 single point of the dimer
|  2> ! wB97X-D3 def2-TZVP TIGHTSCF CHELPG PMODEL PAL8
|  3>
|  4> %base "4-67_DFT_AB"
|  5>
|  6> %scf
|  7> MaxIter 1000
|  8> end
|  9>
| 10> * xyz 0 1
| 11>   C                      3.051319             10.744531            -1.095731
| 12>   O                      4.041918             9.795528             -1.066697
| 13>   H                      3.695005             9.045905             -1.508227
| 14>   H                      2.823380             11.193484            -2.079917
| 15>   H                      2.116573             10.257582            -0.937231
| 16>   H                      3.298022             11.551580            -0.358631
| 17>   C                      7.388625             9.304116             -0.362198
| 18>   O                      6.555717             10.139447            0.407611
| 19>   H                      6.192975             10.799792            -0.243925
| 20>   H                      7.672126             8.444837             0.222729
| 21>   H                      6.882733             8.918819             -1.198655
| 22>   H                      8.359015             9.795671             -0.648308
| 23> *
| 24>
| 25> #Run DFT-D3 single point of the molecule with dimer basis set
| 26> $new_job
| 27> %base "4-67_DFT_A"
| 28> ! wB97X-D3 def2-TZVP TIGHTSCF CHELPG PMODEL
| 29>
| 30> %scf
| 31> MaxIter 1000
| 32> end
| 33>
| 34> * xyz 0 1
| 35>   C                      3.051319             10.744531            -1.095731
| 36>   O                      4.041918             9.795528             -1.066697
| 37>   H                      3.695005             9.045905             -1.508227
| 38>   H                      2.823380             11.193484            -2.079917
| 39>   H                      2.116573             10.257582            -0.937231
| 40>   H                      3.298022             11.551580            -0.358631
| 41>   C                    : 7.388625             9.304116             -0.362198
| 42>   O                    : 6.555717             10.139447            0.407611
| 43>   H                    : 6.192975             10.799792            -0.243925
| 44>   H                    : 7.672126             8.444837             0.222729
| 45>   H                    : 6.882733             8.918819             -1.198655
| 46>   H                    : 8.359015             9.795671             -0.648308
| 47> *
| 48>
| 49> #Run DFT-D3 single point of the particle with dimer basis set
| 50> $new_job
| 51> %base "4-67_DFT_B"
| 52> ! wB97X-D3 def2-TZVP TIGHTSCF CHELPG PMODEL
| 53>
| 54> %scf
| 55> MaxIter 1000
| 56> end
| 57>
| 58> * xyz 0 1
| 59>   C                    : 3.051319             10.744531            -1.095731
| 60>   O                    : 4.041918             9.795528             -1.066697
| 61>   H                    : 3.695005             9.045905             -1.508227
| 62>   H                    : 2.823380             11.193484            -2.079917
| 63>   H                    : 2.116573             10.257582            -0.937231
| 64>   H                    : 3.298022             11.551580            -0.358631
| 65>   C                      7.388625             9.304116             -0.362198
| 66>   O                      6.555717             10.139447            0.407611
| 67>   H                      6.192975             10.799792            -0.243925
| 68>   H                      7.672126             8.444837             0.222729
| 69>   H                      6.882733             8.918819             -1.198655
| 70>   H                      8.359015             9.795671             -0.648308
| 71> *
| 72>
| 73>                          ****END OF INPUT****
 Total Charge           Charge          ....    0
 Multiplicity           Mult            ....    1
 Number of Electrons    NEL             ....   36
Dispersion correction           -0.001736849
FINAL SINGLE POINT ENERGY      -231.463920884204
Dispersion correction           -0.000214605
FINAL SINGLE POINT ENERGY      -115.729531755522

CARTESIAN COORDINATES (ANGSTROEM)
---------------------------------
  C      3.051319   10.744531   -1.095731
  O      4.041918    9.795528   -1.066697
  H      3.695005    9.045905   -1.508227
  H      2.823380   11.193484   -2.079917
  H      2.116573   10.257582   -0.937231
  H      3.298022   11.551580   -0.358631
  C      7.388625    9.304116   -0.362198
  O      6.555717   10.139447    0.407611
  H      6.192975   10.799792   -0.243925
  H      7.672126    8.444837    0.222729
  H      6.882733    8.918819   -1.198655
  H      8.359015    9.795671   -0.648308

 Multiplicity           Mult            ....    1
 Number of Electrons    NEL             ....   18
 Basis Dimension        Dim             ....  172

ORBITAL ENERGIES
----------------

  NO   OCC          E(Eh)            E(eV)
   0   2.0000     -19.235962      -523.4371
   1   2.0000     -10.307838      -280.4905
   2   2.0000      -1.134283       -30.8654
   3   2.0000      -0.794143       -21.6097
   4   2.0000      -0.607480       -16.5304
   5   2.0000      -0.545877       -14.8541
   6   2.0000      -0.527290       -14.3483
   7   2.0000      -0.434851       -11.8329
   8   2.0000      -0.375049       -10.2056
   9   0.0000       0.077142         2.0991
  10   0.0000       0.127109         3.4588
  11   0.0000       0.144443         3.9305
  12   0.0000       0.170201         4.6314
  13   0.0000       0.199377         5.4253

MULLIKEN ATOMIC CHARGES
-----------------------
   0 C :   -0.003928
   1 O :   -0.004417
   2 H :   -0.000379
   3 H :    0.000072
   4 H :    0.000054
   5 H :   -0.000245
   6 C :   -0.172981
   7 O :   -0.458511
   8 H :    0.317564
   9 H :    0.116478
  10 H :    0.108368
  11 H :    0.097925
Sum of atomic charges:   -0.0000000

LOEWDIN ATOMIC CHARGES
----------------------
   0 C :   -0.003147
   1 O :   -0.010486
   2 H :   -0.000634
   3 H :   -0.000049
   4 H :   -0.000063
   5 H :   -0.000566
   6 C :   -0.393927
   7 O :   -0.075192
   8 H :    0.192862
   9 H :    0.105407
  10 H :    0.085800
  11 H :    0.099995

  Mayer bond orders larger than 0.1
B(  6-C ,  7-O ) :   1.0134 B(  6-C ,  9-H ) :   0.9748 B(  6-C , 10-H ) :   0.9764
B(  6-C , 11-H ) :   0.9785 B(  7-O ,  8-H ) :   0.8956

Dispersion correction           -0.000233516
FINAL SINGLE POINT ENERGY      -115.733829559331

DIPOLE MOMENT
-------------
                                X             Y             Z
Electronic contribution:     -1.09231       0.99738       1.09566
Nuclear contribution   :      1.18760      -0.95032      -1.78049
                        -----------------------------------------
Total Dipole Moment    :      0.09529       0.04707      -0.68483
                        -----------------------------------------
Magnitude (a.u.)       :      0.69303
Magnitude (Debye)      :      1.76154

Rotational constants in cm-1:     4.282939     0.835733     0.810127
Rotational constants in MHz : 128399.286655 25054.634590 24286.983568

                             ****ORCA TERMINATED NORMALLY****
TOTAL RUN TIME: 0 days 0 hours 1 minutes 37 seconds 156 msec
