                         Program Version 4.1.2  - RELEASE  -
|  1> #Run DFT-D3 single point of the dimer
|  2> ! wB97X-D3 def2-TZVP TIGHTSCF CHELPG PMODEL PAL8
|  3>
|  4> %base "1-100_DFT_AB"
|  5>
|  6> %scf
|  7> MaxIter 1000
|  8> end
|  9>
| 10> * xyz 0 1
| 11>   C                      -6.076476            10.396994            8.572423
| 12>   O                      -4.913337            11.136352            8.302519
| 13>   H                      -4.968444            12.080275            8.375493
| 14>   H                      -6.294389            9.678972             7.724420
| 15>   H                      -6.081936            9.823034             9.605426
| 16>   H                      -6.905947            11.125597            8.466702
| 17>   C                      -8.141431            10.120982            5.609422
| 18>   O                      -6.883457            9.926488             5.013537
| 19>   H                      -6.746002            9.087086             4.583543
| 20>   H                      -8.833033            10.492227            4.872045
| 21>   H                      -8.543352            9.177834             6.082713
| 22>   H                      -8.084201            10.899987            6.355994
| 23> *
| 24>
| 25> #Run DFT-D3 single point of the molecule with dimer basis set
| 26> $new_job
| 27> %base "1-100_DFT_A"
| 28> ! wB97X-D3 def2-TZVP TIGHTSCF CHELPG PMODEL
| 29>
| 30> %scf
| 31> MaxIter 1000
| 32> end
| 33>
| 34> * xyz 0 1
| 35>   C                      -6.076476            10.396994            8.572423
| 36>   O                      -4.913337            11.136352            8.302519
| 37>   H                      -4.968444            12.080275            8.375493
| 38>   H                      -6.294389            9.678972             7.724420
| 39>   H                      -6.081936            9.823034             9.605426
| 40>   H                      -6.905947            11.125597            8.466702
| 41>   C                    : -8.141431            10.120982            5.609422
| 42>   O                    : -6.883457            9.926488             5.013537
| 43>   H                    : -6.746002            9.087086             4.583543
| 44>   H                    : -8.833033            10.492227            4.872045
| 45>   H                    : -8.543352            9.177834             6.082713
| 46>   H                    : -8.084201            10.899987            6.355994
| 47> *
| 48>
| 49> #Run DFT-D3 single point of the particle with dimer basis set
| 50> $new_job
| 51> %base "1-100_DFT_B"
| 52> ! wB97X-D3 def2-TZVP TIGHTSCF CHELPG PMODEL
| 53>
| 54> %scf
| 55> MaxIter 1000
| 56> end
| 57>
| 58> * xyz 0 1
| 59>   C                    : -6.076476            10.396994            8.572423
| 60>   O                    : -4.913337            11.136352            8.302519
| 61>   H                    : -4.968444            12.080275            8.375493
| 62>   H                    : -6.294389            9.678972             7.724420
| 63>   H                    : -6.081936            9.823034             9.605426
| 64>   H                    : -6.905947            11.125597            8.466702
| 65>   C                      -8.141431            10.120982            5.609422
| 66>   O                      -6.883457            9.926488             5.013537
| 67>   H                      -6.746002            9.087086             4.583543
| 68>   H                      -8.833033            10.492227            4.872045
| 69>   H                      -8.543352            9.177834             6.082713
| 70>   H                      -8.084201            10.899987            6.355994
| 71> *
| 72>
| 73>                          ****END OF INPUT****
 Total Charge           Charge          ....    0
 Multiplicity           Mult            ....    1
 Number of Electrons    NEL             ....   36
Dispersion correction           -0.001928202
FINAL SINGLE POINT ENERGY      -231.459541220022
Dispersion correction           -0.000271579
FINAL SINGLE POINT ENERGY      -115.724990543890

CARTESIAN COORDINATES (ANGSTROEM)
---------------------------------
  C     -6.076476   10.396994    8.572423
  O     -4.913337   11.136352    8.302519
  H     -4.968444   12.080275    8.375493
  H     -6.294389    9.678972    7.724420
  H     -6.081936    9.823034    9.605426
  H     -6.905947   11.125597    8.466702
  C     -8.141431   10.120982    5.609422
  O     -6.883457    9.926488    5.013537
  H     -6.746002    9.087086    4.583543
  H     -8.833033   10.492227    4.872045
  H     -8.543352    9.177834    6.082713
  H     -8.084201   10.899987    6.355994

 Multiplicity           Mult            ....    1
 Number of Electrons    NEL             ....   18
 Basis Dimension        Dim             ....  172

ORBITAL ENERGIES
----------------

  NO   OCC          E(Eh)            E(eV)
   0   2.0000     -19.225408      -523.1500
   1   2.0000     -10.313780      -280.6522
   2   2.0000      -1.134147       -30.8617
   3   2.0000      -0.799804       -21.7638
   4   2.0000      -0.611605       -16.6426
   5   2.0000      -0.541506       -14.7351
   6   2.0000      -0.533220       -14.5096
   7   2.0000      -0.423020       -11.5110
   8   2.0000      -0.371191       -10.1006
   9   0.0000       0.093014         2.5310
  10   0.0000       0.121965         3.3188
  11   0.0000       0.153857         4.1867
  12   0.0000       0.171642         4.6706
  13   0.0000       0.197918         5.3856

MULLIKEN ATOMIC CHARGES
-----------------------
   0 C :    0.004955
   1 O :   -0.000413
   2 H :   -0.000069
   3 H :   -0.004620
   4 H :    0.000166
   5 H :   -0.002217
   6 C :   -0.155212
   7 O :   -0.494300
   8 H :    0.318429
   9 H :    0.112661
  10 H :    0.099614
  11 H :    0.121008
Sum of atomic charges:    0.0000000

LOEWDIN ATOMIC CHARGES
----------------------
   0 C :   -0.006134
   1 O :   -0.000111
   2 H :   -0.000020
   3 H :   -0.006489
   4 H :   -0.000014
   5 H :   -0.003183
   6 C :   -0.382139
   7 O :   -0.067774
   8 H :    0.162669
   9 H :    0.092976
  10 H :    0.102778
  11 H :    0.107440

  Mayer bond orders larger than 0.1
B(  6-C ,  7-O ) :   0.9815 B(  6-C ,  9-H ) :   0.9758 B(  6-C , 10-H ) :   0.9816
B(  6-C , 11-H ) :   0.9759 B(  7-O ,  8-H ) :   0.8933

Dispersion correction           -0.000256456
FINAL SINGLE POINT ENERGY      -115.734267845131

DIPOLE MOMENT
-------------
                                X             Y             Z
Electronic contribution:      1.62873      -0.14745      -0.71427
Nuclear contribution   :     -2.05348      -0.31469       0.66675
                        -----------------------------------------
Total Dipole Moment    :     -0.42475      -0.46213      -0.04753
                        -----------------------------------------
Magnitude (a.u.)       :      0.62948
Magnitude (Debye)      :      1.60001

Rotational constants in cm-1:     4.394329     0.830920     0.801482
Rotational constants in MHz : 131738.680493 24910.348748 24027.823450

                             ****ORCA TERMINATED NORMALLY****
TOTAL RUN TIME: 0 days 0 hours 4 minutes 33 seconds 642 msec
