                         Program Version 4.1.2  - RELEASE  -
|  1> #Run DFT-D3 single point of the dimer
|  2> ! wB97X-D3 def2-TZVP TIGHTSCF CHELPG PMODEL PAL8
|  3>
|  4> %base "4-72_DFT_AB"
|  5>
|  6> %scf
|  7> MaxIter 1000
|  8> end
|  9>
| 10> * xyz 0 1
| 11>   C                      4.024355             -6.801977            -8.916837
| 12>   O                      2.663368             -6.801153            -9.057764
| 13>   H                      2.302271             -5.971964            -8.723730
| 14>   H                      4.469199             -5.890253            -9.387422
| 15>   H                      4.195968             -6.701892            -7.838637
| 16>   H                      4.536072             -7.759296            -9.102608
| 17>   C                      7.245544             -7.014350            -7.387267
| 18>   O                      7.969741             -6.662805            -8.568939
| 19>   H                      8.515707             -5.864609            -8.469359
| 20>   H                      7.846462             -6.996320            -6.483732
| 21>   H                      6.373822             -6.319145            -7.313843
| 22>   H                      6.858383             -8.035789            -7.470372
| 23> *
| 24>
| 25> #Run DFT-D3 single point of the molecule with dimer basis set
| 26> $new_job
| 27> %base "4-72_DFT_A"
| 28> ! wB97X-D3 def2-TZVP TIGHTSCF CHELPG PMODEL
| 29>
| 30> %scf
| 31> MaxIter 1000
| 32> end
| 33>
| 34> * xyz 0 1
| 35>   C                      4.024355             -6.801977            -8.916837
| 36>   O                      2.663368             -6.801153            -9.057764
| 37>   H                      2.302271             -5.971964            -8.723730
| 38>   H                      4.469199             -5.890253            -9.387422
| 39>   H                      4.195968             -6.701892            -7.838637
| 40>   H                      4.536072             -7.759296            -9.102608
| 41>   C                    : 7.245544             -7.014350            -7.387267
| 42>   O                    : 7.969741             -6.662805            -8.568939
| 43>   H                    : 8.515707             -5.864609            -8.469359
| 44>   H                    : 7.846462             -6.996320            -6.483732
| 45>   H                    : 6.373822             -6.319145            -7.313843
| 46>   H                    : 6.858383             -8.035789            -7.470372
| 47> *
| 48>
| 49> #Run DFT-D3 single point of the particle with dimer basis set
| 50> $new_job
| 51> %base "4-72_DFT_B"
| 52> ! wB97X-D3 def2-TZVP TIGHTSCF CHELPG PMODEL
| 53>
| 54> %scf
| 55> MaxIter 1000
| 56> end
| 57>
| 58> * xyz 0 1
| 59>   C                    : 4.024355             -6.801977            -8.916837
| 60>   O                    : 2.663368             -6.801153            -9.057764
| 61>   H                    : 2.302271             -5.971964            -8.723730
| 62>   H                    : 4.469199             -5.890253            -9.387422
| 63>   H                    : 4.195968             -6.701892            -7.838637
| 64>   H                    : 4.536072             -7.759296            -9.102608
| 65>   C                      7.245544             -7.014350            -7.387267
| 66>   O                      7.969741             -6.662805            -8.568939
| 67>   H                      8.515707             -5.864609            -8.469359
| 68>   H                      7.846462             -6.996320            -6.483732
| 69>   H                      6.373822             -6.319145            -7.313843
| 70>   H                      6.858383             -8.035789            -7.470372
| 71> *
| 72>
| 73>                          ****END OF INPUT****
 Total Charge           Charge          ....    0
 Multiplicity           Mult            ....    1
 Number of Electrons    NEL             ....   36
Dispersion correction           -0.001743373
FINAL SINGLE POINT ENERGY      -231.462867271056
Dispersion correction           -0.000212364
FINAL SINGLE POINT ENERGY      -115.727522093931

CARTESIAN COORDINATES (ANGSTROEM)
---------------------------------
  C      4.024355   -6.801977   -8.916837
  O      2.663368   -6.801153   -9.057764
  H      2.302271   -5.971964   -8.723730
  H      4.469199   -5.890253   -9.387422
  H      4.195968   -6.701892   -7.838637
  H      4.536072   -7.759296   -9.102608
  C      7.245544   -7.014350   -7.387267
  O      7.969741   -6.662805   -8.568939
  H      8.515707   -5.864609   -8.469359
  H      7.846462   -6.996320   -6.483732
  H      6.373822   -6.319145   -7.313843
  H      6.858383   -8.035789   -7.470372

 Multiplicity           Mult            ....    1
 Number of Electrons    NEL             ....   18
 Basis Dimension        Dim             ....  172

ORBITAL ENERGIES
----------------

  NO   OCC          E(Eh)            E(eV)
   0   2.0000     -19.227730      -523.2131
   1   2.0000     -10.316588      -280.7286
   2   2.0000      -1.124611       -30.6022
   3   2.0000      -0.795833       -21.6557
   4   2.0000      -0.605416       -16.4742
   5   2.0000      -0.540529       -14.7085
   6   2.0000      -0.525430       -14.2977
   7   2.0000      -0.425997       -11.5920
   8   2.0000      -0.372034       -10.1236
   9   0.0000       0.089150         2.4259
  10   0.0000       0.119066         3.2400
  11   0.0000       0.152191         4.1413
  12   0.0000       0.177674         4.8348
  13   0.0000       0.187789         5.1100

MULLIKEN ATOMIC CHARGES
-----------------------
   0 C :    0.005545
   1 O :    0.000117
   2 H :    0.000029
   3 H :   -0.001006
   4 H :   -0.003895
   5 H :   -0.000274
   6 C :   -0.156479
   7 O :   -0.496700
   8 H :    0.318431
   9 H :    0.114102
  10 H :    0.102482
  11 H :    0.117647
Sum of atomic charges:   -0.0000000

LOEWDIN ATOMIC CHARGES
----------------------
   0 C :   -0.007776
   1 O :   -0.000029
   2 H :   -0.000002
   3 H :   -0.000745
   4 H :   -0.005940
   5 H :   -0.001170
   6 C :   -0.367621
   7 O :   -0.098035
   8 H :    0.172317
   9 H :    0.093188
  10 H :    0.105234
  11 H :    0.110578

  Mayer bond orders larger than 0.1
B(  6-C ,  7-O ) :   0.9877 B(  6-C ,  9-H ) :   0.9707 B(  6-C , 10-H ) :   0.9829
B(  6-C , 11-H ) :   0.9712 B(  7-O ,  8-H ) :   0.8923

Dispersion correction           -0.000262223
FINAL SINGLE POINT ENERGY      -115.734762176663

DIPOLE MOMENT
-------------
                                X             Y             Z
Electronic contribution:      0.91616       0.31547      -1.49000
Nuclear contribution   :     -0.84983       0.03366       2.05115
                        -----------------------------------------
Total Dipole Moment    :      0.06633       0.34913       0.56115
                        -----------------------------------------
Magnitude (a.u.)       :      0.66421
Magnitude (Debye)      :      1.68830

Rotational constants in cm-1:     4.297902     0.805462     0.784664
Rotational constants in MHz : 128847.851373 24147.143025 23523.641335

                             ****ORCA TERMINATED NORMALLY****
TOTAL RUN TIME: 0 days 0 hours 1 minutes 33 seconds 97 msec
