                         Program Version 4.1.2  - RELEASE  -
|  1> #Run DFT-D3 single point of the dimer
|  2> ! wB97X-D3 def2-TZVP TIGHTSCF CHELPG PMODEL PAL8
|  3>
|  4> %base "6-36_DFT_AB"
|  5>
|  6> %scf
|  7> MaxIter 1000
|  8> end
|  9>
| 10> * xyz 0 1
| 11>   C                      5.317093             -1.389465            9.829214
| 12>   O                      4.191214             -1.778297            9.136215
| 13>   H                      3.445085             -1.583899            9.711773
| 14>   H                      5.210921             -0.435185            10.318451
| 15>   H                      5.554928             -2.009631            10.720505
| 16>   H                      6.232359             -1.237325            9.223944
| 17>   C                      8.403036             2.979775             8.128767
| 18>   O                      8.336987             3.144362             9.587973
| 19>   H                      8.340381             2.287129             9.970963
| 20>   H                      7.526798             2.559390             7.589672
| 21>   H                      8.577021             3.940884             7.690245
| 22>   H                      9.265997             2.384597             7.729235
| 23> *
| 24>
| 25> #Run DFT-D3 single point of the molecule with dimer basis set
| 26> $new_job
| 27> %base "6-36_DFT_A"
| 28> ! wB97X-D3 def2-TZVP TIGHTSCF CHELPG PMODEL
| 29>
| 30> %scf
| 31> MaxIter 1000
| 32> end
| 33>
| 34> * xyz 0 1
| 35>   C                      5.317093             -1.389465            9.829214
| 36>   O                      4.191214             -1.778297            9.136215
| 37>   H                      3.445085             -1.583899            9.711773
| 38>   H                      5.210921             -0.435185            10.318451
| 39>   H                      5.554928             -2.009631            10.720505
| 40>   H                      6.232359             -1.237325            9.223944
| 41>   C                    : 8.403036             2.979775             8.128767
| 42>   O                    : 8.336987             3.144362             9.587973
| 43>   H                    : 8.340381             2.287129             9.970963
| 44>   H                    : 7.526798             2.559390             7.589672
| 45>   H                    : 8.577021             3.940884             7.690245
| 46>   H                    : 9.265997             2.384597             7.729235
| 47> *
| 48>
| 49> #Run DFT-D3 single point of the particle with dimer basis set
| 50> $new_job
| 51> %base "6-36_DFT_B"
| 52> ! wB97X-D3 def2-TZVP TIGHTSCF CHELPG PMODEL
| 53>
| 54> %scf
| 55> MaxIter 1000
| 56> end
| 57>
| 58> * xyz 0 1
| 59>   C                    : 5.317093             -1.389465            9.829214
| 60>   O                    : 4.191214             -1.778297            9.136215
| 61>   H                    : 3.445085             -1.583899            9.711773
| 62>   H                    : 5.210921             -0.435185            10.318451
| 63>   H                    : 5.554928             -2.009631            10.720505
| 64>   H                    : 6.232359             -1.237325            9.223944
| 65>   C                      8.403036             2.979775             8.128767
| 66>   O                      8.336987             3.144362             9.587973
| 67>   H                      8.340381             2.287129             9.970963
| 68>   H                      7.526798             2.559390             7.589672
| 69>   H                      8.577021             3.940884             7.690245
| 70>   H                      9.265997             2.384597             7.729235
| 71> *
| 72>
| 73>                          ****END OF INPUT****
 Total Charge           Charge          ....    0
 Multiplicity           Mult            ....    1
 Number of Electrons    NEL             ....   36
Dispersion correction           -0.000752660
FINAL SINGLE POINT ENERGY      -231.461176432807
Dispersion correction           -0.000234213
FINAL SINGLE POINT ENERGY      -115.730953859953

CARTESIAN COORDINATES (ANGSTROEM)
---------------------------------
  C      5.317093   -1.389465    9.829214
  O      4.191214   -1.778297    9.136215
  H      3.445085   -1.583899    9.711773
  H      5.210921   -0.435185   10.318451
  H      5.554928   -2.009631   10.720505
  H      6.232359   -1.237325    9.223944
  C      8.403036    2.979775    8.128767
  O      8.336987    3.144362    9.587973
  H      8.340381    2.287129    9.970963
  H      7.526798    2.559390    7.589672
  H      8.577021    3.940884    7.690245
  H      9.265997    2.384597    7.729235

 Multiplicity           Mult            ....    1
 Number of Electrons    NEL             ....   18
 Basis Dimension        Dim             ....  172

ORBITAL ENERGIES
----------------

  NO   OCC          E(Eh)            E(eV)
   0   2.0000     -19.235461      -523.4235
   1   2.0000     -10.320491      -280.8348
   2   2.0000      -1.127758       -30.6879
   3   2.0000      -0.801736       -21.8164
   4   2.0000      -0.607848       -16.5404
   5   2.0000      -0.527036       -14.3414
   6   2.0000      -0.519488       -14.1360
   7   2.0000      -0.442304       -12.0357
   8   2.0000      -0.380535       -10.3549
   9   0.0000       0.078761         2.1432
  10   0.0000       0.116083         3.1588
  11   0.0000       0.142146         3.8680
  12   0.0000       0.167136         4.5480
  13   0.0000       0.189102         5.1457

MULLIKEN ATOMIC CHARGES
-----------------------
   0 C :    0.000068
   1 O :    0.000001
   2 H :   -0.000000
   3 H :   -0.000174
   4 H :   -0.000008
   5 H :   -0.000016
   6 C :   -0.189981
   7 O :   -0.467496
   8 H :    0.310800
   9 H :    0.110239
  10 H :    0.128963
  11 H :    0.107603
Sum of atomic charges:    0.0000000

LOEWDIN ATOMIC CHARGES
----------------------
   0 C :   -0.000043
   1 O :   -0.000001
   2 H :   -0.000000
   3 H :   -0.000053
   4 H :   -0.000000
   5 H :   -0.000025
   6 C :   -0.360415
   7 O :   -0.095257
   8 H :    0.151066
   9 H :    0.099088
  10 H :    0.104232
  11 H :    0.101409

  Mayer bond orders larger than 0.1
B(  6-C ,  7-O ) :   1.0063 B(  6-C ,  9-H ) :   0.9653 B(  6-C , 10-H ) :   0.9773
B(  6-C , 11-H ) :   0.9708 B(  7-O ,  8-H ) :   0.9063

Dispersion correction           -0.000307131
FINAL SINGLE POINT ENERGY      -115.730057095126

DIPOLE MOMENT
-------------
                                X             Y             Z
Electronic contribution:     -0.15971       0.32416       1.97278
Nuclear contribution   :      0.20364      -0.91955      -2.34224
                        -----------------------------------------
Total Dipole Moment    :      0.04393      -0.59538      -0.36946
                        -----------------------------------------
Magnitude (a.u.)       :      0.70208
Magnitude (Debye)      :      1.78454

Rotational constants in cm-1:     4.493414     0.762288     0.740976
Rotational constants in MHz : 134709.148626 22852.824837 22213.893242

                             ****ORCA TERMINATED NORMALLY****
TOTAL RUN TIME: 0 days 0 hours 0 minutes 52 seconds 646 msec
