                         Program Version 4.1.2  - RELEASE  -
|  1> #Run DFT-D3 single point of the dimer
|  2> ! wB97X-D3 def2-TZVP TIGHTSCF CHELPG PMODEL PAL8
|  3>
|  4> %base "3-120_DFT_AB"
|  5>
|  6> %scf
|  7> MaxIter 1000
|  8> end
|  9>
| 10> * xyz 0 1
| 11>   C                      3.223815             -1.120758            5.515775
| 12>   O                      2.667111             -0.042912            6.132013
| 13>   H                      1.858254             0.090101             5.682670
| 14>   H                      3.470362             -1.950153            6.248320
| 15>   H                      2.540332             -1.571278            4.775863
| 16>   H                      4.135189             -0.855422            5.051932
| 17>   C                      4.848953             1.340181             0.947350
| 18>   O                      5.001859             0.304335             1.898292
| 19>   H                      4.510432             0.503316             2.714036
| 20>   H                      5.085861             2.371400             1.327019
| 21>   H                      5.514428             1.175361             0.105309
| 22>   H                      3.768077             1.411287             0.618758
| 23> *
| 24>
| 25> #Run DFT-D3 single point of the molecule with dimer basis set
| 26> $new_job
| 27> %base "3-120_DFT_A"
| 28> ! wB97X-D3 def2-TZVP TIGHTSCF CHELPG PMODEL
| 29>
| 30> %scf
| 31> MaxIter 1000
| 32> end
| 33>
| 34> * xyz 0 1
| 35>   C                      3.223815             -1.120758            5.515775
| 36>   O                      2.667111             -0.042912            6.132013
| 37>   H                      1.858254             0.090101             5.682670
| 38>   H                      3.470362             -1.950153            6.248320
| 39>   H                      2.540332             -1.571278            4.775863
| 40>   H                      4.135189             -0.855422            5.051932
| 41>   C                    : 4.848953             1.340181             0.947350
| 42>   O                    : 5.001859             0.304335             1.898292
| 43>   H                    : 4.510432             0.503316             2.714036
| 44>   H                    : 5.085861             2.371400             1.327019
| 45>   H                    : 5.514428             1.175361             0.105309
| 46>   H                    : 3.768077             1.411287             0.618758
| 47> *
| 48>
| 49> #Run DFT-D3 single point of the particle with dimer basis set
| 50> $new_job
| 51> %base "3-120_DFT_B"
| 52> ! wB97X-D3 def2-TZVP TIGHTSCF CHELPG PMODEL
| 53>
| 54> %scf
| 55> MaxIter 1000
| 56> end
| 57>
| 58> * xyz 0 1
| 59>   C                    : 3.223815             -1.120758            5.515775
| 60>   O                    : 2.667111             -0.042912            6.132013
| 61>   H                    : 1.858254             0.090101             5.682670
| 62>   H                    : 3.470362             -1.950153            6.248320
| 63>   H                    : 2.540332             -1.571278            4.775863
| 64>   H                    : 4.135189             -0.855422            5.051932
| 65>   C                      4.848953             1.340181             0.947350
| 66>   O                      5.001859             0.304335             1.898292
| 67>   H                      4.510432             0.503316             2.714036
| 68>   H                      5.085861             2.371400             1.327019
| 69>   H                      5.514428             1.175361             0.105309
| 70>   H                      3.768077             1.411287             0.618758
| 71> *
| 72>
| 73>                          ****END OF INPUT****
 Total Charge           Charge          ....    0
 Multiplicity           Mult            ....    1
 Number of Electrons    NEL             ....   36
Dispersion correction           -0.001042436
FINAL SINGLE POINT ENERGY      -231.465963443228
Dispersion correction           -0.000219620
FINAL SINGLE POINT ENERGY      -115.730411500265

CARTESIAN COORDINATES (ANGSTROEM)
---------------------------------
  C      3.223815   -1.120758    5.515775
  O      2.667111   -0.042912    6.132013
  H      1.858254    0.090101    5.682670
  H      3.470362   -1.950153    6.248320
  H      2.540332   -1.571278    4.775863
  H      4.135189   -0.855422    5.051932
  C      4.848953    1.340181    0.947350
  O      5.001859    0.304335    1.898292
  H      4.510432    0.503316    2.714036
  H      5.085861    2.371400    1.327019
  H      5.514428    1.175361    0.105309
  H      3.768077    1.411287    0.618758

 Multiplicity           Mult            ....    1
 Number of Electrons    NEL             ....   18
 Basis Dimension        Dim             ....  172

ORBITAL ENERGIES
----------------

  NO   OCC          E(Eh)            E(eV)
   0   2.0000     -19.232496      -523.3428
   1   2.0000     -10.319964      -280.8205
   2   2.0000      -1.132790       -30.8248
   3   2.0000      -0.792199       -21.5568
   4   2.0000      -0.610612       -16.6156
   5   2.0000      -0.537453       -14.6248
   6   2.0000      -0.523678       -14.2500
   7   2.0000      -0.433088       -11.7849
   8   2.0000      -0.370973       -10.0947
   9   0.0000       0.076996         2.0952
  10   0.0000       0.124015         3.3746
  11   0.0000       0.149212         4.0603
  12   0.0000       0.166297         4.5252
  13   0.0000       0.193290         5.2597

MULLIKEN ATOMIC CHARGES
-----------------------
   0 C :   -0.001077
   1 O :    0.000041
   2 H :    0.000015
   3 H :   -0.000003
   4 H :    0.000028
   5 H :    0.000097
   6 C :   -0.163766
   7 O :   -0.476454
   8 H :    0.319732
   9 H :    0.096786
  10 H :    0.126248
  11 H :    0.098352
Sum of atomic charges:    0.0000000

LOEWDIN ATOMIC CHARGES
----------------------
   0 C :   -0.001135
   1 O :   -0.000009
   2 H :   -0.000013
   3 H :   -0.000012
   4 H :   -0.000101
   5 H :   -0.000852
   6 C :   -0.393358
   7 O :   -0.082999
   8 H :    0.176089
   9 H :    0.096202
  10 H :    0.106706
  11 H :    0.099482

  Mayer bond orders larger than 0.1
B(  6-C ,  7-O ) :   1.0019 B(  6-C ,  9-H ) :   0.9722 B(  6-C , 10-H ) :   0.9711
B(  6-C , 11-H ) :   0.9762 B(  7-O ,  8-H ) :   0.8917

Dispersion correction           -0.000262337
FINAL SINGLE POINT ENERGY      -115.734820210639

DIPOLE MOMENT
-------------
                                X             Y             Z
Electronic contribution:      0.35608      -1.48074       1.11631
Nuclear contribution   :     -0.70915       2.01576      -0.97505
                        -----------------------------------------
Total Dipole Moment    :     -0.35307       0.53502       0.14126
                        -----------------------------------------
Magnitude (a.u.)       :      0.65640
Magnitude (Debye)      :      1.66845

Rotational constants in cm-1:     4.220339     0.819736     0.789245
Rotational constants in MHz : 126522.566549 24575.052618 23660.976472

                             ****ORCA TERMINATED NORMALLY****
TOTAL RUN TIME: 0 days 0 hours 6 minutes 24 seconds 977 msec
