                         Program Version 4.1.2  - RELEASE  -
|  1> #Run DFT-D3 single point of the dimer
|  2> ! wB97X-D3 def2-TZVP TIGHTSCF CHELPG PMODEL PAL8
|  3>
|  4> %base "4-21_DFT_AB"
|  5>
|  6> %scf
|  7> MaxIter 1000
|  8> end
|  9>
| 10> * xyz 0 1
| 11>   C                      1.278964             -10.654822           2.337766
| 12>   O                      1.975469             -10.763566           3.561013
| 13>   H                      2.763265             -11.256909           3.348373
| 14>   H                      0.900062             -11.560758           2.008515
| 15>   H                      0.551293             -9.905268            2.334664
| 16>   H                      2.032881             -10.389157           1.510708
| 17>   C                      0.326346             -7.849366            4.907157
| 18>   O                      0.905791             -6.751774            4.223884
| 19>   H                      1.663626             -6.322167            4.710736
| 20>   H                      0.423714             -8.748136            4.252815
| 21>   H                      0.760862             -7.984091            5.887132
| 22>   H                      -0.774862            -7.694248            4.986652
| 23> *
| 24>
| 25> #Run DFT-D3 single point of the molecule with dimer basis set
| 26> $new_job
| 27> %base "4-21_DFT_A"
| 28> ! wB97X-D3 def2-TZVP TIGHTSCF CHELPG PMODEL
| 29>
| 30> %scf
| 31> MaxIter 1000
| 32> end
| 33>
| 34> * xyz 0 1
| 35>   C                      1.278964             -10.654822           2.337766
| 36>   O                      1.975469             -10.763566           3.561013
| 37>   H                      2.763265             -11.256909           3.348373
| 38>   H                      0.900062             -11.560758           2.008515
| 39>   H                      0.551293             -9.905268            2.334664
| 40>   H                      2.032881             -10.389157           1.510708
| 41>   C                    : 0.326346             -7.849366            4.907157
| 42>   O                    : 0.905791             -6.751774            4.223884
| 43>   H                    : 1.663626             -6.322167            4.710736
| 44>   H                    : 0.423714             -8.748136            4.252815
| 45>   H                    : 0.760862             -7.984091            5.887132
| 46>   H                    : -0.774862            -7.694248            4.986652
| 47> *
| 48>
| 49> #Run DFT-D3 single point of the particle with dimer basis set
| 50> $new_job
| 51> %base "4-21_DFT_B"
| 52> ! wB97X-D3 def2-TZVP TIGHTSCF CHELPG PMODEL
| 53>
| 54> %scf
| 55> MaxIter 1000
| 56> end
| 57>
| 58> * xyz 0 1
| 59>   C                    : 1.278964             -10.654822           2.337766
| 60>   O                    : 1.975469             -10.763566           3.561013
| 61>   H                    : 2.763265             -11.256909           3.348373
| 62>   H                    : 0.900062             -11.560758           2.008515
| 63>   H                    : 0.551293             -9.905268            2.334664
| 64>   H                    : 2.032881             -10.389157           1.510708
| 65>   C                      0.326346             -7.849366            4.907157
| 66>   O                      0.905791             -6.751774            4.223884
| 67>   H                      1.663626             -6.322167            4.710736
| 68>   H                      0.423714             -8.748136            4.252815
| 69>   H                      0.760862             -7.984091            5.887132
| 70>   H                      -0.774862            -7.694248            4.986652
| 71> *
| 72>
| 73>                          ****END OF INPUT****
 Total Charge           Charge          ....    0
 Multiplicity           Mult            ....    1
 Number of Electrons    NEL             ....   36
Dispersion correction           -0.001579509
FINAL SINGLE POINT ENERGY      -231.462447531109
Dispersion correction           -0.000217317
FINAL SINGLE POINT ENERGY      -115.729363309722

CARTESIAN COORDINATES (ANGSTROEM)
---------------------------------
  C      1.278964  -10.654822    2.337766
  O      1.975469  -10.763566    3.561013
  H      2.763265  -11.256909    3.348373
  H      0.900062  -11.560758    2.008515
  H      0.551293   -9.905268    2.334664
  H      2.032881  -10.389157    1.510708
  C      0.326346   -7.849366    4.907157
  O      0.905791   -6.751774    4.223884
  H      1.663626   -6.322167    4.710736
  H      0.423714   -8.748136    4.252815
  H      0.760862   -7.984091    5.887132
  H     -0.774862   -7.694248    4.986652

 Multiplicity           Mult            ....    1
 Number of Electrons    NEL             ....   18
 Basis Dimension        Dim             ....  172

ORBITAL ENERGIES
----------------

  NO   OCC          E(Eh)            E(eV)
   0   2.0000     -19.228605      -523.2370
   1   2.0000     -10.316174      -280.7174
   2   2.0000      -1.123604       -30.5748
   3   2.0000      -0.791148       -21.5282
   4   2.0000      -0.607424       -16.5288
   5   2.0000      -0.532858       -14.4998
   6   2.0000      -0.529008       -14.3950
   7   2.0000      -0.428517       -11.6605
   8   2.0000      -0.365990        -9.9591
   9   0.0000       0.088862         2.4181
  10   0.0000       0.112077         3.0498
  11   0.0000       0.155859         4.2411
  12   0.0000       0.167412         4.5555
  13   0.0000       0.193100         5.2545

MULLIKEN ATOMIC CHARGES
-----------------------
   0 C :   -0.000200
   1 O :   -0.000495
   2 H :   -0.000142
   3 H :    0.000670
   4 H :    0.004152
   5 H :   -0.000197
   6 C :   -0.153283
   7 O :   -0.492473
   8 H :    0.321511
   9 H :    0.099996
  10 H :    0.110264
  11 H :    0.110198
Sum of atomic charges:    0.0000000

LOEWDIN ATOMIC CHARGES
----------------------
   0 C :   -0.007398
   1 O :   -0.003371
   2 H :   -0.000186
   3 H :   -0.000044
   4 H :   -0.004226
   5 H :   -0.000086
   6 C :   -0.381639
   7 O :   -0.101619
   8 H :    0.188333
   9 H :    0.110638
  10 H :    0.094307
  11 H :    0.105293

  Mayer bond orders larger than 0.1
B(  6-C ,  7-O ) :   1.0152 B(  6-C ,  9-H ) :   0.9729 B(  6-C , 10-H ) :   0.9826
B(  6-C , 11-H ) :   0.9780 B(  7-O ,  8-H ) :   0.8891

Dispersion correction           -0.000260036
FINAL SINGLE POINT ENERGY      -115.732063587711

DIPOLE MOMENT
-------------
                                X             Y             Z
Electronic contribution:      0.71595       1.35808      -0.83804
Nuclear contribution   :     -0.45200      -1.51670       1.44631
                        -----------------------------------------
Total Dipole Moment    :      0.26395      -0.15862       0.60826
                        -----------------------------------------
Magnitude (a.u.)       :      0.68177
Magnitude (Debye)      :      1.73293

Rotational constants in cm-1:     4.206017     0.824253     0.789769
Rotational constants in MHz : 126093.204244 24710.486174 23676.671584

                             ****ORCA TERMINATED NORMALLY****
TOTAL RUN TIME: 0 days 0 hours 1 minutes 36 seconds 205 msec
