                         Program Version 4.1.2  - RELEASE  -
|  1> #Run DFT-D3 single point of the dimer
|  2> ! wB97X-D3 def2-TZVP TIGHTSCF CHELPG PMODEL PAL8
|  3>
|  4> %base "1-131_DFT_AB"
|  5>
|  6> %scf
|  7> MaxIter 1000
|  8> end
|  9>
| 10> * xyz 0 1
| 11>   C                      8.306979             -1.199292            -5.182348
| 12>   O                      7.537905             -1.703815            -6.246899
| 13>   H                      7.832907             -1.390369            -7.097220
| 14>   H                      8.184739             -0.143854            -5.200148
| 15>   H                      8.096430             -1.585496            -4.205000
| 16>   H                      9.355720             -1.370345            -5.333518
| 17>   C                      10.237845            -3.068959            -3.308223
| 18>   O                      9.737158             -3.674142            -4.465276
| 19>   H                      9.453177             -4.568584            -4.169225
| 20>   H                      10.407160            -2.007675            -3.539728
| 21>   H                      9.488849             -3.072322            -2.575428
| 22>   H                      11.112346            -3.636049            -2.896684
| 23> *
| 24>
| 25> #Run DFT-D3 single point of the molecule with dimer basis set
| 26> $new_job
| 27> %base "1-131_DFT_A"
| 28> ! wB97X-D3 def2-TZVP TIGHTSCF CHELPG PMODEL
| 29>
| 30> %scf
| 31> MaxIter 1000
| 32> end
| 33>
| 34> * xyz 0 1
| 35>   C                      8.306979             -1.199292            -5.182348
| 36>   O                      7.537905             -1.703815            -6.246899
| 37>   H                      7.832907             -1.390369            -7.097220
| 38>   H                      8.184739             -0.143854            -5.200148
| 39>   H                      8.096430             -1.585496            -4.205000
| 40>   H                      9.355720             -1.370345            -5.333518
| 41>   C                    : 10.237845            -3.068959            -3.308223
| 42>   O                    : 9.737158             -3.674142            -4.465276
| 43>   H                    : 9.453177             -4.568584            -4.169225
| 44>   H                    : 10.407160            -2.007675            -3.539728
| 45>   H                    : 9.488849             -3.072322            -2.575428
| 46>   H                    : 11.112346            -3.636049            -2.896684
| 47> *
| 48>
| 49> #Run DFT-D3 single point of the particle with dimer basis set
| 50> $new_job
| 51> %base "1-131_DFT_B"
| 52> ! wB97X-D3 def2-TZVP TIGHTSCF CHELPG PMODEL
| 53>
| 54> %scf
| 55> MaxIter 1000
| 56> end
| 57>
| 58> * xyz 0 1
| 59>   C                    : 8.306979             -1.199292            -5.182348
| 60>   O                    : 7.537905             -1.703815            -6.246899
| 61>   H                    : 7.832907             -1.390369            -7.097220
| 62>   H                    : 8.184739             -0.143854            -5.200148
| 63>   H                    : 8.096430             -1.585496            -4.205000
| 64>   H                    : 9.355720             -1.370345            -5.333518
| 65>   C                      10.237845            -3.068959            -3.308223
| 66>   O                      9.737158             -3.674142            -4.465276
| 67>   H                      9.453177             -4.568584            -4.169225
| 68>   H                      10.407160            -2.007675            -3.539728
| 69>   H                      9.488849             -3.072322            -2.575428
| 70>   H                      11.112346            -3.636049            -2.896684
| 71> *
| 72>
| 73>                          ****END OF INPUT****
 Total Charge           Charge          ....    0
 Multiplicity           Mult            ....    1
 Number of Electrons    NEL             ....   36
Dispersion correction           -0.002031577
FINAL SINGLE POINT ENERGY      -231.461941222009
Dispersion correction           -0.000227317
FINAL SINGLE POINT ENERGY      -115.731318622139

CARTESIAN COORDINATES (ANGSTROEM)
---------------------------------
  C      8.306979   -1.199292   -5.182348
  O      7.537905   -1.703815   -6.246899
  H      7.832907   -1.390369   -7.097220
  H      8.184739   -0.143854   -5.200148
  H      8.096430   -1.585496   -4.205000
  H      9.355720   -1.370345   -5.333518
  C     10.237845   -3.068959   -3.308223
  O      9.737158   -3.674142   -4.465276
  H      9.453177   -4.568584   -4.169225
  H     10.407160   -2.007675   -3.539728
  H      9.488849   -3.072322   -2.575428
  H     11.112346   -3.636049   -2.896684

 Multiplicity           Mult            ....    1
 Number of Electrons    NEL             ....   18
 Basis Dimension        Dim             ....  172

ORBITAL ENERGIES
----------------

  NO   OCC          E(Eh)            E(eV)
   0   2.0000     -19.231487      -523.3154
   1   2.0000     -10.309438      -280.5341
   2   2.0000      -1.139096       -30.9964
   3   2.0000      -0.791412       -21.5354
   4   2.0000      -0.612765       -16.6742
   5   2.0000      -0.547507       -14.8984
   6   2.0000      -0.523861       -14.2550
   7   2.0000      -0.437372       -11.9015
   8   2.0000      -0.371074       -10.0974
   9   0.0000       0.094645         2.5754
  10   0.0000       0.123768         3.3679
  11   0.0000       0.153050         4.1647
  12   0.0000       0.186431         5.0731
  13   0.0000       0.191891         5.2216

MULLIKEN ATOMIC CHARGES
-----------------------
   0 C :    0.010545
   1 O :   -0.001144
   2 H :   -0.000187
   3 H :    0.000285
   4 H :   -0.005121
   5 H :   -0.004363
   6 C :   -0.164807
   7 O :   -0.472358
   8 H :    0.312248
   9 H :    0.113295
  10 H :    0.108682
  11 H :    0.102924
Sum of atomic charges:   -0.0000000

LOEWDIN ATOMIC CHARGES
----------------------
   0 C :   -0.026361
   1 O :   -0.000803
   2 H :   -0.000127
   3 H :   -0.000218
   4 H :   -0.006086
   5 H :   -0.008360
   6 C :   -0.389848
   7 O :   -0.055081
   8 H :    0.184601
   9 H :    0.117044
  10 H :    0.084842
  11 H :    0.100397

  Mayer bond orders larger than 0.1
B(  6-C ,  7-O ) :   0.9885 B(  6-C ,  9-H ) :   0.9783 B(  6-C , 10-H ) :   0.9863
B(  6-C , 11-H ) :   0.9696 B(  7-O ,  8-H ) :   0.8964

Dispersion correction           -0.000210411
FINAL SINGLE POINT ENERGY      -115.732345755394

DIPOLE MOMENT
-------------
                                X             Y             Z
Electronic contribution:     -0.54771      -0.61366      -1.56561
Nuclear contribution   :      0.53296       0.30263       2.20197
                        -----------------------------------------
Total Dipole Moment    :     -0.01475      -0.31103       0.63636
                        -----------------------------------------
Magnitude (a.u.)       :      0.70845
Magnitude (Debye)      :      1.80075

Rotational constants in cm-1:     4.171378     0.862717     0.821528
Rotational constants in MHz : 125054.766551 25863.607259 24628.780283

                             ****ORCA TERMINATED NORMALLY****
TOTAL RUN TIME: 0 days 0 hours 5 minutes 38 seconds 642 msec
