                         Program Version 4.1.2  - RELEASE  -
|  1> #Run DFT-D3 single point of the dimer
|  2> ! wB97X-D3 def2-TZVP TIGHTSCF CHELPG PMODEL PAL8
|  3>
|  4> %base "18-152_DFT_AB"
|  5>
|  6> %scf
|  7> MaxIter 1000
|  8> end
|  9>
| 10> * xyz 0 1
| 11>   C                      3.597850             6.703226             -5.244786
| 12>   O                      2.615310             6.600177             -6.234061
| 13>   H                      2.499694             5.656015             -6.206154
| 14>   H                      4.143364             7.589967             -5.452045
| 15>   H                      3.049037             6.789531             -4.301434
| 16>   H                      4.181735             5.813878             -5.175378
| 17>   C                      2.837346             2.913917             -6.106676
| 18>   O                      1.786846             3.860540             -6.142830
| 19>   H                      1.204440             3.769959             -6.903453
| 20>   H                      3.319303             2.733692             -7.068589
| 21>   H                      3.660161             3.286006             -5.438717
| 22>   H                      2.431404             1.980087             -5.759508
| 23> *
| 24>
| 25> #Run DFT-D3 single point of the molecule with dimer basis set
| 26> $new_job
| 27> %base "18-152_DFT_A"
| 28> ! wB97X-D3 def2-TZVP TIGHTSCF CHELPG PMODEL
| 29>
| 30> %scf
| 31> MaxIter 1000
| 32> end
| 33>
| 34> * xyz 0 1
| 35>   C                      3.597850             6.703226             -5.244786
| 36>   O                      2.615310             6.600177             -6.234061
| 37>   H                      2.499694             5.656015             -6.206154
| 38>   H                      4.143364             7.589967             -5.452045
| 39>   H                      3.049037             6.789531             -4.301434
| 40>   H                      4.181735             5.813878             -5.175378
| 41>   C                    : 2.837346             2.913917             -6.106676
| 42>   O                    : 1.786846             3.860540             -6.142830
| 43>   H                    : 1.204440             3.769959             -6.903453
| 44>   H                    : 3.319303             2.733692             -7.068589
| 45>   H                    : 3.660161             3.286006             -5.438717
| 46>   H                    : 2.431404             1.980087             -5.759508
| 47> *
| 48>
| 49> #Run DFT-D3 single point of the particle with dimer basis set
| 50> $new_job
| 51> %base "18-152_DFT_B"
| 52> ! wB97X-D3 def2-TZVP TIGHTSCF CHELPG PMODEL
| 53>
| 54> %scf
| 55> MaxIter 1000
| 56> end
| 57>
| 58> * xyz 0 1
| 59>   C                    : 3.597850             6.703226             -5.244786
| 60>   O                    : 2.615310             6.600177             -6.234061
| 61>   H                    : 2.499694             5.656015             -6.206154
| 62>   H                    : 4.143364             7.589967             -5.452045
| 63>   H                    : 3.049037             6.789531             -4.301434
| 64>   H                    : 4.181735             5.813878             -5.175378
| 65>   C                      2.837346             2.913917             -6.106676
| 66>   O                      1.786846             3.860540             -6.142830
| 67>   H                      1.204440             3.769959             -6.903453
| 68>   H                      3.319303             2.733692             -7.068589
| 69>   H                      3.660161             3.286006             -5.438717
| 70>   H                      2.431404             1.980087             -5.759508
| 71> *
| 72>
| 73>                          ****END OF INPUT****
 Total Charge           Charge          ....    0
 Multiplicity           Mult            ....    1
 Number of Electrons    NEL             ....   36
Dispersion correction           -0.001978723
FINAL SINGLE POINT ENERGY      -231.471915096757
Dispersion correction           -0.000183756
FINAL SINGLE POINT ENERGY      -115.728984056543

CARTESIAN COORDINATES (ANGSTROEM)
---------------------------------
  C      3.597850    6.703226   -5.244786
  O      2.615310    6.600177   -6.234061
  H      2.499694    5.656015   -6.206154
  H      4.143364    7.589967   -5.452045
  H      3.049037    6.789531   -4.301434
  H      4.181735    5.813878   -5.175378
  C      2.837346    2.913917   -6.106676
  O      1.786846    3.860540   -6.142830
  H      1.204440    3.769959   -6.903453
  H      3.319303    2.733692   -7.068589
  H      3.660161    3.286006   -5.438717
  H      2.431404    1.980087   -5.759508

 Multiplicity           Mult            ....    1
 Number of Electrons    NEL             ....   18
 Basis Dimension        Dim             ....  172

ORBITAL ENERGIES
----------------

  NO   OCC          E(Eh)            E(eV)
   0   2.0000     -19.228037      -523.2215
   1   2.0000     -10.314115      -280.6613
   2   2.0000      -1.131600       -30.7924
   3   2.0000      -0.797106       -21.6903
   4   2.0000      -0.612527       -16.6677
   5   2.0000      -0.546131       -14.8610
   6   2.0000      -0.521595       -14.1933
   7   2.0000      -0.426036       -11.5930
   8   2.0000      -0.373223       -10.1559
   9   0.0000       0.098991         2.6937
  10   0.0000       0.126177         3.4335
  11   0.0000       0.151398         4.1197
  12   0.0000       0.189790         5.1644
  13   0.0000       0.203751         5.5443

MULLIKEN ATOMIC CHARGES
-----------------------
   0 C :    0.005614
   1 O :    0.000507
   2 H :   -0.017353
   3 H :   -0.000050
   4 H :   -0.000974
   5 H :   -0.001084
   6 C :   -0.151944
   7 O :   -0.481905
   8 H :    0.317282
   9 H :    0.102455
  10 H :    0.122392
  11 H :    0.105060
Sum of atomic charges:   -0.0000000

LOEWDIN ATOMIC CHARGES
----------------------
   0 C :   -0.003423
   1 O :   -0.006897
   2 H :   -0.046271
   3 H :   -0.000042
   4 H :   -0.000207
   5 H :   -0.001830
   6 C :   -0.378316
   7 O :   -0.035814
   8 H :    0.168672
   9 H :    0.093605
  10 H :    0.117465
  11 H :    0.093057

  Mayer bond orders larger than 0.1
B(  6-C ,  7-O ) :   0.9761 B(  6-C ,  9-H ) :   0.9749 B(  6-C , 10-H ) :   0.9748
B(  6-C , 11-H ) :   0.9772 B(  7-O ,  8-H ) :   0.8922

Dispersion correction           -0.000253881
FINAL SINGLE POINT ENERGY      -115.734935787460

DIPOLE MOMENT
-------------
                                X             Y             Z
Electronic contribution:     -1.30275       1.21662       0.04925
Nuclear contribution   :      1.35893      -1.67325      -0.54199
                        -----------------------------------------
Total Dipole Moment    :      0.05619      -0.45662      -0.49273
                        -----------------------------------------
Magnitude (a.u.)       :      0.67413
Magnitude (Debye)      :      1.71350

Rotational constants in cm-1:     4.351559     0.822539     0.795060
Rotational constants in MHz : 130456.457293 24659.099202 23835.297306

                             ****ORCA TERMINATED NORMALLY****
TOTAL RUN TIME: 0 days 0 hours 1 minutes 1 seconds 136 msec
