                         Program Version 4.1.2  - RELEASE  -
|  1> #Run DFT-D3 single point of the dimer
|  2> ! wB97X-D3 def2-TZVP TIGHTSCF CHELPG PMODEL PAL8
|  3>
|  4> %base "1-170_DFT_AB"
|  5>
|  6> %scf
|  7> MaxIter 1000
|  8> end
|  9>
| 10> * xyz 0 1
| 11>   C                      -5.817098            5.117289             0.959725
| 12>   O                      -5.056655            4.313537             0.051820
| 13>   H                      -5.327587            3.399154             0.011948
| 14>   H                      -5.612948            6.226188             0.834569
| 15>   H                      -6.906491            4.974172             0.815594
| 16>   H                      -5.504647            4.884335             1.969630
| 17>   C                      -4.456996            0.447814             1.796925
| 18>   O                      -5.569938            -0.318385            1.474427
| 19>   H                      -6.363090            0.011979             1.965334
| 20>   H                      -3.835423            -0.019642            2.556356
| 21>   H                      -3.690699            0.690469             1.045345
| 22>   H                      -4.801970            1.393680             2.209254
| 23> *
| 24>
| 25> #Run DFT-D3 single point of the molecule with dimer basis set
| 26> $new_job
| 27> %base "1-170_DFT_A"
| 28> ! wB97X-D3 def2-TZVP TIGHTSCF CHELPG PMODEL
| 29>
| 30> %scf
| 31> MaxIter 1000
| 32> end
| 33>
| 34> * xyz 0 1
| 35>   C                      -5.817098            5.117289             0.959725
| 36>   O                      -5.056655            4.313537             0.051820
| 37>   H                      -5.327587            3.399154             0.011948
| 38>   H                      -5.612948            6.226188             0.834569
| 39>   H                      -6.906491            4.974172             0.815594
| 40>   H                      -5.504647            4.884335             1.969630
| 41>   C                    : -4.456996            0.447814             1.796925
| 42>   O                    : -5.569938            -0.318385            1.474427
| 43>   H                    : -6.363090            0.011979             1.965334
| 44>   H                    : -3.835423            -0.019642            2.556356
| 45>   H                    : -3.690699            0.690469             1.045345
| 46>   H                    : -4.801970            1.393680             2.209254
| 47> *
| 48>
| 49> #Run DFT-D3 single point of the particle with dimer basis set
| 50> $new_job
| 51> %base "1-170_DFT_B"
| 52> ! wB97X-D3 def2-TZVP TIGHTSCF CHELPG PMODEL
| 53>
| 54> %scf
| 55> MaxIter 1000
| 56> end
| 57>
| 58> * xyz 0 1
| 59>   C                    : -5.817098            5.117289             0.959725
| 60>   O                    : -5.056655            4.313537             0.051820
| 61>   H                    : -5.327587            3.399154             0.011948
| 62>   H                    : -5.612948            6.226188             0.834569
| 63>   H                    : -6.906491            4.974172             0.815594
| 64>   H                    : -5.504647            4.884335             1.969630
| 65>   C                      -4.456996            0.447814             1.796925
| 66>   O                      -5.569938            -0.318385            1.474427
| 67>   H                      -6.363090            0.011979             1.965334
| 68>   H                      -3.835423            -0.019642            2.556356
| 69>   H                      -3.690699            0.690469             1.045345
| 70>   H                      -4.801970            1.393680             2.209254
| 71> *
| 72>
| 73>                          ****END OF INPUT****
 Total Charge           Charge          ....    0
 Multiplicity           Mult            ....    1
 Number of Electrons    NEL             ....   36
Dispersion correction           -0.001200463
FINAL SINGLE POINT ENERGY      -231.462393316558
Dispersion correction           -0.000265335
FINAL SINGLE POINT ENERGY      -115.733262645622

CARTESIAN COORDINATES (ANGSTROEM)
---------------------------------
  C     -5.817098    5.117289    0.959725
  O     -5.056655    4.313537    0.051820
  H     -5.327587    3.399154    0.011948
  H     -5.612948    6.226188    0.834569
  H     -6.906491    4.974172    0.815594
  H     -5.504647    4.884335    1.969630
  C     -4.456996    0.447814    1.796925
  O     -5.569938   -0.318385    1.474427
  H     -6.363090    0.011979    1.965334
  H     -3.835423   -0.019642    2.556356
  H     -3.690699    0.690469    1.045345
  H     -4.801970    1.393680    2.209254

 Multiplicity           Mult            ....    1
 Number of Electrons    NEL             ....   18
 Basis Dimension        Dim             ....  172

ORBITAL ENERGIES
----------------

  NO   OCC          E(Eh)            E(eV)
   0   2.0000     -19.233733      -523.3765
   1   2.0000     -10.310896      -280.5737
   2   2.0000      -1.138667       -30.9847
   3   2.0000      -0.795109       -21.6360
   4   2.0000      -0.615730       -16.7549
   5   2.0000      -0.544611       -14.8196
   6   2.0000      -0.532139       -14.4802
   7   2.0000      -0.424666       -11.5558
   8   2.0000      -0.369935       -10.0665
   9   0.0000       0.079666         2.1678
  10   0.0000       0.113201         3.0804
  11   0.0000       0.145530         3.9601
  12   0.0000       0.169001         4.5988
  13   0.0000       0.185884         5.0582

MULLIKEN ATOMIC CHARGES
-----------------------
   0 C :   -0.000113
   1 O :   -0.000193
   2 H :    0.000637
   3 H :    0.000001
   4 H :   -0.000024
   5 H :   -0.000201
   6 C :   -0.162368
   7 O :   -0.477995
   8 H :    0.327066
   9 H :    0.101209
  10 H :    0.114296
  11 H :    0.097684
Sum of atomic charges:   -0.0000000

LOEWDIN ATOMIC CHARGES
----------------------
   0 C :   -0.000307
   1 O :   -0.000137
   2 H :   -0.000692
   3 H :   -0.000001
   4 H :   -0.000004
   5 H :   -0.000204
   6 C :   -0.411641
   7 O :   -0.072919
   8 H :    0.192756
   9 H :    0.092911
  10 H :    0.105495
  11 H :    0.094744

  Mayer bond orders larger than 0.1
B(  6-C ,  7-O ) :   1.0077 B(  6-C ,  9-H ) :   0.9766 B(  6-C , 10-H ) :   0.9703
B(  6-C , 11-H ) :   0.9945 B(  7-O ,  8-H ) :   0.8880

Dispersion correction           -0.000247700
FINAL SINGLE POINT ENERGY      -115.728305788521

DIPOLE MOMENT
-------------
                                X             Y             Z
Electronic contribution:     -1.45224      -1.14289      -0.64180
Nuclear contribution   :      1.36964       1.66380       1.08434
                        -----------------------------------------
Total Dipole Moment    :     -0.08260       0.52092       0.44254
                        -----------------------------------------
Magnitude (a.u.)       :      0.68849
Magnitude (Debye)      :      1.75000

Rotational constants in cm-1:     4.495412     0.841639     0.805651
Rotational constants in MHz : 134769.060653 25231.698170 24152.798914

                             ****ORCA TERMINATED NORMALLY****
TOTAL RUN TIME: 0 days 0 hours 6 minutes 2 seconds 789 msec
