                         Program Version 4.1.2  - RELEASE  -
|  1> #Run DFT-D3 single point of the dimer
|  2> ! wB97X-D3 def2-TZVP TIGHTSCF CHELPG PMODEL PAL8
|  3>
|  4> %base "6-122_DFT_AB"
|  5>
|  6> %scf
|  7> MaxIter 1000
|  8> end
|  9>
| 10> * xyz 0 1
| 11>   C                      5.879639             -10.134655           8.163486
| 12>   O                      6.731348             -11.197481           7.728478
| 13>   H                      7.466987             -11.314617           8.333572
| 14>   H                      6.293788             -9.442741            8.936087
| 15>   H                      5.491829             -9.493054            7.369688
| 16>   H                      5.034971             -10.576800           8.674869
| 17>   C                      7.921592             -9.643380            5.268875
| 18>   O                      8.729613             -8.573952            4.837167
| 19>   H                      8.174072             -7.825036            4.434077
| 20>   H                      8.433361             -10.193491           6.014222
| 21>   H                      6.942352             -9.413133            5.582032
| 22>   H                      7.760987             -10.375064           4.441845
| 23> *
| 24>
| 25> #Run DFT-D3 single point of the molecule with dimer basis set
| 26> $new_job
| 27> %base "6-122_DFT_A"
| 28> ! wB97X-D3 def2-TZVP TIGHTSCF CHELPG PMODEL
| 29>
| 30> %scf
| 31> MaxIter 1000
| 32> end
| 33>
| 34> * xyz 0 1
| 35>   C                      5.879639             -10.134655           8.163486
| 36>   O                      6.731348             -11.197481           7.728478
| 37>   H                      7.466987             -11.314617           8.333572
| 38>   H                      6.293788             -9.442741            8.936087
| 39>   H                      5.491829             -9.493054            7.369688
| 40>   H                      5.034971             -10.576800           8.674869
| 41>   C                    : 7.921592             -9.643380            5.268875
| 42>   O                    : 8.729613             -8.573952            4.837167
| 43>   H                    : 8.174072             -7.825036            4.434077
| 44>   H                    : 8.433361             -10.193491           6.014222
| 45>   H                    : 6.942352             -9.413133            5.582032
| 46>   H                    : 7.760987             -10.375064           4.441845
| 47> *
| 48>
| 49> #Run DFT-D3 single point of the particle with dimer basis set
| 50> $new_job
| 51> %base "6-122_DFT_B"
| 52> ! wB97X-D3 def2-TZVP TIGHTSCF CHELPG PMODEL
| 53>
| 54> %scf
| 55> MaxIter 1000
| 56> end
| 57>
| 58> * xyz 0 1
| 59>   C                    : 5.879639             -10.134655           8.163486
| 60>   O                    : 6.731348             -11.197481           7.728478
| 61>   H                    : 7.466987             -11.314617           8.333572
| 62>   H                    : 6.293788             -9.442741            8.936087
| 63>   H                    : 5.491829             -9.493054            7.369688
| 64>   H                    : 5.034971             -10.576800           8.674869
| 65>   C                      7.921592             -9.643380            5.268875
| 66>   O                      8.729613             -8.573952            4.837167
| 67>   H                      8.174072             -7.825036            4.434077
| 68>   H                      8.433361             -10.193491           6.014222
| 69>   H                      6.942352             -9.413133            5.582032
| 70>   H                      7.760987             -10.375064           4.441845
| 71> *
| 72>
| 73>                          ****END OF INPUT****
 Total Charge           Charge          ....    0
 Multiplicity           Mult            ....    1
 Number of Electrons    NEL             ....   36
Dispersion correction           -0.002019960
FINAL SINGLE POINT ENERGY      -231.463806439840
Dispersion correction           -0.000272488
FINAL SINGLE POINT ENERGY      -115.732918493413

CARTESIAN COORDINATES (ANGSTROEM)
---------------------------------
  C      5.879639  -10.134655    8.163486
  O      6.731348  -11.197481    7.728478
  H      7.466987  -11.314617    8.333572
  H      6.293788   -9.442741    8.936087
  H      5.491829   -9.493054    7.369688
  H      5.034971  -10.576800    8.674869
  C      7.921592   -9.643380    5.268875
  O      8.729613   -8.573952    4.837167
  H      8.174072   -7.825036    4.434077
  H      8.433361  -10.193491    6.014222
  H      6.942352   -9.413133    5.582032
  H      7.760987  -10.375064    4.441845

 Multiplicity           Mult            ....    1
 Number of Electrons    NEL             ....   18
 Basis Dimension        Dim             ....  172

ORBITAL ENERGIES
----------------

  NO   OCC          E(Eh)            E(eV)
   0   2.0000     -19.234659      -523.4017
   1   2.0000     -10.306092      -280.4430
   2   2.0000      -1.126076       -30.6421
   3   2.0000      -0.797819       -21.7098
   4   2.0000      -0.612709       -16.6727
   5   2.0000      -0.532779       -14.4977
   6   2.0000      -0.529742       -14.4150
   7   2.0000      -0.436207       -11.8698
   8   2.0000      -0.367869       -10.0102
   9   0.0000       0.084634         2.3030
  10   0.0000       0.109873         2.9898
  11   0.0000       0.152164         4.1406
  12   0.0000       0.167648         4.5619
  13   0.0000       0.186278         5.0689

MULLIKEN ATOMIC CHARGES
-----------------------
   0 C :   -0.000828
   1 O :   -0.001890
   2 H :   -0.000309
   3 H :    0.000065
   4 H :   -0.000080
   5 H :   -0.000018
   6 C :   -0.139963
   7 O :   -0.483406
   8 H :    0.319136
   9 H :    0.117383
  10 H :    0.100739
  11 H :    0.089171
Sum of atomic charges:    0.0000000

LOEWDIN ATOMIC CHARGES
----------------------
   0 C :   -0.008698
   1 O :   -0.005194
   2 H :   -0.001506
   3 H :   -0.000154
   4 H :   -0.004815
   5 H :   -0.000074
   6 C :   -0.380270
   7 O :   -0.093093
   8 H :    0.200076
   9 H :    0.103174
  10 H :    0.091453
  11 H :    0.099100

  Mayer bond orders larger than 0.1
B(  6-C ,  7-O ) :   1.0112 B(  6-C ,  9-H ) :   0.9771 B(  6-C , 10-H ) :   0.9758
B(  6-C , 11-H ) :   0.9731 B(  7-O ,  8-H ) :   0.8883

Dispersion correction           -0.000257863
FINAL SINGLE POINT ENERGY      -115.730113778271

DIPOLE MOMENT
-------------
                                X             Y             Z
Electronic contribution:      1.13841       1.42721      -0.37598
Nuclear contribution   :     -1.81593      -1.36744       0.31121
                        -----------------------------------------
Total Dipole Moment    :     -0.67752       0.05976      -0.06477
                        -----------------------------------------
Magnitude (a.u.)       :      0.68323
Magnitude (Debye)      :      1.73662

Rotational constants in cm-1:     4.436889     0.828938     0.795010
Rotational constants in MHz : 133014.599993 24850.934765 23833.786623

                             ****ORCA TERMINATED NORMALLY****
TOTAL RUN TIME: 0 days 0 hours 1 minutes 5 seconds 903 msec
