                         Program Version 4.1.2  - RELEASE  -
|  1> #Run DFT-D3 single point of the dimer
|  2> ! wB97X-D3 def2-TZVP TIGHTSCF CHELPG PMODEL PAL8
|  3>
|  4> %base "13-84_DFT_AB"
|  5>
|  6> %scf
|  7> MaxIter 1000
|  8> end
|  9>
| 10> * xyz 0 1
| 11>   C                      -2.473489            2.754382             -3.587635
| 12>   O                      -2.443331            4.137999             -3.468418
| 13>   H                      -2.406738            4.647574             -4.288539
| 14>   H                      -1.822514            2.438176             -4.417710
| 15>   H                      -2.095098            2.370439             -2.644488
| 16>   H                      -3.458589            2.327411             -3.868728
| 17>   C                      -4.337666            0.501851             -1.889345
| 18>   O                      -5.619004            0.650676             -2.483384
| 19>   H                      -5.565727            1.294701             -3.176303
| 20>   H                      -4.456316            -0.139989            -0.980967
| 21>   H                      -3.606435            -0.028678            -2.449864
| 22>   H                      -3.910458            1.414120             -1.539723
| 23> *
| 24>
| 25> #Run DFT-D3 single point of the molecule with dimer basis set
| 26> $new_job
| 27> %base "13-84_DFT_A"
| 28> ! wB97X-D3 def2-TZVP TIGHTSCF CHELPG PMODEL
| 29>
| 30> %scf
| 31> MaxIter 1000
| 32> end
| 33>
| 34> * xyz 0 1
| 35>   C                      -2.473489            2.754382             -3.587635
| 36>   O                      -2.443331            4.137999             -3.468418
| 37>   H                      -2.406738            4.647574             -4.288539
| 38>   H                      -1.822514            2.438176             -4.417710
| 39>   H                      -2.095098            2.370439             -2.644488
| 40>   H                      -3.458589            2.327411             -3.868728
| 41>   C                    : -4.337666            0.501851             -1.889345
| 42>   O                    : -5.619004            0.650676             -2.483384
| 43>   H                    : -5.565727            1.294701             -3.176303
| 44>   H                    : -4.456316            -0.139989            -0.980967
| 45>   H                    : -3.606435            -0.028678            -2.449864
| 46>   H                    : -3.910458            1.414120             -1.539723
| 47> *
| 48>
| 49> #Run DFT-D3 single point of the particle with dimer basis set
| 50> $new_job
| 51> %base "13-84_DFT_B"
| 52> ! wB97X-D3 def2-TZVP TIGHTSCF CHELPG PMODEL
| 53>
| 54> %scf
| 55> MaxIter 1000
| 56> end
| 57>
| 58> * xyz 0 1
| 59>   C                    : -2.473489            2.754382             -3.587635
| 60>   O                    : -2.443331            4.137999             -3.468418
| 61>   H                    : -2.406738            4.647574             -4.288539
| 62>   H                    : -1.822514            2.438176             -4.417710
| 63>   H                    : -2.095098            2.370439             -2.644488
| 64>   H                    : -3.458589            2.327411             -3.868728
| 65>   C                      -4.337666            0.501851             -1.889345
| 66>   O                      -5.619004            0.650676             -2.483384
| 67>   H                      -5.565727            1.294701             -3.176303
| 68>   H                      -4.456316            -0.139989            -0.980967
| 69>   H                      -3.606435            -0.028678            -2.449864
| 70>   H                      -3.910458            1.414120             -1.539723
| 71> *
| 72>
| 73>                          ****END OF INPUT****
 Total Charge           Charge          ....    0
 Multiplicity           Mult            ....    1
 Number of Electrons    NEL             ....   36
Dispersion correction           -0.001934992
FINAL SINGLE POINT ENERGY      -231.467547011382
Dispersion correction           -0.000251151
FINAL SINGLE POINT ENERGY      -115.733476545129

CARTESIAN COORDINATES (ANGSTROEM)
---------------------------------
  C     -2.473489    2.754382   -3.587635
  O     -2.443331    4.137999   -3.468418
  H     -2.406738    4.647574   -4.288539
  H     -1.822514    2.438176   -4.417710
  H     -2.095098    2.370439   -2.644488
  H     -3.458589    2.327411   -3.868728
  C     -4.337666    0.501851   -1.889345
  O     -5.619004    0.650676   -2.483384
  H     -5.565727    1.294701   -3.176303
  H     -4.456316   -0.139989   -0.980967
  H     -3.606435   -0.028678   -2.449864
  H     -3.910458    1.414120   -1.539723

 Multiplicity           Mult            ....    1
 Number of Electrons    NEL             ....   18
 Basis Dimension        Dim             ....  172

ORBITAL ENERGIES
----------------

  NO   OCC          E(Eh)            E(eV)
   0   2.0000     -19.231553      -523.3172
   1   2.0000     -10.309567      -280.5376
   2   2.0000      -1.136787       -30.9335
   3   2.0000      -0.802027       -21.8243
   4   2.0000      -0.615033       -16.7359
   5   2.0000      -0.546099       -14.8601
   6   2.0000      -0.520818       -14.1722
   7   2.0000      -0.432169       -11.7599
   8   2.0000      -0.378633       -10.3031
   9   0.0000       0.077215         2.1011
  10   0.0000       0.127461         3.4684
  11   0.0000       0.144877         3.9423
  12   0.0000       0.173138         4.7113
  13   0.0000       0.185575         5.0497

MULLIKEN ATOMIC CHARGES
-----------------------
   0 C :    0.001451
   1 O :   -0.000201
   2 H :   -0.000009
   3 H :    0.000045
   4 H :   -0.004049
   5 H :   -0.001680
   6 C :   -0.162081
   7 O :   -0.469702
   8 H :    0.311338
   9 H :    0.116836
  10 H :    0.103741
  11 H :    0.104310
Sum of atomic charges:   -0.0000000

LOEWDIN ATOMIC CHARGES
----------------------
   0 C :   -0.012097
   1 O :   -0.000030
   2 H :   -0.000012
   3 H :   -0.000095
   4 H :   -0.005196
   5 H :   -0.004838
   6 C :   -0.370439
   7 O :   -0.067662
   8 H :    0.158953
   9 H :    0.116370
  10 H :    0.090215
  11 H :    0.094830

  Mayer bond orders larger than 0.1
B(  6-C ,  7-O ) :   1.0046 B(  6-C ,  9-H ) :   0.9735 B(  6-C , 10-H ) :   0.9735
B(  6-C , 11-H ) :   0.9791 B(  7-O ,  8-H ) :   0.9062

Dispersion correction           -0.000255911
FINAL SINGLE POINT ENERGY      -115.734272572994

DIPOLE MOMENT
-------------
                                X             Y             Z
Electronic contribution:     -1.68656       0.19179      -0.82119
Nuclear contribution   :      2.23713       0.15891       0.62553
                        -----------------------------------------
Total Dipole Moment    :      0.55058       0.35070      -0.19566
                        -----------------------------------------
Magnitude (a.u.)       :      0.68148
Magnitude (Debye)      :      1.73217

Rotational constants in cm-1:     4.516718     0.818579     0.790199
Rotational constants in MHz : 135407.792591 24540.388119 23689.576756

                             ****ORCA TERMINATED NORMALLY****
TOTAL RUN TIME: 0 days 0 hours 1 minutes 5 seconds 640 msec
