                         Program Version 4.1.2  - RELEASE  -
|  1> #Run DFT-D3 single point of the dimer
|  2> ! wB97X-D3 def2-TZVP TIGHTSCF CHELPG PMODEL PAL8
|  3>
|  4> %base "20-4_DFT_AB"
|  5>
|  6> %scf
|  7> MaxIter 1000
|  8> end
|  9>
| 10> * xyz 0 1
| 11>   C                      -4.029221            8.344015             5.610913
| 12>   O                      -2.999871            7.977746             4.667712
| 13>   H                      -3.310125            8.320182             3.789893
| 14>   H                      -3.622109            8.473960             6.626864
| 15>   H                      -4.597087            9.250479             5.314208
| 16>   H                      -4.851451            7.575020             5.727861
| 17>   C                      -9.402311            7.959093             7.014368
| 18>   O                      -8.923783            7.908151             8.427865
| 19>   H                      -9.377012            8.564968             8.937901
| 20>   H                      -8.904831            7.197859             6.374025
| 21>   H                      -10.457614           7.716346             7.042583
| 22>   H                      -9.255336            8.975391             6.596974
| 23> *
| 24>
| 25> #Run DFT-D3 single point of the molecule with dimer basis set
| 26> $new_job
| 27> %base "20-4_DFT_A"
| 28> ! wB97X-D3 def2-TZVP TIGHTSCF CHELPG PMODEL
| 29>
| 30> %scf
| 31> MaxIter 1000
| 32> end
| 33>
| 34> * xyz 0 1
| 35>   C                      -4.029221            8.344015             5.610913
| 36>   O                      -2.999871            7.977746             4.667712
| 37>   H                      -3.310125            8.320182             3.789893
| 38>   H                      -3.622109            8.473960             6.626864
| 39>   H                      -4.597087            9.250479             5.314208
| 40>   H                      -4.851451            7.575020             5.727861
| 41>   C                    : -9.402311            7.959093             7.014368
| 42>   O                    : -8.923783            7.908151             8.427865
| 43>   H                    : -9.377012            8.564968             8.937901
| 44>   H                    : -8.904831            7.197859             6.374025
| 45>   H                    : -10.457614           7.716346             7.042583
| 46>   H                    : -9.255336            8.975391             6.596974
| 47> *
| 48>
| 49> #Run DFT-D3 single point of the particle with dimer basis set
| 50> $new_job
| 51> %base "20-4_DFT_B"
| 52> ! wB97X-D3 def2-TZVP TIGHTSCF CHELPG PMODEL
| 53>
| 54> %scf
| 55> MaxIter 1000
| 56> end
| 57>
| 58> * xyz 0 1
| 59>   C                    : -4.029221            8.344015             5.610913
| 60>   O                    : -2.999871            7.977746             4.667712
| 61>   H                    : -3.310125            8.320182             3.789893
| 62>   H                    : -3.622109            8.473960             6.626864
| 63>   H                    : -4.597087            9.250479             5.314208
| 64>   H                    : -4.851451            7.575020             5.727861
| 65>   C                      -9.402311            7.959093             7.014368
| 66>   O                      -8.923783            7.908151             8.427865
| 67>   H                      -9.377012            8.564968             8.937901
| 68>   H                      -8.904831            7.197859             6.374025
| 69>   H                      -10.457614           7.716346             7.042583
| 70>   H                      -9.255336            8.975391             6.596974
| 71> *
| 72>
| 73>                          ****END OF INPUT****
 Total Charge           Charge          ....    0
 Multiplicity           Mult            ....    1
 Number of Electrons    NEL             ....   36
Dispersion correction           -0.000714140
FINAL SINGLE POINT ENERGY      -231.463645052005
Dispersion correction           -0.000277109
FINAL SINGLE POINT ENERGY      -115.732066064224

CARTESIAN COORDINATES (ANGSTROEM)
---------------------------------
  C     -4.029221    8.344015    5.610913
  O     -2.999871    7.977746    4.667712
  H     -3.310125    8.320182    3.789893
  H     -3.622109    8.473960    6.626864
  H     -4.597087    9.250479    5.314208
  H     -4.851451    7.575020    5.727861
  C     -9.402311    7.959093    7.014368
  O     -8.923783    7.908151    8.427865
  H     -9.377012    8.564968    8.937901
  H     -8.904831    7.197859    6.374025
  H    -10.457614    7.716346    7.042583
  H     -9.255336    8.975391    6.596974

 Multiplicity           Mult            ....    1
 Number of Electrons    NEL             ....   18
 Basis Dimension        Dim             ....  172

ORBITAL ENERGIES
----------------

  NO   OCC          E(Eh)            E(eV)
   0   2.0000     -19.224970      -523.1380
   1   2.0000     -10.323520      -280.9173
   2   2.0000      -1.114122       -30.3168
   3   2.0000      -0.797615       -21.7042
   4   2.0000      -0.594308       -16.1720
   5   2.0000      -0.537120       -14.6158
   6   2.0000      -0.522298       -14.2125
   7   2.0000      -0.432611       -11.7719
   8   2.0000      -0.374195       -10.1824
   9   0.0000       0.088417         2.4059
  10   0.0000       0.116115         3.1596
  11   0.0000       0.145677         3.9641
  12   0.0000       0.166753         4.5376
  13   0.0000       0.187527         5.1029

MULLIKEN ATOMIC CHARGES
-----------------------
   0 C :   -0.000012
   1 O :    0.000001
   2 H :    0.000000
   3 H :   -0.000001
   4 H :   -0.000007
   5 H :   -0.000010
   6 C :   -0.175175
   7 O :   -0.494576
   8 H :    0.310851
   9 H :    0.128639
  10 H :    0.117324
  11 H :    0.112964
Sum of atomic charges:   -0.0000000

LOEWDIN ATOMIC CHARGES
----------------------
   0 C :   -0.000015
   1 O :   -0.000001
   2 H :   -0.000000
   3 H :   -0.000001
   4 H :   -0.000004
   5 H :   -0.000020
   6 C :   -0.329458
   7 O :   -0.131165
   8 H :    0.151765
   9 H :    0.113351
  10 H :    0.095614
  11 H :    0.099932

  Mayer bond orders larger than 0.1
B(  6-C ,  7-O ) :   0.9795 B(  6-C ,  9-H ) :   0.9697 B(  6-C , 10-H ) :   0.9786
B(  6-C , 11-H ) :   0.9724 B(  7-O ,  8-H ) :   0.9034

Dispersion correction           -0.000267892
FINAL SINGLE POINT ENERGY      -115.731372075784

DIPOLE MOMENT
-------------
                                X             Y             Z
Electronic contribution:      0.69416      -0.17059       1.59409
Nuclear contribution   :     -1.20913       0.60178      -1.90533
                        -----------------------------------------
Total Dipole Moment    :     -0.51497       0.43119      -0.31124
                        -----------------------------------------
Magnitude (a.u.)       :      0.74027
Magnitude (Debye)      :      1.88161

Rotational constants in cm-1:     4.243357     0.760219     0.735644
Rotational constants in MHz : 127212.653266 22790.799082 22054.042680

                             ****ORCA TERMINATED NORMALLY****
TOTAL RUN TIME: 0 days 0 hours 1 minutes 5 seconds 134 msec
