                         Program Version 4.1.2  - RELEASE  -
|  1> #Run DFT-D3 single point of the dimer
|  2> ! wB97X-D3 def2-TZVP TIGHTSCF CHELPG PMODEL PAL8
|  3>
|  4> %base "7-23_DFT_AB"
|  5>
|  6> %scf
|  7> MaxIter 1000
|  8> end
|  9>
| 10> * xyz 0 1
| 11>   C                      -1.043704            -4.234054            3.067058
| 12>   O                      -0.967894            -4.898226            4.364749
| 13>   H                      -1.811567            -5.220936            4.592340
| 14>   H                      -1.580061            -3.307889            3.073810
| 15>   H                      -0.006759            -3.989458            2.723288
| 16>   H                      -1.542091            -4.895781            2.312860
| 17>   C                      -3.442066            -5.748472            -1.650043
| 18>   O                      -4.309298            -6.326566            -2.533591
| 19>   H                      -3.866864            -7.032628            -2.977934
| 20>   H                      -3.811814            -4.730813            -1.380673
| 21>   H                      -3.443193            -6.277069            -0.667152
| 22>   H                      -2.442657            -5.646653            -2.059387
| 23> *
| 24>
| 25> #Run DFT-D3 single point of the molecule with dimer basis set
| 26> $new_job
| 27> %base "7-23_DFT_A"
| 28> ! wB97X-D3 def2-TZVP TIGHTSCF CHELPG PMODEL
| 29>
| 30> %scf
| 31> MaxIter 1000
| 32> end
| 33>
| 34> * xyz 0 1
| 35>   C                      -1.043704            -4.234054            3.067058
| 36>   O                      -0.967894            -4.898226            4.364749
| 37>   H                      -1.811567            -5.220936            4.592340
| 38>   H                      -1.580061            -3.307889            3.073810
| 39>   H                      -0.006759            -3.989458            2.723288
| 40>   H                      -1.542091            -4.895781            2.312860
| 41>   C                    : -3.442066            -5.748472            -1.650043
| 42>   O                    : -4.309298            -6.326566            -2.533591
| 43>   H                    : -3.866864            -7.032628            -2.977934
| 44>   H                    : -3.811814            -4.730813            -1.380673
| 45>   H                    : -3.443193            -6.277069            -0.667152
| 46>   H                    : -2.442657            -5.646653            -2.059387
| 47> *
| 48>
| 49> #Run DFT-D3 single point of the particle with dimer basis set
| 50> $new_job
| 51> %base "7-23_DFT_B"
| 52> ! wB97X-D3 def2-TZVP TIGHTSCF CHELPG PMODEL
| 53>
| 54> %scf
| 55> MaxIter 1000
| 56> end
| 57>
| 58> * xyz 0 1
| 59>   C                    : -1.043704            -4.234054            3.067058
| 60>   O                    : -0.967894            -4.898226            4.364749
| 61>   H                    : -1.811567            -5.220936            4.592340
| 62>   H                    : -1.580061            -3.307889            3.073810
| 63>   H                    : -0.006759            -3.989458            2.723288
| 64>   H                    : -1.542091            -4.895781            2.312860
| 65>   C                      -3.442066            -5.748472            -1.650043
| 66>   O                      -4.309298            -6.326566            -2.533591
| 67>   H                      -3.866864            -7.032628            -2.977934
| 68>   H                      -3.811814            -4.730813            -1.380673
| 69>   H                      -3.443193            -6.277069            -0.667152
| 70>   H                      -2.442657            -5.646653            -2.059387
| 71> *
| 72>
| 73>                          ****END OF INPUT****
 Total Charge           Charge          ....    0
 Multiplicity           Mult            ....    1
 Number of Electrons    NEL             ....   36
Dispersion correction           -0.000680964
FINAL SINGLE POINT ENERGY      -231.467773105646
Dispersion correction           -0.000268682
FINAL SINGLE POINT ENERGY      -115.733395755102

CARTESIAN COORDINATES (ANGSTROEM)
---------------------------------
  C     -1.043704   -4.234054    3.067058
  O     -0.967894   -4.898226    4.364749
  H     -1.811567   -5.220936    4.592340
  H     -1.580061   -3.307889    3.073810
  H     -0.006759   -3.989458    2.723288
  H     -1.542091   -4.895781    2.312860
  C     -3.442066   -5.748472   -1.650043
  O     -4.309298   -6.326566   -2.533591
  H     -3.866864   -7.032628   -2.977934
  H     -3.811814   -4.730813   -1.380673
  H     -3.443193   -6.277069   -0.667152
  H     -2.442657   -5.646653   -2.059387

 Multiplicity           Mult            ....    1
 Number of Electrons    NEL             ....   18
 Basis Dimension        Dim             ....  172

ORBITAL ENERGIES
----------------

  NO   OCC          E(Eh)            E(eV)
   0   2.0000     -19.228657      -523.2383
   1   2.0000     -10.312078      -280.6059
   2   2.0000      -1.154803       -31.4238
   3   2.0000      -0.793160       -21.5830
   4   2.0000      -0.621187       -16.9034
   5   2.0000      -0.548347       -14.9213
   6   2.0000      -0.531843       -14.4722
   7   2.0000      -0.428341       -11.6557
   8   2.0000      -0.370543       -10.0830
   9   0.0000       0.084136         2.2895
  10   0.0000       0.117139         3.1875
  11   0.0000       0.144162         3.9229
  12   0.0000       0.164463         4.4753
  13   0.0000       0.192039         5.2257

MULLIKEN ATOMIC CHARGES
-----------------------
   0 C :    0.000084
   1 O :   -0.000001
   2 H :   -0.000001
   3 H :   -0.000004
   4 H :   -0.000004
   5 H :   -0.000227
   6 C :   -0.153732
   7 O :   -0.458171
   8 H :    0.314643
   9 H :    0.106650
  10 H :    0.090540
  11 H :    0.100223
Sum of atomic charges:   -0.0000000

LOEWDIN ATOMIC CHARGES
----------------------
   0 C :   -0.000020
   1 O :   -0.000001
   2 H :   -0.000000
   3 H :   -0.000001
   4 H :   -0.000000
   5 H :   -0.000177
   6 C :   -0.426347
   7 O :   -0.034157
   8 H :    0.163128
   9 H :    0.110189
  10 H :    0.095520
  11 H :    0.091866

  Mayer bond orders larger than 0.1
B(  6-C ,  7-O ) :   1.0127 B(  6-C ,  9-H ) :   0.9738 B(  6-C , 10-H ) :   0.9753
B(  6-C , 11-H ) :   0.9810 B(  7-O ,  8-H ) :   0.9001

Dispersion correction           -0.000228804
FINAL SINGLE POINT ENERGY      -115.734195452175

DIPOLE MOMENT
-------------
                                X             Y             Z
Electronic contribution:     -1.18055      -0.74180      -1.23515
Nuclear contribution   :      1.78557       0.51069       1.25152
                        -----------------------------------------
Total Dipole Moment    :      0.60502      -0.23111       0.01636
                        -----------------------------------------
Magnitude (a.u.)       :      0.64787
Magnitude (Debye)      :      1.64674

Rotational constants in cm-1:     4.283026     0.874366     0.844206
Rotational constants in MHz : 128401.883350 26212.833591 25308.650512

                             ****ORCA TERMINATED NORMALLY****
TOTAL RUN TIME: 0 days 0 hours 0 minutes 59 seconds 26 msec
