                         Program Version 4.1.2  - RELEASE  -
|  1> #Run DFT-D3 single point of the dimer
|  2> ! wB97X-D3 def2-TZVP TIGHTSCF CHELPG PMODEL PAL8
|  3>
|  4> %base "7-101_DFT_AB"
|  5>
|  6> %scf
|  7> MaxIter 1000
|  8> end
|  9>
| 10> * xyz 0 1
| 11>   C                      9.977652             -2.198286            -7.359169
| 12>   O                      11.412398            -2.219645            -7.354476
| 13>   H                      11.773627            -1.911416            -6.524812
| 14>   H                      9.486885             -2.938841            -6.747138
| 15>   H                      9.553607             -1.262547            -7.091710
| 16>   H                      9.519030             -2.212074            -8.322583
| 17>   C                      6.477050             -3.576868            -7.224558
| 18>   O                      5.819107             -2.728753            -8.097663
| 19>   H                      5.594821             -1.995340            -7.581852
| 20>   H                      7.532426             -3.612706            -7.438917
| 21>   H                      6.424493             -3.209586            -6.191883
| 22>   H                      6.109746             -4.570017            -7.306096
| 23> *
| 24>
| 25> #Run DFT-D3 single point of the molecule with dimer basis set
| 26> $new_job
| 27> %base "7-101_DFT_A"
| 28> ! wB97X-D3 def2-TZVP TIGHTSCF CHELPG PMODEL
| 29>
| 30> %scf
| 31> MaxIter 1000
| 32> end
| 33>
| 34> * xyz 0 1
| 35>   C                      9.977652             -2.198286            -7.359169
| 36>   O                      11.412398            -2.219645            -7.354476
| 37>   H                      11.773627            -1.911416            -6.524812
| 38>   H                      9.486885             -2.938841            -6.747138
| 39>   H                      9.553607             -1.262547            -7.091710
| 40>   H                      9.519030             -2.212074            -8.322583
| 41>   C                    : 6.477050             -3.576868            -7.224558
| 42>   O                    : 5.819107             -2.728753            -8.097663
| 43>   H                    : 5.594821             -1.995340            -7.581852
| 44>   H                    : 7.532426             -3.612706            -7.438917
| 45>   H                    : 6.424493             -3.209586            -6.191883
| 46>   H                    : 6.109746             -4.570017            -7.306096
| 47> *
| 48>
| 49> #Run DFT-D3 single point of the particle with dimer basis set
| 50> $new_job
| 51> %base "7-101_DFT_B"
| 52> ! wB97X-D3 def2-TZVP TIGHTSCF CHELPG PMODEL
| 53>
| 54> %scf
| 55> MaxIter 1000
| 56> end
| 57>
| 58> * xyz 0 1
| 59>   C                    : 9.977652             -2.198286            -7.359169
| 60>   O                    : 11.412398            -2.219645            -7.354476
| 61>   H                    : 11.773627            -1.911416            -6.524812
| 62>   H                    : 9.486885             -2.938841            -6.747138
| 63>   H                    : 9.553607             -1.262547            -7.091710
| 64>   H                    : 9.519030             -2.212074            -8.322583
| 65>   C                      6.477050             -3.576868            -7.224558
| 66>   O                      5.819107             -2.728753            -8.097663
| 67>   H                      5.594821             -1.995340            -7.581852
| 68>   H                      7.532426             -3.612706            -7.438917
| 69>   H                      6.424493             -3.209586            -6.191883
| 70>   H                      6.109746             -4.570017            -7.306096
| 71> *
| 72>
| 73>                          ****END OF INPUT****
 Total Charge           Charge          ....    0
 Multiplicity           Mult            ....    1
 Number of Electrons    NEL             ....   36
Dispersion correction           -0.001578176
FINAL SINGLE POINT ENERGY      -231.459803072201
Dispersion correction           -0.000275830
FINAL SINGLE POINT ENERGY      -115.727535770141

CARTESIAN COORDINATES (ANGSTROEM)
---------------------------------
  C      9.977652   -2.198286   -7.359169
  O     11.412398   -2.219645   -7.354476
  H     11.773627   -1.911416   -6.524812
  H      9.486885   -2.938841   -6.747138
  H      9.553607   -1.262547   -7.091710
  H      9.519030   -2.212074   -8.322583
  C      6.477050   -3.576868   -7.224558
  O      5.819107   -2.728753   -8.097663
  H      5.594821   -1.995340   -7.581852
  H      7.532426   -3.612706   -7.438917
  H      6.424493   -3.209586   -6.191883
  H      6.109746   -4.570017   -7.306096

 Multiplicity           Mult            ....    1
 Number of Electrons    NEL             ....   18
 Basis Dimension        Dim             ....  172

ORBITAL ENERGIES
----------------

  NO   OCC          E(Eh)            E(eV)
   0   2.0000     -19.226725      -523.1858
   1   2.0000     -10.305025      -280.4140
   2   2.0000      -1.155535       -31.4437
   3   2.0000      -0.799329       -21.7508
   4   2.0000      -0.622845       -16.9485
   5   2.0000      -0.546038       -14.8584
   6   2.0000      -0.535701       -14.5772
   7   2.0000      -0.438529       -11.9330
   8   2.0000      -0.372388       -10.1332
   9   0.0000       0.084628         2.3029
  10   0.0000       0.118809         3.2330
  11   0.0000       0.158273         4.3068
  12   0.0000       0.168840         4.5944
  13   0.0000       0.194657         5.2969

MULLIKEN ATOMIC CHARGES
-----------------------
   0 C :    0.005177
   1 O :    0.000191
   2 H :    0.000026
   3 H :   -0.005968
   4 H :   -0.000377
   5 H :    0.001150
   6 C :   -0.176008
   7 O :   -0.450976
   8 H :    0.310039
   9 H :    0.101333
  10 H :    0.099633
  11 H :    0.115779
Sum of atomic charges:    0.0000000

LOEWDIN ATOMIC CHARGES
----------------------
   0 C :   -0.007794
   1 O :   -0.000025
   2 H :   -0.000006
   3 H :   -0.007110
   4 H :   -0.000201
   5 H :   -0.001189
   6 C :   -0.395853
   7 O :   -0.034436
   8 H :    0.151007
   9 H :    0.100197
  10 H :    0.099518
  11 H :    0.095893

  Mayer bond orders larger than 0.1
B(  6-C ,  7-O ) :   1.0172 B(  6-C ,  9-H ) :   0.9754 B(  6-C , 10-H ) :   0.9926
B(  6-C , 11-H ) :   0.9792 B(  7-O ,  8-H ) :   0.9107

Dispersion correction           -0.000216603
FINAL SINGLE POINT ENERGY      -115.732068552135

DIPOLE MOMENT
-------------
                                X             Y             Z
Electronic contribution:     -0.92743       0.99355      -1.27153
Nuclear contribution   :      1.02575      -0.82896       1.94058
                        -----------------------------------------
Total Dipole Moment    :      0.09831       0.16459       0.66906
                        -----------------------------------------
Magnitude (a.u.)       :      0.69598
Magnitude (Debye)      :      1.76905

Rotational constants in cm-1:     4.436788     0.873024     0.835484
Rotational constants in MHz : 133011.555838 26172.601129 25047.179913

                             ****ORCA TERMINATED NORMALLY****
TOTAL RUN TIME: 0 days 0 hours 1 minutes 6 seconds 233 msec
