                         Program Version 4.1.2  - RELEASE  -
|  1> #Run DFT-D3 single point of the dimer
|  2> ! wB97X-D3 def2-TZVP TIGHTSCF CHELPG PMODEL PAL8
|  3>
|  4> %base "18-106_DFT_AB"
|  5>
|  6> %scf
|  7> MaxIter 1000
|  8> end
|  9>
| 10> * xyz 0 1
| 11>   C                      -6.192142            3.316149             -6.809267
| 12>   O                      -7.336972            3.537002             -7.548146
| 13>   H                      -7.789556            2.702504             -7.730848
| 14>   H                      -5.550803            2.508840             -7.203394
| 15>   H                      -5.617500            4.249866             -6.681300
| 16>   H                      -6.487296            3.059654             -5.826811
| 17>   C                      -4.787999            2.505562             -9.731737
| 18>   O                      -5.439751            3.601758             -10.315847
| 19>   H                      -6.206693            3.674236             -9.702092
| 20>   H                      -4.031052            2.001880             -10.360930
| 21>   H                      -4.220860            2.880834             -8.900674
| 22>   H                      -5.459779            1.754007             -9.317213
| 23> *
| 24>
| 25> #Run DFT-D3 single point of the molecule with dimer basis set
| 26> $new_job
| 27> %base "18-106_DFT_A"
| 28> ! wB97X-D3 def2-TZVP TIGHTSCF CHELPG PMODEL
| 29>
| 30> %scf
| 31> MaxIter 1000
| 32> end
| 33>
| 34> * xyz 0 1
| 35>   C                      -6.192142            3.316149             -6.809267
| 36>   O                      -7.336972            3.537002             -7.548146
| 37>   H                      -7.789556            2.702504             -7.730848
| 38>   H                      -5.550803            2.508840             -7.203394
| 39>   H                      -5.617500            4.249866             -6.681300
| 40>   H                      -6.487296            3.059654             -5.826811
| 41>   C                    : -4.787999            2.505562             -9.731737
| 42>   O                    : -5.439751            3.601758             -10.315847
| 43>   H                    : -6.206693            3.674236             -9.702092
| 44>   H                    : -4.031052            2.001880             -10.360930
| 45>   H                    : -4.220860            2.880834             -8.900674
| 46>   H                    : -5.459779            1.754007             -9.317213
| 47> *
| 48>
| 49> #Run DFT-D3 single point of the particle with dimer basis set
| 50> $new_job
| 51> %base "18-106_DFT_B"
| 52> ! wB97X-D3 def2-TZVP TIGHTSCF CHELPG PMODEL
| 53>
| 54> %scf
| 55> MaxIter 1000
| 56> end
| 57>
| 58> * xyz 0 1
| 59>   C                    : -6.192142            3.316149             -6.809267
| 60>   O                    : -7.336972            3.537002             -7.548146
| 61>   H                    : -7.789556            2.702504             -7.730848
| 62>   H                    : -5.550803            2.508840             -7.203394
| 63>   H                    : -5.617500            4.249866             -6.681300
| 64>   H                    : -6.487296            3.059654             -5.826811
| 65>   C                      -4.787999            2.505562             -9.731737
| 66>   O                      -5.439751            3.601758             -10.315847
| 67>   H                      -6.206693            3.674236             -9.702092
| 68>   H                      -4.031052            2.001880             -10.360930
| 69>   H                      -4.220860            2.880834             -8.900674
| 70>   H                      -5.459779            1.754007             -9.317213
| 71> *
| 72>
| 73>                          ****END OF INPUT****
 Total Charge           Charge          ....    0
 Multiplicity           Mult            ....    1
 Number of Electrons    NEL             ....   36
Dispersion correction           -0.002404588
FINAL SINGLE POINT ENERGY      -231.468805881173
Dispersion correction           -0.000224915
FINAL SINGLE POINT ENERGY      -115.734168771231

CARTESIAN COORDINATES (ANGSTROEM)
---------------------------------
  C     -6.192142    3.316149   -6.809267
  O     -7.336972    3.537002   -7.548146
  H     -7.789556    2.702504   -7.730848
  H     -5.550803    2.508840   -7.203394
  H     -5.617500    4.249866   -6.681300
  H     -6.487296    3.059654   -5.826811
  C     -4.787999    2.505562   -9.731737
  O     -5.439751    3.601758  -10.315847
  H     -6.206693    3.674236   -9.702092
  H     -4.031052    2.001880  -10.360930
  H     -4.220860    2.880834   -8.900674
  H     -5.459779    1.754007   -9.317213

 Multiplicity           Mult            ....    1
 Number of Electrons    NEL             ....   18
 Basis Dimension        Dim             ....  172

ORBITAL ENERGIES
----------------

  NO   OCC          E(Eh)            E(eV)
   0   2.0000     -19.236089      -523.4406
   1   2.0000     -10.310633      -280.5666
   2   2.0000      -1.142359       -31.0852
   3   2.0000      -0.791332       -21.5332
   4   2.0000      -0.611556       -16.6413
   5   2.0000      -0.541773       -14.7424
   6   2.0000      -0.530603       -14.4384
   7   2.0000      -0.442855       -12.0507
   8   2.0000      -0.370731       -10.0881
   9   0.0000       0.069362         1.8874
  10   0.0000       0.132956         3.6179
  11   0.0000       0.152984         4.1629
  12   0.0000       0.156331         4.2540
  13   0.0000       0.199309         5.4235

MULLIKEN ATOMIC CHARGES
-----------------------
   0 C :    0.003724
   1 O :    0.000127
   2 H :   -0.000290
   3 H :   -0.009104
   4 H :   -0.000342
   5 H :   -0.000031
   6 C :   -0.193617
   7 O :   -0.455024
   8 H :    0.316131
   9 H :    0.122432
  10 H :    0.108217
  11 H :    0.107778
Sum of atomic charges:   -0.0000000

LOEWDIN ATOMIC CHARGES
----------------------
   0 C :   -0.013466
   1 O :   -0.004613
   2 H :   -0.000939
   3 H :   -0.011211
   4 H :   -0.000524
   5 H :   -0.000090
   6 C :   -0.395511
   7 O :   -0.070975
   8 H :    0.192810
   9 H :    0.109376
  10 H :    0.097136
  11 H :    0.098007

  Mayer bond orders larger than 0.1
B(  6-C ,  7-O ) :   0.9951 B(  6-C ,  9-H ) :   0.9700 B(  6-C , 10-H ) :   0.9846
B(  6-C , 11-H ) :   0.9786 B(  7-O ,  8-H ) :   0.9046

Dispersion correction           -0.000215950
FINAL SINGLE POINT ENERGY      -115.730273568387

DIPOLE MOMENT
-------------
                                X             Y             Z
Electronic contribution:     -0.79840       1.44214      -1.02473
Nuclear contribution   :      0.58824      -1.80927       1.61970
                        -----------------------------------------
Total Dipole Moment    :     -0.21016      -0.36712       0.59496
                        -----------------------------------------
Magnitude (a.u.)       :      0.73002
Magnitude (Debye)      :      1.85556

Rotational constants in cm-1:     4.292984     0.851008     0.809208
Rotational constants in MHz : 128700.428610 25512.579329 24259.440588

                             ****ORCA TERMINATED NORMALLY****
TOTAL RUN TIME: 0 days 0 hours 1 minutes 7 seconds 9 msec
