                         Program Version 4.1.2  - RELEASE  -
|  1> #Run DFT-D3 single point of the dimer
|  2> ! wB97X-D3 def2-TZVP TIGHTSCF CHELPG PMODEL PAL8
|  3>
|  4> %base "10-195_DFT_AB"
|  5>
|  6> %scf
|  7> MaxIter 1000
|  8> end
|  9>
| 10> * xyz 0 1
| 11>   C                      -8.020745            -3.527914            -10.654631
| 12>   O                      -8.474491            -2.329523            -9.997077
| 13>   H                      -8.064790            -2.411890            -9.082494
| 14>   H                      -8.798983            -3.828442            -11.400321
| 15>   H                      -7.035876            -3.412075            -11.068720
| 16>   H                      -8.014309            -4.342159            -9.886195
| 17>   C                      -7.249107            -2.947480            -6.183777
| 18>   O                      -6.735730            -2.493119            -7.412848
| 19>   H                      -6.333320            -1.610433            -7.245291
| 20>   H                      -6.497816            -2.963742            -5.397582
| 21>   H                      -8.049633            -2.287359            -5.901583
| 22>   H                      -7.548377            -3.979484            -6.200580
| 23> *
| 24>
| 25> #Run DFT-D3 single point of the molecule with dimer basis set
| 26> $new_job
| 27> %base "10-195_DFT_A"
| 28> ! wB97X-D3 def2-TZVP TIGHTSCF CHELPG PMODEL
| 29>
| 30> %scf
| 31> MaxIter 1000
| 32> end
| 33>
| 34> * xyz 0 1
| 35>   C                      -8.020745            -3.527914            -10.654631
| 36>   O                      -8.474491            -2.329523            -9.997077
| 37>   H                      -8.064790            -2.411890            -9.082494
| 38>   H                      -8.798983            -3.828442            -11.400321
| 39>   H                      -7.035876            -3.412075            -11.068720
| 40>   H                      -8.014309            -4.342159            -9.886195
| 41>   C                    : -7.249107            -2.947480            -6.183777
| 42>   O                    : -6.735730            -2.493119            -7.412848
| 43>   H                    : -6.333320            -1.610433            -7.245291
| 44>   H                    : -6.497816            -2.963742            -5.397582
| 45>   H                    : -8.049633            -2.287359            -5.901583
| 46>   H                    : -7.548377            -3.979484            -6.200580
| 47> *
| 48>
| 49> #Run DFT-D3 single point of the particle with dimer basis set
| 50> $new_job
| 51> %base "10-195_DFT_B"
| 52> ! wB97X-D3 def2-TZVP TIGHTSCF CHELPG PMODEL
| 53>
| 54> %scf
| 55> MaxIter 1000
| 56> end
| 57>
| 58> * xyz 0 1
| 59>   C                    : -8.020745            -3.527914            -10.654631
| 60>   O                    : -8.474491            -2.329523            -9.997077
| 61>   H                    : -8.064790            -2.411890            -9.082494
| 62>   H                    : -8.798983            -3.828442            -11.400321
| 63>   H                    : -7.035876            -3.412075            -11.068720
| 64>   H                    : -8.014309            -4.342159            -9.886195
| 65>   C                      -7.249107            -2.947480            -6.183777
| 66>   O                      -6.735730            -2.493119            -7.412848
| 67>   H                      -6.333320            -1.610433            -7.245291
| 68>   H                      -6.497816            -2.963742            -5.397582
| 69>   H                      -8.049633            -2.287359            -5.901583
| 70>   H                      -7.548377            -3.979484            -6.200580
| 71> *
| 72>
| 73>                          ****END OF INPUT****
 Total Charge           Charge          ....    0
 Multiplicity           Mult            ....    1
 Number of Electrons    NEL             ....   36
Dispersion correction           -0.001642561
FINAL SINGLE POINT ENERGY      -231.473968101090
Dispersion correction           -0.000235702
FINAL SINGLE POINT ENERGY      -115.731545367074

CARTESIAN COORDINATES (ANGSTROEM)
---------------------------------
  C     -8.020745   -3.527914  -10.654631
  O     -8.474491   -2.329523   -9.997077
  H     -8.064790   -2.411890   -9.082494
  H     -8.798983   -3.828442  -11.400321
  H     -7.035876   -3.412075  -11.068720
  H     -8.014309   -4.342159   -9.886195
  C     -7.249107   -2.947480   -6.183777
  O     -6.735730   -2.493119   -7.412848
  H     -6.333320   -1.610433   -7.245291
  H     -6.497816   -2.963742   -5.397582
  H     -8.049633   -2.287359   -5.901583
  H     -7.548377   -3.979484   -6.200580

 Multiplicity           Mult            ....    1
 Number of Electrons    NEL             ....   18
 Basis Dimension        Dim             ....  172

ORBITAL ENERGIES
----------------

  NO   OCC          E(Eh)            E(eV)
   0   2.0000     -19.232013      -523.3297
   1   2.0000     -10.307328      -280.4767
   2   2.0000      -1.134436       -30.8696
   3   2.0000      -0.796529       -21.6747
   4   2.0000      -0.607953       -16.5432
   5   2.0000      -0.553828       -15.0704
   6   2.0000      -0.525941       -14.3116
   7   2.0000      -0.431324       -11.7369
   8   2.0000      -0.372902       -10.1472
   9   0.0000       0.099161         2.6983
  10   0.0000       0.122836         3.3425
  11   0.0000       0.153359         4.1731
  12   0.0000       0.192399         5.2354
  13   0.0000       0.194676         5.2974

MULLIKEN ATOMIC CHARGES
-----------------------
   0 C :    0.003180
   1 O :   -0.000718
   2 H :   -0.010798
   3 H :   -0.000152
   4 H :   -0.000688
   5 H :   -0.001878
   6 C :   -0.157469
   7 O :   -0.472144
   8 H :    0.317882
   9 H :    0.097458
  10 H :    0.105676
  11 H :    0.119652
Sum of atomic charges:   -0.0000000

LOEWDIN ATOMIC CHARGES
----------------------
   0 C :   -0.003035
   1 O :   -0.002674
   2 H :   -0.030281
   3 H :   -0.000038
   4 H :   -0.000218
   5 H :   -0.000593
   6 C :   -0.387513
   7 O :   -0.054683
   8 H :    0.185859
   9 H :    0.094245
  10 H :    0.093314
  11 H :    0.105616

  Mayer bond orders larger than 0.1
B(  6-C ,  7-O ) :   0.9852 B(  6-C ,  9-H ) :   0.9722 B(  6-C , 10-H ) :   0.9850
B(  6-C , 11-H ) :   0.9732 B(  7-O ,  8-H ) :   0.8926

Dispersion correction           -0.000224236
FINAL SINGLE POINT ENERGY      -115.733690728680

DIPOLE MOMENT
-------------
                                X             Y             Z
Electronic contribution:      0.55435       0.42188      -1.67580
Nuclear contribution   :     -0.49318      -0.07023       2.28577
                        -----------------------------------------
Total Dipole Moment    :      0.06117       0.35165       0.60996
                        -----------------------------------------
Magnitude (a.u.)       :      0.70672
Magnitude (Debye)      :      1.79634

Rotational constants in cm-1:     4.363995     0.838210     0.810045
Rotational constants in MHz : 130829.272857 25128.897569 24284.549658

                             ****ORCA TERMINATED NORMALLY****
TOTAL RUN TIME: 0 days 0 hours 1 minutes 7 seconds 699 msec
