                         Program Version 4.1.2  - RELEASE  -
|  1> #Run DFT-D3 single point of the dimer
|  2> ! wB97X-D3 def2-TZVP TIGHTSCF CHELPG PMODEL PAL8
|  3>
|  4> %base "11-77_DFT_AB"
|  5>
|  6> %scf
|  7> MaxIter 1000
|  8> end
|  9>
| 10> * xyz 0 1
| 11>   C                      8.208089             3.975349             -1.861267
| 12>   O                      7.813825             2.619600             -2.292651
| 13>   H                      7.000944             2.319256             -1.900115
| 14>   H                      8.304451             4.108650             -0.728916
| 15>   H                      9.262322             4.143959             -2.354098
| 16>   H                      7.514508             4.812777             -2.164203
| 17>   C                      11.124728            6.806554             -1.999507
| 18>   O                      11.135662            7.524136             -3.229078
| 19>   H                      11.150037            6.941108             -3.973660
| 20>   H                      11.890149            7.088293             -1.238155
| 21>   H                      10.127329            6.923081             -1.584737
| 22>   H                      11.358672            5.789008             -2.172048
| 23> *
| 24>
| 25> #Run DFT-D3 single point of the molecule with dimer basis set
| 26> $new_job
| 27> %base "11-77_DFT_A"
| 28> ! wB97X-D3 def2-TZVP TIGHTSCF CHELPG PMODEL
| 29>
| 30> %scf
| 31> MaxIter 1000
| 32> end
| 33>
| 34> * xyz 0 1
| 35>   C                      8.208089             3.975349             -1.861267
| 36>   O                      7.813825             2.619600             -2.292651
| 37>   H                      7.000944             2.319256             -1.900115
| 38>   H                      8.304451             4.108650             -0.728916
| 39>   H                      9.262322             4.143959             -2.354098
| 40>   H                      7.514508             4.812777             -2.164203
| 41>   C                    : 11.124728            6.806554             -1.999507
| 42>   O                    : 11.135662            7.524136             -3.229078
| 43>   H                    : 11.150037            6.941108             -3.973660
| 44>   H                    : 11.890149            7.088293             -1.238155
| 45>   H                    : 10.127329            6.923081             -1.584737
| 46>   H                    : 11.358672            5.789008             -2.172048
| 47> *
| 48>
| 49> #Run DFT-D3 single point of the particle with dimer basis set
| 50> $new_job
| 51> %base "11-77_DFT_B"
| 52> ! wB97X-D3 def2-TZVP TIGHTSCF CHELPG PMODEL
| 53>
| 54> %scf
| 55> MaxIter 1000
| 56> end
| 57>
| 58> * xyz 0 1
| 59>   C                    : 8.208089             3.975349             -1.861267
| 60>   O                    : 7.813825             2.619600             -2.292651
| 61>   H                    : 7.000944             2.319256             -1.900115
| 62>   H                    : 8.304451             4.108650             -0.728916
| 63>   H                    : 9.262322             4.143959             -2.354098
| 64>   H                    : 7.514508             4.812777             -2.164203
| 65>   C                      11.124728            6.806554             -1.999507
| 66>   O                      11.135662            7.524136             -3.229078
| 67>   H                      11.150037            6.941108             -3.973660
| 68>   H                      11.890149            7.088293             -1.238155
| 69>   H                      10.127329            6.923081             -1.584737
| 70>   H                      11.358672            5.789008             -2.172048
| 71> *
| 72>
| 73>                          ****END OF INPUT****
 Total Charge           Charge          ....    0
 Multiplicity           Mult            ....    1
 Number of Electrons    NEL             ....   36
Dispersion correction           -0.001460155
FINAL SINGLE POINT ENERGY      -231.458182294482
Dispersion correction           -0.000325897
FINAL SINGLE POINT ENERGY      -115.726373697209

CARTESIAN COORDINATES (ANGSTROEM)
---------------------------------
  C      8.208089    3.975349   -1.861267
  O      7.813825    2.619600   -2.292651
  H      7.000944    2.319256   -1.900115
  H      8.304451    4.108650   -0.728916
  H      9.262322    4.143959   -2.354098
  H      7.514508    4.812777   -2.164203
  C     11.124728    6.806554   -1.999507
  O     11.135662    7.524136   -3.229078
  H     11.150037    6.941108   -3.973660
  H     11.890149    7.088293   -1.238155
  H     10.127329    6.923081   -1.584737
  H     11.358672    5.789008   -2.172048

 Multiplicity           Mult            ....    1
 Number of Electrons    NEL             ....   18
 Basis Dimension        Dim             ....  172

ORBITAL ENERGIES
----------------

  NO   OCC          E(Eh)            E(eV)
   0   2.0000     -19.225681      -523.1574
   1   2.0000     -10.311929      -280.6018
   2   2.0000      -1.132947       -30.8290
   3   2.0000      -0.800142       -21.7730
   4   2.0000      -0.615029       -16.7358
   5   2.0000      -0.541977       -14.7479
   6   2.0000      -0.526991       -14.3401
   7   2.0000      -0.426939       -11.6176
   8   2.0000      -0.373696       -10.1688
   9   0.0000       0.080217         2.1828
  10   0.0000       0.116610         3.1731
  11   0.0000       0.145588         3.9616
  12   0.0000       0.172744         4.7006
  13   0.0000       0.182096         4.9551

MULLIKEN ATOMIC CHARGES
-----------------------
   0 C :   -0.000949
   1 O :   -0.000018
   2 H :   -0.000002
   3 H :    0.000117
   4 H :   -0.000055
   5 H :    0.000067
   6 C :   -0.161724
   7 O :   -0.484593
   8 H :    0.315778
   9 H :    0.110312
  10 H :    0.111709
  11 H :    0.109360
Sum of atomic charges:    0.0000000

LOEWDIN ATOMIC CHARGES
----------------------
   0 C :   -0.002291
   1 O :   -0.000011
   2 H :   -0.000004
   3 H :   -0.000221
   4 H :   -0.002504
   5 H :   -0.000163
   6 C :   -0.370597
   7 O :   -0.080559
   8 H :    0.158048
   9 H :    0.107048
  10 H :    0.100561
  11 H :    0.090693

  Mayer bond orders larger than 0.1
B(  6-C ,  7-O ) :   0.9981 B(  6-C ,  9-H ) :   0.9664 B(  6-C , 10-H ) :   0.9816
B(  6-C , 11-H ) :   0.9853 B(  7-O ,  8-H ) :   0.9010

Dispersion correction           -0.000251156
FINAL SINGLE POINT ENERGY      -115.730994385852

DIPOLE MOMENT
-------------
                                X             Y             Z
Electronic contribution:      0.01830       1.02141      -1.49449
Nuclear contribution   :      0.00195      -1.73658       1.49930
                        -----------------------------------------
Total Dipole Moment    :      0.02025      -0.71518       0.00481
                        -----------------------------------------
Magnitude (a.u.)       :      0.71548
Magnitude (Debye)      :      1.81861

Rotational constants in cm-1:     4.459710     0.813313     0.794053
Rotational constants in MHz : 133698.739851 24382.520852 23805.095438

                             ****ORCA TERMINATED NORMALLY****
TOTAL RUN TIME: 0 days 0 hours 1 minutes 11 seconds 550 msec
