                         Program Version 4.1.2  - RELEASE  -
|  1> #Run DFT-D3 single point of the dimer
|  2> ! wB97X-D3 def2-TZVP TIGHTSCF CHELPG PMODEL PAL8
|  3>
|  4> %base "3-140_DFT_AB"
|  5>
|  6> %scf
|  7> MaxIter 1000
|  8> end
|  9>
| 10> * xyz 0 1
| 11>   C                      -7.916342            -6.777899            -3.497241
| 12>   O                      -8.592063            -7.645050            -2.610539
| 13>   H                      -8.289805            -7.563570            -1.732779
| 14>   H                      -6.857783            -7.080269            -3.642114
| 15>   H                      -8.305381            -6.748343            -4.490312
| 16>   H                      -8.036397            -5.738256            -3.130291
| 17>   C                      -9.238525            -4.183105            0.227909
| 18>   O                      -8.745622            -5.388769            -0.454967
| 19>   H                      -8.083185            -5.835815            0.086759
| 20>   H                      -10.078108           -3.687240            -0.280923
| 21>   H                      -9.497897            -4.323839            1.261845
| 22>   H                      -8.425542            -3.434412            0.290343
| 23> *
| 24>
| 25> #Run DFT-D3 single point of the molecule with dimer basis set
| 26> $new_job
| 27> %base "3-140_DFT_A"
| 28> ! wB97X-D3 def2-TZVP TIGHTSCF CHELPG PMODEL
| 29>
| 30> %scf
| 31> MaxIter 1000
| 32> end
| 33>
| 34> * xyz 0 1
| 35>   C                      -7.916342            -6.777899            -3.497241
| 36>   O                      -8.592063            -7.645050            -2.610539
| 37>   H                      -8.289805            -7.563570            -1.732779
| 38>   H                      -6.857783            -7.080269            -3.642114
| 39>   H                      -8.305381            -6.748343            -4.490312
| 40>   H                      -8.036397            -5.738256            -3.130291
| 41>   C                    : -9.238525            -4.183105            0.227909
| 42>   O                    : -8.745622            -5.388769            -0.454967
| 43>   H                    : -8.083185            -5.835815            0.086759
| 44>   H                    : -10.078108           -3.687240            -0.280923
| 45>   H                    : -9.497897            -4.323839            1.261845
| 46>   H                    : -8.425542            -3.434412            0.290343
| 47> *
| 48>
| 49> #Run DFT-D3 single point of the particle with dimer basis set
| 50> $new_job
| 51> %base "3-140_DFT_B"
| 52> ! wB97X-D3 def2-TZVP TIGHTSCF CHELPG PMODEL
| 53>
| 54> %scf
| 55> MaxIter 1000
| 56> end
| 57>
| 58> * xyz 0 1
| 59>   C                    : -7.916342            -6.777899            -3.497241
| 60>   O                    : -8.592063            -7.645050            -2.610539
| 61>   H                    : -8.289805            -7.563570            -1.732779
| 62>   H                    : -6.857783            -7.080269            -3.642114
| 63>   H                    : -8.305381            -6.748343            -4.490312
| 64>   H                    : -8.036397            -5.738256            -3.130291
| 65>   C                      -9.238525            -4.183105            0.227909
| 66>   O                      -8.745622            -5.388769            -0.454967
| 67>   H                      -8.083185            -5.835815            0.086759
| 68>   H                      -10.078108           -3.687240            -0.280923
| 69>   H                      -9.497897            -4.323839            1.261845
| 70>   H                      -8.425542            -3.434412            0.290343
| 71> *
| 72>
| 73>                          ****END OF INPUT****
 Total Charge           Charge          ....    0
 Multiplicity           Mult            ....    1
 Number of Electrons    NEL             ....   36
Dispersion correction           -0.001697577
FINAL SINGLE POINT ENERGY      -231.464720969696
Dispersion correction           -0.000249556
FINAL SINGLE POINT ENERGY      -115.732697891009

CARTESIAN COORDINATES (ANGSTROEM)
---------------------------------
  C     -7.916342   -6.777899   -3.497241
  O     -8.592063   -7.645050   -2.610539
  H     -8.289805   -7.563570   -1.732779
  H     -6.857783   -7.080269   -3.642114
  H     -8.305381   -6.748343   -4.490312
  H     -8.036397   -5.738256   -3.130291
  C     -9.238525   -4.183105    0.227909
  O     -8.745622   -5.388769   -0.454967
  H     -8.083185   -5.835815    0.086759
  H    -10.078108   -3.687240   -0.280923
  H     -9.497897   -4.323839    1.261845
  H     -8.425542   -3.434412    0.290343

 Multiplicity           Mult            ....    1
 Number of Electrons    NEL             ....   18
 Basis Dimension        Dim             ....  172

ORBITAL ENERGIES
----------------

  NO   OCC          E(Eh)            E(eV)
   0   2.0000     -19.232465      -523.3420
   1   2.0000     -10.319708      -280.8135
   2   2.0000      -1.118322       -30.4311
   3   2.0000      -0.800759       -21.7898
   4   2.0000      -0.604792       -16.4572
   5   2.0000      -0.527115       -14.3435
   6   2.0000      -0.526487       -14.3264
   7   2.0000      -0.437960       -11.9175
   8   2.0000      -0.374042       -10.1782
   9   0.0000       0.097210         2.6452
  10   0.0000       0.125997         3.4286
  11   0.0000       0.144895         3.9428
  12   0.0000       0.189148         5.1470
  13   0.0000       0.198515         5.4019

MULLIKEN ATOMIC CHARGES
-----------------------
   0 C :    0.003021
   1 O :    0.001725
   2 H :   -0.006027
   3 H :   -0.000138
   4 H :   -0.000350
   5 H :   -0.007864
   6 C :   -0.175923
   7 O :   -0.476946
   8 H :    0.316465
   9 H :    0.128992
  10 H :    0.111395
  11 H :    0.105652
Sum of atomic charges:   -0.0000000

LOEWDIN ATOMIC CHARGES
----------------------
   0 C :   -0.006464
   1 O :   -0.002664
   2 H :   -0.007850
   3 H :   -0.000059
   4 H :   -0.000059
   5 H :   -0.006754
   6 C :   -0.347382
   7 O :   -0.100391
   8 H :    0.169253
   9 H :    0.111566
  10 H :    0.092267
  11 H :    0.098537

  Mayer bond orders larger than 0.1
B(  6-C ,  7-O ) :   0.9885 B(  6-C ,  9-H ) :   0.9729 B(  6-C , 10-H ) :   0.9692
B(  6-C , 11-H ) :   0.9787 B(  7-O ,  8-H ) :   0.8947

Dispersion correction           -0.000279722
FINAL SINGLE POINT ENERGY      -115.731545174014

DIPOLE MOMENT
-------------
                                X             Y             Z
Electronic contribution:      0.40779      -1.55095      -0.97297
Nuclear contribution   :     -0.20736       1.80032       1.64038
                        -----------------------------------------
Total Dipole Moment    :      0.20043       0.24937       0.66742
                        -----------------------------------------
Magnitude (a.u.)       :      0.74014
Magnitude (Debye)      :      1.88128

Rotational constants in cm-1:     4.414755     0.770670     0.740156
Rotational constants in MHz : 132351.013328 23104.095830 22189.313787

                             ****ORCA TERMINATED NORMALLY****
TOTAL RUN TIME: 0 days 0 hours 5 minutes 54 seconds 726 msec
