                         Program Version 4.1.2  - RELEASE  -
|  1> #Run DFT-D3 single point of the dimer
|  2> ! wB97X-D3 def2-TZVP TIGHTSCF CHELPG PMODEL PAL8
|  3>
|  4> %base "5-60_DFT_AB"
|  5>
|  6> %scf
|  7> MaxIter 1000
|  8> end
|  9>
| 10> * xyz 0 1
| 11>   C                      -9.804069            7.900826             8.547474
| 12>   O                      -9.071154            7.709983             9.761684
| 13>   H                      -8.392500            7.044270             9.630347
| 14>   H                      -10.682411           8.493206             8.766984
| 15>   H                      -9.235418            8.590576             7.867122
| 16>   H                      -10.142781           7.030390             7.977538
| 17>   C                      -6.428802            5.383133             9.004134
| 18>   O                      -7.383653            5.851389             8.087438
| 19>   H                      -7.924379            5.101137             7.863503
| 20>   H                      -5.979130            4.409062             8.790972
| 21>   H                      -5.606141            6.111262             8.997180
| 22>   H                      -6.861209            5.386359             10.027885
| 23> *
| 24>
| 25> #Run DFT-D3 single point of the molecule with dimer basis set
| 26> $new_job
| 27> %base "5-60_DFT_A"
| 28> ! wB97X-D3 def2-TZVP TIGHTSCF CHELPG PMODEL
| 29>
| 30> %scf
| 31> MaxIter 1000
| 32> end
| 33>
| 34> * xyz 0 1
| 35>   C                      -9.804069            7.900826             8.547474
| 36>   O                      -9.071154            7.709983             9.761684
| 37>   H                      -8.392500            7.044270             9.630347
| 38>   H                      -10.682411           8.493206             8.766984
| 39>   H                      -9.235418            8.590576             7.867122
| 40>   H                      -10.142781           7.030390             7.977538
| 41>   C                    : -6.428802            5.383133             9.004134
| 42>   O                    : -7.383653            5.851389             8.087438
| 43>   H                    : -7.924379            5.101137             7.863503
| 44>   H                    : -5.979130            4.409062             8.790972
| 45>   H                    : -5.606141            6.111262             8.997180
| 46>   H                    : -6.861209            5.386359             10.027885
| 47> *
| 48>
| 49> #Run DFT-D3 single point of the particle with dimer basis set
| 50> $new_job
| 51> %base "5-60_DFT_B"
| 52> ! wB97X-D3 def2-TZVP TIGHTSCF CHELPG PMODEL
| 53>
| 54> %scf
| 55> MaxIter 1000
| 56> end
| 57>
| 58> * xyz 0 1
| 59>   C                    : -9.804069            7.900826             8.547474
| 60>   O                    : -9.071154            7.709983             9.761684
| 61>   H                    : -8.392500            7.044270             9.630347
| 62>   H                    : -10.682411           8.493206             8.766984
| 63>   H                    : -9.235418            8.590576             7.867122
| 64>   H                    : -10.142781           7.030390             7.977538
| 65>   C                      -6.428802            5.383133             9.004134
| 66>   O                      -7.383653            5.851389             8.087438
| 67>   H                      -7.924379            5.101137             7.863503
| 68>   H                      -5.979130            4.409062             8.790972
| 69>   H                      -5.606141            6.111262             8.997180
| 70>   H                      -6.861209            5.386359             10.027885
| 71> *
| 72>
| 73>                          ****END OF INPUT****
 Total Charge           Charge          ....    0
 Multiplicity           Mult            ....    1
 Number of Electrons    NEL             ....   36
Dispersion correction           -0.002072195
FINAL SINGLE POINT ENERGY      -231.474949195449
Dispersion correction           -0.000275749
FINAL SINGLE POINT ENERGY      -115.734084810310

CARTESIAN COORDINATES (ANGSTROEM)
---------------------------------
  C     -9.804069    7.900826    8.547474
  O     -9.071154    7.709983    9.761684
  H     -8.392500    7.044270    9.630347
  H    -10.682411    8.493206    8.766984
  H     -9.235418    8.590576    7.867122
  H    -10.142781    7.030390    7.977538
  C     -6.428802    5.383133    9.004134
  O     -7.383653    5.851389    8.087438
  H     -7.924379    5.101137    7.863503
  H     -5.979130    4.409062    8.790972
  H     -5.606141    6.111262    8.997180
  H     -6.861209    5.386359   10.027885

 Multiplicity           Mult            ....    1
 Number of Electrons    NEL             ....   18
 Basis Dimension        Dim             ....  172

ORBITAL ENERGIES
----------------

  NO   OCC          E(Eh)            E(eV)
   0   2.0000     -19.231946      -523.3279
   1   2.0000     -10.314422      -280.6697
   2   2.0000      -1.143621       -31.1195
   3   2.0000      -0.793978       -21.6052
   4   2.0000      -0.614817       -16.7300
   5   2.0000      -0.543146       -14.7797
   6   2.0000      -0.524456       -14.2712
   7   2.0000      -0.437426       -11.9030
   8   2.0000      -0.374497       -10.1906
   9   0.0000       0.096853         2.6355
  10   0.0000       0.129756         3.5308
  11   0.0000       0.150742         4.1019
  12   0.0000       0.182483         4.9656
  13   0.0000       0.196703         5.3526

MULLIKEN ATOMIC CHARGES
-----------------------
   0 C :    0.007489
   1 O :   -0.001572
   2 H :   -0.001139
   3 H :   -0.000420
   4 H :   -0.002814
   5 H :   -0.005977
   6 C :   -0.170835
   7 O :   -0.464163
   8 H :    0.313411
   9 H :    0.109924
  10 H :    0.114598
  11 H :    0.101497
Sum of atomic charges:   -0.0000000

LOEWDIN ATOMIC CHARGES
----------------------
   0 C :   -0.012776
   1 O :   -0.003474
   2 H :   -0.019827
   3 H :   -0.000173
   4 H :   -0.001098
   5 H :   -0.002654
   6 C :   -0.394786
   7 O :   -0.035061
   8 H :    0.165892
   9 H :    0.095289
  10 H :    0.109259
  11 H :    0.099408

  Mayer bond orders larger than 0.1
B(  6-C ,  7-O ) :   0.9917 B(  6-C ,  9-H ) :   0.9716 B(  6-C , 10-H ) :   0.9782
B(  6-C , 11-H ) :   0.9794 B(  7-O ,  8-H ) :   0.9011

Dispersion correction           -0.000240329
FINAL SINGLE POINT ENERGY      -115.736319591799

DIPOLE MOMENT
-------------
                                X             Y             Z
Electronic contribution:     -1.20007       0.64086      -1.24578
Nuclear contribution   :      1.24470      -1.30402       1.43467
                        -----------------------------------------
Total Dipole Moment    :      0.04463      -0.66317       0.18890
                        -----------------------------------------
Magnitude (a.u.)       :      0.69099
Magnitude (Debye)      :      1.75635

Rotational constants in cm-1:     4.257643     0.839811     0.812875
Rotational constants in MHz : 127640.939692 25176.889365 24369.377148

                             ****ORCA TERMINATED NORMALLY****
TOTAL RUN TIME: 0 days 0 hours 0 minutes 55 seconds 330 msec
