                         Program Version 4.1.2  - RELEASE  -
|  1> #Run DFT-D3 single point of the dimer
|  2> ! wB97X-D3 def2-TZVP TIGHTSCF CHELPG PMODEL PAL8
|  3>
|  4> %base "12-84_DFT_AB"
|  5>
|  6> %scf
|  7> MaxIter 1000
|  8> end
|  9>
| 10> * xyz 0 1
| 11>   C                      -4.658780            -2.037883            7.649658
| 12>   O                      -5.337638            -1.572166            6.540238
| 13>   H                      -6.235660            -1.469603            6.901389
| 14>   H                      -3.612432            -1.652803            7.614765
| 15>   H                      -5.188026            -1.588476            8.460927
| 16>   H                      -4.629709            -3.094023            7.716798
| 17>   C                      -5.089564            -6.346030            7.077743
| 18>   O                      -6.465300            -6.133136            6.927184
| 19>   H                      -6.798112            -5.651534            7.717625
| 20>   H                      -4.701708            -6.957811            6.244498
| 21>   H                      -4.549811            -5.454992            7.041897
| 22>   H                      -4.832682            -6.756922            8.050849
| 23> *
| 24>
| 25> #Run DFT-D3 single point of the molecule with dimer basis set
| 26> $new_job
| 27> %base "12-84_DFT_A"
| 28> ! wB97X-D3 def2-TZVP TIGHTSCF CHELPG PMODEL
| 29>
| 30> %scf
| 31> MaxIter 1000
| 32> end
| 33>
| 34> * xyz 0 1
| 35>   C                      -4.658780            -2.037883            7.649658
| 36>   O                      -5.337638            -1.572166            6.540238
| 37>   H                      -6.235660            -1.469603            6.901389
| 38>   H                      -3.612432            -1.652803            7.614765
| 39>   H                      -5.188026            -1.588476            8.460927
| 40>   H                      -4.629709            -3.094023            7.716798
| 41>   C                    : -5.089564            -6.346030            7.077743
| 42>   O                    : -6.465300            -6.133136            6.927184
| 43>   H                    : -6.798112            -5.651534            7.717625
| 44>   H                    : -4.701708            -6.957811            6.244498
| 45>   H                    : -4.549811            -5.454992            7.041897
| 46>   H                    : -4.832682            -6.756922            8.050849
| 47> *
| 48>
| 49> #Run DFT-D3 single point of the particle with dimer basis set
| 50> $new_job
| 51> %base "12-84_DFT_B"
| 52> ! wB97X-D3 def2-TZVP TIGHTSCF CHELPG PMODEL
| 53>
| 54> %scf
| 55> MaxIter 1000
| 56> end
| 57>
| 58> * xyz 0 1
| 59>   C                    : -4.658780            -2.037883            7.649658
| 60>   O                    : -5.337638            -1.572166            6.540238
| 61>   H                    : -6.235660            -1.469603            6.901389
| 62>   H                    : -3.612432            -1.652803            7.614765
| 63>   H                    : -5.188026            -1.588476            8.460927
| 64>   H                    : -4.629709            -3.094023            7.716798
| 65>   C                      -5.089564            -6.346030            7.077743
| 66>   O                      -6.465300            -6.133136            6.927184
| 67>   H                      -6.798112            -5.651534            7.717625
| 68>   H                      -4.701708            -6.957811            6.244498
| 69>   H                      -4.549811            -5.454992            7.041897
| 70>   H                      -4.832682            -6.756922            8.050849
| 71> *
| 72>
| 73>                          ****END OF INPUT****
 Total Charge           Charge          ....    0
 Multiplicity           Mult            ....    1
 Number of Electrons    NEL             ....   36
Dispersion correction           -0.001228611
FINAL SINGLE POINT ENERGY      -231.461222428033
Dispersion correction           -0.000197371
FINAL SINGLE POINT ENERGY      -115.728103848261

CARTESIAN COORDINATES (ANGSTROEM)
---------------------------------
  C     -4.658780   -2.037883    7.649658
  O     -5.337638   -1.572166    6.540238
  H     -6.235660   -1.469603    6.901389
  H     -3.612432   -1.652803    7.614765
  H     -5.188026   -1.588476    8.460927
  H     -4.629709   -3.094023    7.716798
  C     -5.089564   -6.346030    7.077743
  O     -6.465300   -6.133136    6.927184
  H     -6.798112   -5.651534    7.717625
  H     -4.701708   -6.957811    6.244498
  H     -4.549811   -5.454992    7.041897
  H     -4.832682   -6.756922    8.050849

 Multiplicity           Mult            ....    1
 Number of Electrons    NEL             ....   18
 Basis Dimension        Dim             ....  172

ORBITAL ENERGIES
----------------

  NO   OCC          E(Eh)            E(eV)
   0   2.0000     -19.231331      -523.3111
   1   2.0000     -10.305711      -280.4326
   2   2.0000      -1.135269       -30.8922
   3   2.0000      -0.797400       -21.6983
   4   2.0000      -0.615583       -16.7509
   5   2.0000      -0.541630       -14.7385
   6   2.0000      -0.527953       -14.3663
   7   2.0000      -0.435221       -11.8430
   8   2.0000      -0.370564       -10.0836
   9   0.0000       0.081627         2.2212
  10   0.0000       0.121461         3.3051
  11   0.0000       0.150488         4.0950
  12   0.0000       0.173034         4.7085
  13   0.0000       0.187651         5.1062

MULLIKEN ATOMIC CHARGES
-----------------------
   0 C :   -0.002757
   1 O :   -0.000027
   2 H :   -0.000018
   3 H :    0.000178
   4 H :    0.000026
   5 H :    0.005055
   6 C :   -0.159574
   7 O :   -0.476397
   8 H :    0.316685
   9 H :    0.123281
  10 H :    0.096807
  11 H :    0.096741
Sum of atomic charges:   -0.0000000

LOEWDIN ATOMIC CHARGES
----------------------
   0 C :   -0.001360
   1 O :   -0.000011
   2 H :   -0.000034
   3 H :   -0.000010
   4 H :   -0.000010
   5 H :   -0.002894
   6 C :   -0.391659
   7 O :   -0.076895
   8 H :    0.183796
   9 H :    0.113434
  10 H :    0.082538
  11 H :    0.093104

  Mayer bond orders larger than 0.1
B(  6-C ,  7-O ) :   1.0047 B(  6-C ,  9-H ) :   0.9758 B(  6-C , 10-H ) :   0.9730
B(  6-C , 11-H ) :   0.9835 B(  7-O ,  8-H ) :   0.8938

Dispersion correction           -0.000228581
FINAL SINGLE POINT ENERGY      -115.733076024403

DIPOLE MOMENT
-------------
                                X             Y             Z
Electronic contribution:     -1.79660       0.17944      -0.33544
Nuclear contribution   :      2.13809       0.06401       0.89074
                        -----------------------------------------
Total Dipole Moment    :      0.34149       0.24345       0.55530
                        -----------------------------------------
Magnitude (a.u.)       :      0.69588
Magnitude (Debye)      :      1.76878

Rotational constants in cm-1:     4.401599     0.849814     0.805890
Rotational constants in MHz : 131956.607019 25476.785717 24159.987327

                             ****ORCA TERMINATED NORMALLY****
TOTAL RUN TIME: 0 days 0 hours 1 minutes 4 seconds 732 msec
