                         Program Version 4.1.2  - RELEASE  -
|  1> #Run DFT-D3 single point of the dimer
|  2> ! wB97X-D3 def2-TZVP TIGHTSCF CHELPG PMODEL PAL8
|  3>
|  4> %base "3-108_DFT_AB"
|  5>
|  6> %scf
|  7> MaxIter 1000
|  8> end
|  9>
| 10> * xyz 0 1
| 11>   C                      3.247965             -4.559031            -0.450661
| 12>   O                      3.082228             -5.100131            0.833028
| 13>   H                      3.428484             -4.516003            1.598931
| 14>   H                      2.833958             -5.230700            -1.176977
| 15>   H                      2.781872             -3.575299            -0.586808
| 16>   H                      4.333572             -4.378047            -0.637821
| 17>   C                      4.978477             -7.118794            3.916645
| 18>   O                      4.984561             -7.466388            2.525006
| 19>   H                      5.848563             -7.335834            2.174196
| 20>   H                      5.878072             -6.457590            4.097344
| 21>   H                      4.032489             -6.654330            4.295628
| 22>   H                      5.093336             -8.044769            4.556750
| 23> *
| 24>
| 25> #Run DFT-D3 single point of the molecule with dimer basis set
| 26> $new_job
| 27> %base "3-108_DFT_A"
| 28> ! wB97X-D3 def2-TZVP TIGHTSCF CHELPG PMODEL
| 29>
| 30> %scf
| 31> MaxIter 1000
| 32> end
| 33>
| 34> * xyz 0 1
| 35>   C                      3.247965             -4.559031            -0.450661
| 36>   O                      3.082228             -5.100131            0.833028
| 37>   H                      3.428484             -4.516003            1.598931
| 38>   H                      2.833958             -5.230700            -1.176977
| 39>   H                      2.781872             -3.575299            -0.586808
| 40>   H                      4.333572             -4.378047            -0.637821
| 41>   C                    : 4.978477             -7.118794            3.916645
| 42>   O                    : 4.984561             -7.466388            2.525006
| 43>   H                    : 5.848563             -7.335834            2.174196
| 44>   H                    : 5.878072             -6.457590            4.097344
| 45>   H                    : 4.032489             -6.654330            4.295628
| 46>   H                    : 5.093336             -8.044769            4.556750
| 47> *
| 48>
| 49> #Run DFT-D3 single point of the particle with dimer basis set
| 50> $new_job
| 51> %base "3-108_DFT_B"
| 52> ! wB97X-D3 def2-TZVP TIGHTSCF CHELPG PMODEL
| 53>
| 54> %scf
| 55> MaxIter 1000
| 56> end
| 57>
| 58> * xyz 0 1
| 59>   C                    : 3.247965             -4.559031            -0.450661
| 60>   O                    : 3.082228             -5.100131            0.833028
| 61>   H                    : 3.428484             -4.516003            1.598931
| 62>   H                    : 2.833958             -5.230700            -1.176977
| 63>   H                    : 2.781872             -3.575299            -0.586808
| 64>   H                    : 4.333572             -4.378047            -0.637821
| 65>   C                      4.978477             -7.118794            3.916645
| 66>   O                      4.984561             -7.466388            2.525006
| 67>   H                      5.848563             -7.335834            2.174196
| 68>   H                      5.878072             -6.457590            4.097344
| 69>   H                      4.032489             -6.654330            4.295628
| 70>   H                      5.093336             -8.044769            4.556750
| 71> *
| 72>
| 73>                          ****END OF INPUT****
 Total Charge           Charge          ....    0
 Multiplicity           Mult            ....    1
 Number of Electrons    NEL             ....   36
Dispersion correction           -0.001229039
FINAL SINGLE POINT ENERGY      -231.460263460749
Dispersion correction           -0.000258005
FINAL SINGLE POINT ENERGY      -115.731369768371

CARTESIAN COORDINATES (ANGSTROEM)
---------------------------------
  C      3.247965   -4.559031   -0.450661
  O      3.082228   -5.100131    0.833028
  H      3.428484   -4.516003    1.598931
  H      2.833958   -5.230700   -1.176977
  H      2.781872   -3.575299   -0.586808
  H      4.333572   -4.378047   -0.637821
  C      4.978477   -7.118794    3.916645
  O      4.984561   -7.466388    2.525006
  H      5.848563   -7.335834    2.174196
  H      5.878072   -6.457590    4.097344
  H      4.032489   -6.654330    4.295628
  H      5.093336   -8.044769    4.556750

 Multiplicity           Mult            ....    1
 Number of Electrons    NEL             ....   18
 Basis Dimension        Dim             ....  172

ORBITAL ENERGIES
----------------

  NO   OCC          E(Eh)            E(eV)
   0   2.0000     -19.229018      -523.2482
   1   2.0000     -10.327568      -281.0274
   2   2.0000      -1.134154       -30.8619
   3   2.0000      -0.791260       -21.5313
   4   2.0000      -0.608066       -16.5463
   5   2.0000      -0.535803       -14.5799
   6   2.0000      -0.526966       -14.3395
   7   2.0000      -0.430978       -11.7275
   8   2.0000      -0.372172       -10.1273
   9   0.0000       0.090106         2.4519
  10   0.0000       0.116273         3.1639
  11   0.0000       0.146650         3.9905
  12   0.0000       0.171619         4.6700
  13   0.0000       0.197692         5.3795

MULLIKEN ATOMIC CHARGES
-----------------------
   0 C :   -0.000890
   1 O :   -0.000628
   2 H :   -0.000935
   3 H :    0.000130
   4 H :   -0.000056
   5 H :   -0.000133
   6 C :   -0.172617
   7 O :   -0.473065
   8 H :    0.315355
   9 H :    0.104344
  10 H :    0.123086
  11 H :    0.105408
Sum of atomic charges:    0.0000000

LOEWDIN ATOMIC CHARGES
----------------------
   0 C :   -0.000654
   1 O :   -0.002339
   2 H :   -0.001138
   3 H :   -0.000009
   4 H :   -0.000023
   5 H :   -0.000078
   6 C :   -0.380580
   7 O :   -0.084321
   8 H :    0.155752
   9 H :    0.103309
  10 H :    0.108754
  11 H :    0.101326

  Mayer bond orders larger than 0.1
B(  6-C ,  7-O ) :   0.9973 B(  6-C ,  9-H ) :   0.9864 B(  6-C , 10-H ) :   0.9694
B(  6-C , 11-H ) :   0.9708 B(  7-O ,  8-H ) :   0.9017

Dispersion correction           -0.000265334
FINAL SINGLE POINT ENERGY      -115.730936850157

DIPOLE MOMENT
-------------
                                X             Y             Z
Electronic contribution:     -0.19364      -0.40919      -1.81349
Nuclear contribution   :      0.75793       0.63452       2.15252
                        -----------------------------------------
Total Dipole Moment    :      0.56429       0.22533       0.33903
                        -----------------------------------------
Magnitude (a.u.)       :      0.69580
Magnitude (Debye)      :      1.76858

Rotational constants in cm-1:     4.165780     0.805897     0.772905
Rotational constants in MHz : 124886.930838 24160.171807 23171.108599

                             ****ORCA TERMINATED NORMALLY****
TOTAL RUN TIME: 0 days 0 hours 5 minutes 58 seconds 214 msec
