                         Program Version 4.1.2  - RELEASE  -
|  1> #Run DFT-D3 single point of the dimer
|  2> ! wB97X-D3 def2-TZVP TIGHTSCF CHELPG PMODEL PAL8
|  3>
|  4> %base "8-100_DFT_AB"
|  5>
|  6> %scf
|  7> MaxIter 1000
|  8> end
|  9>
| 10> * xyz 0 1
| 11>   C                      -5.195719            -0.427144            9.365506
| 12>   O                      -6.124433            -1.080566            10.163934
| 13>   H                      -6.539004            -1.747450            9.631112
| 14>   H                      -5.596017            -0.049719            8.423426
| 15>   H                      -4.831508            0.366167             9.977338
| 16>   H                      -4.342301            -1.112926            9.156067
| 17>   C                      -5.857692            3.293914             9.827698
| 18>   O                      -6.747446            4.192622             10.427490
| 19>   H                      -7.442084            4.299272             9.837414
| 20>   H                      -5.000361            3.085157             10.455396
| 21>   H                      -6.315586            2.270541             9.609744
| 22>   H                      -5.414708            3.642596             8.841099
| 23> *
| 24>
| 25> #Run DFT-D3 single point of the molecule with dimer basis set
| 26> $new_job
| 27> %base "8-100_DFT_A"
| 28> ! wB97X-D3 def2-TZVP TIGHTSCF CHELPG PMODEL
| 29>
| 30> %scf
| 31> MaxIter 1000
| 32> end
| 33>
| 34> * xyz 0 1
| 35>   C                      -5.195719            -0.427144            9.365506
| 36>   O                      -6.124433            -1.080566            10.163934
| 37>   H                      -6.539004            -1.747450            9.631112
| 38>   H                      -5.596017            -0.049719            8.423426
| 39>   H                      -4.831508            0.366167             9.977338
| 40>   H                      -4.342301            -1.112926            9.156067
| 41>   C                    : -5.857692            3.293914             9.827698
| 42>   O                    : -6.747446            4.192622             10.427490
| 43>   H                    : -7.442084            4.299272             9.837414
| 44>   H                    : -5.000361            3.085157             10.455396
| 45>   H                    : -6.315586            2.270541             9.609744
| 46>   H                    : -5.414708            3.642596             8.841099
| 47> *
| 48>
| 49> #Run DFT-D3 single point of the particle with dimer basis set
| 50> $new_job
| 51> %base "8-100_DFT_B"
| 52> ! wB97X-D3 def2-TZVP TIGHTSCF CHELPG PMODEL
| 53>
| 54> %scf
| 55> MaxIter 1000
| 56> end
| 57>
| 58> * xyz 0 1
| 59>   C                    : -5.195719            -0.427144            9.365506
| 60>   O                    : -6.124433            -1.080566            10.163934
| 61>   H                    : -6.539004            -1.747450            9.631112
| 62>   H                    : -5.596017            -0.049719            8.423426
| 63>   H                    : -4.831508            0.366167             9.977338
| 64>   H                    : -4.342301            -1.112926            9.156067
| 65>   C                      -5.857692            3.293914             9.827698
| 66>   O                      -6.747446            4.192622             10.427490
| 67>   H                      -7.442084            4.299272             9.837414
| 68>   H                      -5.000361            3.085157             10.455396
| 69>   H                      -6.315586            2.270541             9.609744
| 70>   H                      -5.414708            3.642596             8.841099
| 71> *
| 72>
| 73>                          ****END OF INPUT****
 Total Charge           Charge          ....    0
 Multiplicity           Mult            ....    1
 Number of Electrons    NEL             ....   36
Dispersion correction           -0.001520241
FINAL SINGLE POINT ENERGY      -231.468418025336
Dispersion correction           -0.000220311
FINAL SINGLE POINT ENERGY      -115.735585105545

CARTESIAN COORDINATES (ANGSTROEM)
---------------------------------
  C     -5.195719   -0.427144    9.365506
  O     -6.124433   -1.080566   10.163934
  H     -6.539004   -1.747450    9.631112
  H     -5.596017   -0.049719    8.423426
  H     -4.831508    0.366167    9.977338
  H     -4.342301   -1.112926    9.156067
  C     -5.857692    3.293914    9.827698
  O     -6.747446    4.192622   10.427490
  H     -7.442084    4.299272    9.837414
  H     -5.000361    3.085157   10.455396
  H     -6.315586    2.270541    9.609744
  H     -5.414708    3.642596    8.841099

 Multiplicity           Mult            ....    1
 Number of Electrons    NEL             ....   18
 Basis Dimension        Dim             ....  172

ORBITAL ENERGIES
----------------

  NO   OCC          E(Eh)            E(eV)
   0   2.0000     -19.232611      -523.3460
   1   2.0000     -10.321232      -280.8550
   2   2.0000      -1.153729       -31.3946
   3   2.0000      -0.795296       -21.6411
   4   2.0000      -0.619148       -16.8479
   5   2.0000      -0.534328       -14.5398
   6   2.0000      -0.533466       -14.5163
   7   2.0000      -0.436827       -11.8867
   8   2.0000      -0.375449       -10.2165
   9   0.0000       0.083654         2.2763
  10   0.0000       0.121820         3.3149
  11   0.0000       0.147414         4.0113
  12   0.0000       0.175434         4.7738
  13   0.0000       0.182869         4.9761

MULLIKEN ATOMIC CHARGES
-----------------------
   0 C :    0.002481
   1 O :    0.000051
   2 H :   -0.000012
   3 H :   -0.001232
   4 H :   -0.003975
   5 H :   -0.000263
   6 C :   -0.164461
   7 O :   -0.450058
   8 H :    0.308508
   9 H :    0.123790
  10 H :    0.093321
  11 H :    0.091850
Sum of atomic charges:   -0.0000000

LOEWDIN ATOMIC CHARGES
----------------------
   0 C :   -0.008255
   1 O :   -0.000078
   2 H :   -0.000022
   3 H :   -0.001675
   4 H :   -0.003997
   5 H :   -0.000090
   6 C :   -0.404223
   7 O :   -0.037420
   8 H :    0.144466
   9 H :    0.106405
  10 H :    0.105834
  11 H :    0.099057

  Mayer bond orders larger than 0.1
B(  6-C ,  7-O ) :   1.0041 B(  6-C ,  9-H ) :   0.9722 B(  6-C , 10-H ) :   0.9776
B(  6-C , 11-H ) :   0.9680 B(  7-O ,  8-H ) :   0.9091

Dispersion correction           -0.000254922
FINAL SINGLE POINT ENERGY      -115.732529735074

DIPOLE MOMENT
-------------
                                X             Y             Z
Electronic contribution:     -1.15562       1.31793       1.00205
Nuclear contribution   :      1.05245      -1.57740      -1.58429
                        -----------------------------------------
Total Dipole Moment    :     -0.10317      -0.25947      -0.58225
                        -----------------------------------------
Magnitude (a.u.)       :      0.64574
Magnitude (Debye)      :      1.64134

Rotational constants in cm-1:     4.317816     0.829140     0.805616
Rotational constants in MHz : 129444.859904 24857.004096 24151.759261

                             ****ORCA TERMINATED NORMALLY****
TOTAL RUN TIME: 0 days 0 hours 0 minutes 44 seconds 72 msec
