                         Program Version 4.1.2  - RELEASE  -
|  1> #Run DFT-D3 single point of the dimer
|  2> ! wB97X-D3 def2-TZVP TIGHTSCF CHELPG PMODEL PAL8
|  3>
|  4> %base "12-85_DFT_AB"
|  5>
|  6> %scf
|  7> MaxIter 1000
|  8> end
|  9>
| 10> * xyz 0 1
| 11>   C                      -4.658780            -2.037883            7.649658
| 12>   O                      -5.337638            -1.572166            6.540238
| 13>   H                      -6.235660            -1.469603            6.901389
| 14>   H                      -3.612432            -1.652803            7.614765
| 15>   H                      -5.188026            -1.588476            8.460927
| 16>   H                      -4.629709            -3.094023            7.716798
| 17>   C                      -2.069686            -4.856370            7.588337
| 18>   O                      -1.982961            -6.087089            6.809619
| 19>   H                      -1.495938            -5.822914            6.054951
| 20>   H                      -3.031216            -4.309157            7.269200
| 21>   H                      -2.211093            -5.128542            8.600065
| 22>   H                      -1.154506            -4.294237            7.527639
| 23> *
| 24>
| 25> #Run DFT-D3 single point of the molecule with dimer basis set
| 26> $new_job
| 27> %base "12-85_DFT_A"
| 28> ! wB97X-D3 def2-TZVP TIGHTSCF CHELPG PMODEL
| 29>
| 30> %scf
| 31> MaxIter 1000
| 32> end
| 33>
| 34> * xyz 0 1
| 35>   C                      -4.658780            -2.037883            7.649658
| 36>   O                      -5.337638            -1.572166            6.540238
| 37>   H                      -6.235660            -1.469603            6.901389
| 38>   H                      -3.612432            -1.652803            7.614765
| 39>   H                      -5.188026            -1.588476            8.460927
| 40>   H                      -4.629709            -3.094023            7.716798
| 41>   C                    : -2.069686            -4.856370            7.588337
| 42>   O                    : -1.982961            -6.087089            6.809619
| 43>   H                    : -1.495938            -5.822914            6.054951
| 44>   H                    : -3.031216            -4.309157            7.269200
| 45>   H                    : -2.211093            -5.128542            8.600065
| 46>   H                    : -1.154506            -4.294237            7.527639
| 47> *
| 48>
| 49> #Run DFT-D3 single point of the particle with dimer basis set
| 50> $new_job
| 51> %base "12-85_DFT_B"
| 52> ! wB97X-D3 def2-TZVP TIGHTSCF CHELPG PMODEL
| 53>
| 54> %scf
| 55> MaxIter 1000
| 56> end
| 57>
| 58> * xyz 0 1
| 59>   C                    : -4.658780            -2.037883            7.649658
| 60>   O                    : -5.337638            -1.572166            6.540238
| 61>   H                    : -6.235660            -1.469603            6.901389
| 62>   H                    : -3.612432            -1.652803            7.614765
| 63>   H                    : -5.188026            -1.588476            8.460927
| 64>   H                    : -4.629709            -3.094023            7.716798
| 65>   C                      -2.069686            -4.856370            7.588337
| 66>   O                      -1.982961            -6.087089            6.809619
| 67>   H                      -1.495938            -5.822914            6.054951
| 68>   H                      -3.031216            -4.309157            7.269200
| 69>   H                      -2.211093            -5.128542            8.600065
| 70>   H                      -1.154506            -4.294237            7.527639
| 71> *
| 72>
| 73>                          ****END OF INPUT****
 Total Charge           Charge          ....    0
 Multiplicity           Mult            ....    1
 Number of Electrons    NEL             ....   36
Dispersion correction           -0.001354632
FINAL SINGLE POINT ENERGY      -231.458531803644
Dispersion correction           -0.000197371
FINAL SINGLE POINT ENERGY      -115.728089793780

CARTESIAN COORDINATES (ANGSTROEM)
---------------------------------
  C     -4.658780   -2.037883    7.649658
  O     -5.337638   -1.572166    6.540238
  H     -6.235660   -1.469603    6.901389
  H     -3.612432   -1.652803    7.614765
  H     -5.188026   -1.588476    8.460927
  H     -4.629709   -3.094023    7.716798
  C     -2.069686   -4.856370    7.588337
  O     -1.982961   -6.087089    6.809619
  H     -1.495938   -5.822914    6.054951
  H     -3.031216   -4.309157    7.269200
  H     -2.211093   -5.128542    8.600065
  H     -1.154506   -4.294237    7.527639

 Multiplicity           Mult            ....    1
 Number of Electrons    NEL             ....   18
 Basis Dimension        Dim             ....  172

ORBITAL ENERGIES
----------------

  NO   OCC          E(Eh)            E(eV)
   0   2.0000     -19.226716      -523.1856
   1   2.0000     -10.316857      -280.7359
   2   2.0000      -1.130222       -30.7549
   3   2.0000      -0.797263       -21.6946
   4   2.0000      -0.602971       -16.4077
   5   2.0000      -0.537951       -14.6384
   6   2.0000      -0.523749       -14.2519
   7   2.0000      -0.443326       -12.0635
   8   2.0000      -0.374352       -10.1866
   9   0.0000       0.087672         2.3857
  10   0.0000       0.118388         3.2215
  11   0.0000       0.148059         4.0289
  12   0.0000       0.178882         4.8676
  13   0.0000       0.188557         5.1309

MULLIKEN ATOMIC CHARGES
-----------------------
   0 C :   -0.003007
   1 O :    0.000028
   2 H :   -0.000028
   3 H :   -0.000352
   4 H :   -0.000287
   5 H :   -0.000333
   6 C :   -0.187391
   7 O :   -0.470501
   8 H :    0.306879
   9 H :    0.115149
  10 H :    0.122239
  11 H :    0.117605
Sum of atomic charges:    0.0000000

LOEWDIN ATOMIC CHARGES
----------------------
   0 C :   -0.009716
   1 O :   -0.000007
   2 H :   -0.000016
   3 H :   -0.001397
   4 H :   -0.000086
   5 H :   -0.009273
   6 C :   -0.347486
   7 O :   -0.096862
   8 H :    0.149321
   9 H :    0.121059
  10 H :    0.099106
  11 H :    0.095357

  Mayer bond orders larger than 0.1
B(  6-C ,  7-O ) :   0.9861 B(  6-C ,  9-H ) :   0.9741 B(  6-C , 10-H ) :   0.9715
B(  6-C , 11-H ) :   0.9752 B(  7-O ,  8-H ) :   0.9120

Dispersion correction           -0.000242641
FINAL SINGLE POINT ENERGY      -115.730732588182

DIPOLE MOMENT
-------------
                                X             Y             Z
Electronic contribution:      0.13945      -1.54010      -0.83745
Nuclear contribution   :      0.15452       2.19094       0.71446
                        -----------------------------------------
Total Dipole Moment    :      0.29397       0.65084      -0.12298
                        -----------------------------------------
Magnitude (a.u.)       :      0.72466
Magnitude (Debye)      :      1.84194

Rotational constants in cm-1:     4.191668     0.798273     0.778798
Rotational constants in MHz : 125663.044519 23931.630288 23347.782860

                             ****ORCA TERMINATED NORMALLY****
TOTAL RUN TIME: 0 days 0 hours 1 minutes 2 seconds 694 msec
