                         Program Version 4.1.2  - RELEASE  -
|  1> #Run DFT-D3 single point of the dimer
|  2> ! wB97X-D3 def2-TZVP TIGHTSCF CHELPG PMODEL PAL8
|  3>
|  4> %base "15-98_DFT_AB"
|  5>
|  6> %scf
|  7> MaxIter 1000
|  8> end
|  9>
| 10> * xyz 0 1
| 11>   C                      -3.521737            -6.032928            -3.997539
| 12>   O                      -3.209134            -4.842496            -3.204906
| 13>   H                      -3.319984            -4.094860            -3.795784
| 14>   H                      -3.627151            -6.940647            -3.414398
| 15>   H                      -4.523750            -5.897630            -4.422226
| 16>   H                      -2.762533            -6.264531            -4.740990
| 17>   C                      -5.165863            -9.581708            -2.485840
| 18>   O                      -6.423885            -9.223285            -1.799085
| 19>   H                      -6.573787            -8.283563            -1.949006
| 20>   H                      -4.823366            -10.519670           -2.077877
| 21>   H                      -5.296363            -9.580533            -3.532243
| 22>   H                      -4.360786            -8.853469            -2.328686
| 23> *
| 24>
| 25> #Run DFT-D3 single point of the molecule with dimer basis set
| 26> $new_job
| 27> %base "15-98_DFT_A"
| 28> ! wB97X-D3 def2-TZVP TIGHTSCF CHELPG PMODEL
| 29>
| 30> %scf
| 31> MaxIter 1000
| 32> end
| 33>
| 34> * xyz 0 1
| 35>   C                      -3.521737            -6.032928            -3.997539
| 36>   O                      -3.209134            -4.842496            -3.204906
| 37>   H                      -3.319984            -4.094860            -3.795784
| 38>   H                      -3.627151            -6.940647            -3.414398
| 39>   H                      -4.523750            -5.897630            -4.422226
| 40>   H                      -2.762533            -6.264531            -4.740990
| 41>   C                    : -5.165863            -9.581708            -2.485840
| 42>   O                    : -6.423885            -9.223285            -1.799085
| 43>   H                    : -6.573787            -8.283563            -1.949006
| 44>   H                    : -4.823366            -10.519670           -2.077877
| 45>   H                    : -5.296363            -9.580533            -3.532243
| 46>   H                    : -4.360786            -8.853469            -2.328686
| 47> *
| 48>
| 49> #Run DFT-D3 single point of the particle with dimer basis set
| 50> $new_job
| 51> %base "15-98_DFT_B"
| 52> ! wB97X-D3 def2-TZVP TIGHTSCF CHELPG PMODEL
| 53>
| 54> %scf
| 55> MaxIter 1000
| 56> end
| 57>
| 58> * xyz 0 1
| 59>   C                    : -3.521737            -6.032928            -3.997539
| 60>   O                    : -3.209134            -4.842496            -3.204906
| 61>   H                    : -3.319984            -4.094860            -3.795784
| 62>   H                    : -3.627151            -6.940647            -3.414398
| 63>   H                    : -4.523750            -5.897630            -4.422226
| 64>   H                    : -2.762533            -6.264531            -4.740990
| 65>   C                      -5.165863            -9.581708            -2.485840
| 66>   O                      -6.423885            -9.223285            -1.799085
| 67>   H                      -6.573787            -8.283563            -1.949006
| 68>   H                      -4.823366            -10.519670           -2.077877
| 69>   H                      -5.296363            -9.580533            -3.532243
| 70>   H                      -4.360786            -8.853469            -2.328686
| 71> *
| 72>
| 73>                          ****END OF INPUT****
 Total Charge           Charge          ....    0
 Multiplicity           Mult            ....    1
 Number of Electrons    NEL             ....   36
Dispersion correction           -0.001332687
FINAL SINGLE POINT ENERGY      -231.465520780862
Dispersion correction           -0.000258880
FINAL SINGLE POINT ENERGY      -115.732629768020

CARTESIAN COORDINATES (ANGSTROEM)
---------------------------------
  C     -3.521737   -6.032928   -3.997539
  O     -3.209134   -4.842496   -3.204906
  H     -3.319984   -4.094860   -3.795784
  H     -3.627151   -6.940647   -3.414398
  H     -4.523750   -5.897630   -4.422226
  H     -2.762533   -6.264531   -4.740990
  C     -5.165863   -9.581708   -2.485840
  O     -6.423885   -9.223285   -1.799085
  H     -6.573787   -8.283563   -1.949006
  H     -4.823366  -10.519670   -2.077877
  H     -5.296363   -9.580533   -3.532243
  H     -4.360786   -8.853469   -2.328686

 Multiplicity           Mult            ....    1
 Number of Electrons    NEL             ....   18
 Basis Dimension        Dim             ....  172

ORBITAL ENERGIES
----------------

  NO   OCC          E(Eh)            E(eV)
   0   2.0000     -19.229458      -523.2601
   1   2.0000     -10.313451      -280.6433
   2   2.0000      -1.116840       -30.3907
   3   2.0000      -0.802263       -21.8307
   4   2.0000      -0.602776       -16.4024
   5   2.0000      -0.540113       -14.6972
   6   2.0000      -0.515118       -14.0171
   7   2.0000      -0.442013       -12.0278
   8   2.0000      -0.375450       -10.2165
   9   0.0000       0.076511         2.0820
  10   0.0000       0.118396         3.2217
  11   0.0000       0.145604         3.9621
  12   0.0000       0.174532         4.7493
  13   0.0000       0.179831         4.8934

MULLIKEN ATOMIC CHARGES
-----------------------
   0 C :    0.000854
   1 O :   -0.000039
   2 H :   -0.000003
   3 H :   -0.001192
   4 H :   -0.000178
   5 H :    0.000064
   6 C :   -0.166293
   7 O :   -0.485018
   8 H :    0.310586
   9 H :    0.122496
  10 H :    0.113953
  11 H :    0.104771
Sum of atomic charges:    0.0000000

LOEWDIN ATOMIC CHARGES
----------------------
   0 C :   -0.001518
   1 O :   -0.000008
   2 H :   -0.000002
   3 H :   -0.005288
   4 H :   -0.000045
   5 H :   -0.000009
   6 C :   -0.331416
   7 O :   -0.121750
   8 H :    0.163945
   9 H :    0.106655
  10 H :    0.089743
  11 H :    0.099692

  Mayer bond orders larger than 0.1
B(  6-C ,  7-O ) :   0.9933 B(  6-C ,  9-H ) :   0.9729 B(  6-C , 10-H ) :   0.9756
B(  6-C , 11-H ) :   0.9775 B(  7-O ,  8-H ) :   0.9036

Dispersion correction           -0.000259032
FINAL SINGLE POINT ENERGY      -115.732585077982

DIPOLE MOMENT
-------------
                                X             Y             Z
Electronic contribution:     -1.56732       0.21861       0.84267
Nuclear contribution   :      2.02757       0.22414      -1.23621
                        -----------------------------------------
Total Dipole Moment    :      0.46026       0.44275      -0.39354
                        -----------------------------------------
Magnitude (a.u.)       :      0.75016
Magnitude (Debye)      :      1.90675

Rotational constants in cm-1:     4.377102     0.779532     0.747831
Rotational constants in MHz : 131222.219904 23369.794712 22419.412420

                             ****ORCA TERMINATED NORMALLY****
TOTAL RUN TIME: 0 days 0 hours 0 minutes 45 seconds 896 msec
