                         Program Version 4.1.2  - RELEASE  -
|  1> #Run DFT-D3 single point of the dimer
|  2> ! wB97X-D3 def2-TZVP TIGHTSCF CHELPG PMODEL PAL8
|  3>
|  4> %base "17-81_DFT_AB"
|  5>
|  6> %scf
|  7> MaxIter 1000
|  8> end
|  9>
| 10> * xyz 0 1
| 11>   C                      -1.143472            3.251015             -8.383428
| 12>   O                      -1.942154            2.903486             -9.464382
| 13>   H                      -1.698939            3.509440             -10.183064
| 14>   H                      -1.426148            2.504044             -7.571571
| 15>   H                      -0.084644            3.152513             -8.594473
| 16>   H                      -1.392792            4.268874             -8.070492
| 17>   C                      0.867542             3.912928             -3.182663
| 18>   O                      2.242398             3.624090             -3.323896
| 19>   H                      2.326476             3.199194             -4.209567
| 20>   H                      0.454290             2.951350             -2.958725
| 21>   H                      0.678797             4.536893             -2.275241
| 22>   H                      0.363630             4.368854             -4.072581
| 23> *
| 24>
| 25> #Run DFT-D3 single point of the molecule with dimer basis set
| 26> $new_job
| 27> %base "17-81_DFT_A"
| 28> ! wB97X-D3 def2-TZVP TIGHTSCF CHELPG PMODEL
| 29>
| 30> %scf
| 31> MaxIter 1000
| 32> end
| 33>
| 34> * xyz 0 1
| 35>   C                      -1.143472            3.251015             -8.383428
| 36>   O                      -1.942154            2.903486             -9.464382
| 37>   H                      -1.698939            3.509440             -10.183064
| 38>   H                      -1.426148            2.504044             -7.571571
| 39>   H                      -0.084644            3.152513             -8.594473
| 40>   H                      -1.392792            4.268874             -8.070492
| 41>   C                    : 0.867542             3.912928             -3.182663
| 42>   O                    : 2.242398             3.624090             -3.323896
| 43>   H                    : 2.326476             3.199194             -4.209567
| 44>   H                    : 0.454290             2.951350             -2.958725
| 45>   H                    : 0.678797             4.536893             -2.275241
| 46>   H                    : 0.363630             4.368854             -4.072581
| 47> *
| 48>
| 49> #Run DFT-D3 single point of the particle with dimer basis set
| 50> $new_job
| 51> %base "17-81_DFT_B"
| 52> ! wB97X-D3 def2-TZVP TIGHTSCF CHELPG PMODEL
| 53>
| 54> %scf
| 55> MaxIter 1000
| 56> end
| 57>
| 58> * xyz 0 1
| 59>   C                    : -1.143472            3.251015             -8.383428
| 60>   O                    : -1.942154            2.903486             -9.464382
| 61>   H                    : -1.698939            3.509440             -10.183064
| 62>   H                    : -1.426148            2.504044             -7.571571
| 63>   H                    : -0.084644            3.152513             -8.594473
| 64>   H                    : -1.392792            4.268874             -8.070492
| 65>   C                      0.867542             3.912928             -3.182663
| 66>   O                      2.242398             3.624090             -3.323896
| 67>   H                      2.326476             3.199194             -4.209567
| 68>   H                      0.454290             2.951350             -2.958725
| 69>   H                      0.678797             4.536893             -2.275241
| 70>   H                      0.363630             4.368854             -4.072581
| 71> *
| 72>
| 73>                          ****END OF INPUT****
 Total Charge           Charge          ....    0
 Multiplicity           Mult            ....    1
 Number of Electrons    NEL             ....   36
Dispersion correction           -0.000608074
FINAL SINGLE POINT ENERGY      -231.465143562581
Dispersion correction           -0.000216689
FINAL SINGLE POINT ENERGY      -115.734396371766

CARTESIAN COORDINATES (ANGSTROEM)
---------------------------------
  C     -1.143472    3.251015   -8.383428
  O     -1.942154    2.903486   -9.464382
  H     -1.698939    3.509440  -10.183064
  H     -1.426148    2.504044   -7.571571
  H     -0.084644    3.152513   -8.594473
  H     -1.392792    4.268874   -8.070492
  C      0.867542    3.912928   -3.182663
  O      2.242398    3.624090   -3.323896
  H      2.326476    3.199194   -4.209567
  H      0.454290    2.951350   -2.958725
  H      0.678797    4.536893   -2.275241
  H      0.363630    4.368854   -4.072581

 Multiplicity           Mult            ....    1
 Number of Electrons    NEL             ....   18
 Basis Dimension        Dim             ....  172

ORBITAL ENERGIES
----------------

  NO   OCC          E(Eh)            E(eV)
   0   2.0000     -19.231081      -523.3043
   1   2.0000     -10.314343      -280.6675
   2   2.0000      -1.133709       -30.8498
   3   2.0000      -0.788759       -21.4632
   4   2.0000      -0.604733       -16.4556
   5   2.0000      -0.545298       -14.8383
   6   2.0000      -0.524477       -14.2718
   7   2.0000      -0.434412       -11.8210
   8   2.0000      -0.368880       -10.0377
   9   0.0000       0.079130         2.1532
  10   0.0000       0.111048         3.0218
  11   0.0000       0.148173         4.0320
  12   0.0000       0.167331         4.5533
  13   0.0000       0.184473         5.0198

MULLIKEN ATOMIC CHARGES
-----------------------
   0 C :    0.000021
   1 O :   -0.000001
   2 H :   -0.000000
   3 H :   -0.000028
   4 H :   -0.000009
   5 H :   -0.000039
   6 C :   -0.169771
   7 O :   -0.472620
   8 H :    0.315735
   9 H :    0.106666
  10 H :    0.117375
  11 H :    0.102671
Sum of atomic charges:    0.0000000

LOEWDIN ATOMIC CHARGES
----------------------
   0 C :   -0.000054
   1 O :   -0.000001
   2 H :   -0.000000
   3 H :   -0.000013
   4 H :   -0.000003
   5 H :   -0.000020
   6 C :   -0.396809
   7 O :   -0.091359
   8 H :    0.185413
   9 H :    0.091900
  10 H :    0.112549
  11 H :    0.098397

  Mayer bond orders larger than 0.1
B(  6-C ,  7-O ) :   0.9906 B(  6-C ,  9-H ) :   0.9900 B(  6-C , 10-H ) :   0.9703
B(  6-C , 11-H ) :   0.9684 B(  7-O ,  8-H ) :   0.8963

Dispersion correction           -0.000229314
FINAL SINGLE POINT ENERGY      -115.730688817385

DIPOLE MOMENT
-------------
                                X             Y             Z
Electronic contribution:      1.79225      -0.21382      -0.09921
Nuclear contribution   :     -2.27663       0.05104      -0.38022
                        -----------------------------------------
Total Dipole Moment    :     -0.48438      -0.16278      -0.47943
                        -----------------------------------------
Magnitude (a.u.)       :      0.70069
Magnitude (Debye)      :      1.78102

Rotational constants in cm-1:     4.169019     0.839840     0.802557
Rotational constants in MHz : 124984.039164 25177.775859 24060.065254

                             ****ORCA TERMINATED NORMALLY****
TOTAL RUN TIME: 0 days 0 hours 1 minutes 4 seconds 358 msec
