                         Program Version 4.1.2  - RELEASE  -
|  1> #Run DFT-D3 single point of the dimer
|  2> ! wB97X-D3 def2-TZVP TIGHTSCF CHELPG PMODEL PAL8
|  3>
|  4> %base "1-21_DFT_AB"
|  5>
|  6> %scf
|  7> MaxIter 1000
|  8> end
|  9>
| 10> * xyz 0 1
| 11>   C                      -2.881200            5.269052             1.066537
| 12>   O                      -2.445104            4.075524             0.341486
| 13>   H                      -2.756895            4.205874             -0.534556
| 14>   H                      -3.832270            5.165989             1.402556
| 15>   H                      -2.191036            5.618454             1.900053
| 16>   H                      -2.957396            6.094008             0.292697
| 17>   C                      -5.483037            7.300299             -1.008413
| 18>   O                      -5.819396            8.662700             -0.637939
| 19>   H                      -6.117906            9.242234             -1.359859
| 20>   H                      -4.475292            7.022951             -0.745541
| 21>   H                      -6.112279            6.623709             -0.355056
| 22>   H                      -5.780481            6.976767             -2.064381
| 23> *
| 24>
| 25> #Run DFT-D3 single point of the molecule with dimer basis set
| 26> $new_job
| 27> %base "1-21_DFT_A"
| 28> ! wB97X-D3 def2-TZVP TIGHTSCF CHELPG PMODEL
| 29>
| 30> %scf
| 31> MaxIter 1000
| 32> end
| 33>
| 34> * xyz 0 1
| 35>   C                      -2.881200            5.269052             1.066537
| 36>   O                      -2.445104            4.075524             0.341486
| 37>   H                      -2.756895            4.205874             -0.534556
| 38>   H                      -3.832270            5.165989             1.402556
| 39>   H                      -2.191036            5.618454             1.900053
| 40>   H                      -2.957396            6.094008             0.292697
| 41>   C                    : -5.483037            7.300299             -1.008413
| 42>   O                    : -5.819396            8.662700             -0.637939
| 43>   H                    : -6.117906            9.242234             -1.359859
| 44>   H                    : -4.475292            7.022951             -0.745541
| 45>   H                    : -6.112279            6.623709             -0.355056
| 46>   H                    : -5.780481            6.976767             -2.064381
| 47> *
| 48>
| 49> #Run DFT-D3 single point of the particle with dimer basis set
| 50> $new_job
| 51> %base "1-21_DFT_B"
| 52> ! wB97X-D3 def2-TZVP TIGHTSCF CHELPG PMODEL
| 53>
| 54> %scf
| 55> MaxIter 1000
| 56> end
| 57>
| 58> * xyz 0 1
| 59>   C                    : -2.881200            5.269052             1.066537
| 60>   O                    : -2.445104            4.075524             0.341486
| 61>   H                    : -2.756895            4.205874             -0.534556
| 62>   H                    : -3.832270            5.165989             1.402556
| 63>   H                    : -2.191036            5.618454             1.900053
| 64>   H                    : -2.957396            6.094008             0.292697
| 65>   C                      -5.483037            7.300299             -1.008413
| 66>   O                      -5.819396            8.662700             -0.637939
| 67>   H                      -6.117906            9.242234             -1.359859
| 68>   H                      -4.475292            7.022951             -0.745541
| 69>   H                      -6.112279            6.623709             -0.355056
| 70>   H                      -5.780481            6.976767             -2.064381
| 71> *
| 72>
| 73>                          ****END OF INPUT****
 Total Charge           Charge          ....    0
 Multiplicity           Mult            ....    1
 Number of Electrons    NEL             ....   36
Dispersion correction           -0.001571640
FINAL SINGLE POINT ENERGY      -231.452117844521
Dispersion correction           -0.000244874
FINAL SINGLE POINT ENERGY      -115.724556480023

CARTESIAN COORDINATES (ANGSTROEM)
---------------------------------
  C     -2.881200    5.269052    1.066537
  O     -2.445104    4.075524    0.341486
  H     -2.756895    4.205874   -0.534556
  H     -3.832270    5.165989    1.402556
  H     -2.191036    5.618454    1.900053
  H     -2.957396    6.094008    0.292697
  C     -5.483037    7.300299   -1.008413
  O     -5.819396    8.662700   -0.637939
  H     -6.117906    9.242234   -1.359859
  H     -4.475292    7.022951   -0.745541
  H     -6.112279    6.623709   -0.355056
  H     -5.780481    6.976767   -2.064381

 Multiplicity           Mult            ....    1
 Number of Electrons    NEL             ....   18
 Basis Dimension        Dim             ....  172

ORBITAL ENERGIES
----------------

  NO   OCC          E(Eh)            E(eV)
   0   2.0000     -19.230158      -523.2792
   1   2.0000     -10.325387      -280.9681
   2   2.0000      -1.118277       -30.4299
   3   2.0000      -0.795683       -21.6516
   4   2.0000      -0.603560       -16.4237
   5   2.0000      -0.536579       -14.6010
   6   2.0000      -0.515188       -14.0190
   7   2.0000      -0.427119       -11.6225
   8   2.0000      -0.371267       -10.1027
   9   0.0000       0.086882         2.3642
  10   0.0000       0.114384         3.1125
  11   0.0000       0.152954         4.1621
  12   0.0000       0.163932         4.4608
  13   0.0000       0.186274         5.0688

MULLIKEN ATOMIC CHARGES
-----------------------
   0 C :   -0.001948
   1 O :    0.000089
   2 H :   -0.000063
   3 H :   -0.000449
   4 H :    0.000010
   5 H :    0.003565
   6 C :   -0.164105
   7 O :   -0.494331
   8 H :    0.322463
   9 H :    0.118590
  10 H :    0.107352
  11 H :    0.108826
Sum of atomic charges:    0.0000000

LOEWDIN ATOMIC CHARGES
----------------------
   0 C :   -0.004314
   1 O :   -0.000008
   2 H :   -0.000135
   3 H :   -0.000677
   4 H :   -0.000021
   5 H :   -0.008028
   6 C :   -0.364616
   7 O :   -0.111442
   8 H :    0.171942
   9 H :    0.101223
  10 H :    0.109445
  11 H :    0.106631

  Mayer bond orders larger than 0.1
B(  6-C ,  7-O ) :   1.0082 B(  6-C ,  9-H ) :   0.9659 B(  6-C , 10-H ) :   0.9804
B(  6-C , 11-H ) :   0.9717 B(  7-O ,  8-H ) :   0.8906

Dispersion correction           -0.000304026
FINAL SINGLE POINT ENERGY      -115.727729186302

DIPOLE MOMENT
-------------
                                X             Y             Z
Electronic contribution:     -0.23818       1.79703       0.46654
Nuclear contribution   :      0.17384      -1.99811      -1.09404
                        -----------------------------------------
Total Dipole Moment    :     -0.06434      -0.20109      -0.62751
                        -----------------------------------------
Magnitude (a.u.)       :      0.66207
Magnitude (Debye)      :      1.68285

Rotational constants in cm-1:     4.297438     0.779001     0.748672
Rotational constants in MHz : 128833.939557 23353.873089 22444.608139

                             ****ORCA TERMINATED NORMALLY****
TOTAL RUN TIME: 0 days 0 hours 4 minutes 32 seconds 45 msec
