                         Program Version 4.1.2  - RELEASE  -
|  1> #Run DFT-D3 single point of the dimer
|  2> ! wB97X-D3 def2-TZVP TIGHTSCF CHELPG PMODEL PAL8
|  3>
|  4> %base "10-93_DFT_AB"
|  5>
|  6> %scf
|  7> MaxIter 1000
|  8> end
|  9>
| 10> * xyz 0 1
| 11>   C                      0.325050             3.682876             4.670970
| 12>   O                      -0.846528            4.166738             4.035653
| 13>   H                      -1.548622            4.059657             4.702336
| 14>   H                      0.917244             3.089913             4.008710
| 15>   H                      1.078371             4.362851             4.962118
| 16>   H                      0.047949             3.124406             5.575140
| 17>   C                      -0.316782            6.480354             7.339445
| 18>   O                      -0.796057            6.418190             8.705326
| 19>   H                      -1.159090            7.322164             8.853414
| 20>   H                      0.790307             6.282609             7.339717
| 21>   H                      -0.731684            5.736807             6.688300
| 22>   H                      -0.368554            7.499129             6.910109
| 23> *
| 24>
| 25> #Run DFT-D3 single point of the molecule with dimer basis set
| 26> $new_job
| 27> %base "10-93_DFT_A"
| 28> ! wB97X-D3 def2-TZVP TIGHTSCF CHELPG PMODEL
| 29>
| 30> %scf
| 31> MaxIter 1000
| 32> end
| 33>
| 34> * xyz 0 1
| 35>   C                      0.325050             3.682876             4.670970
| 36>   O                      -0.846528            4.166738             4.035653
| 37>   H                      -1.548622            4.059657             4.702336
| 38>   H                      0.917244             3.089913             4.008710
| 39>   H                      1.078371             4.362851             4.962118
| 40>   H                      0.047949             3.124406             5.575140
| 41>   C                    : -0.316782            6.480354             7.339445
| 42>   O                    : -0.796057            6.418190             8.705326
| 43>   H                    : -1.159090            7.322164             8.853414
| 44>   H                    : 0.790307             6.282609             7.339717
| 45>   H                    : -0.731684            5.736807             6.688300
| 46>   H                    : -0.368554            7.499129             6.910109
| 47> *
| 48>
| 49> #Run DFT-D3 single point of the particle with dimer basis set
| 50> $new_job
| 51> %base "10-93_DFT_B"
| 52> ! wB97X-D3 def2-TZVP TIGHTSCF CHELPG PMODEL
| 53>
| 54> %scf
| 55> MaxIter 1000
| 56> end
| 57>
| 58> * xyz 0 1
| 59>   C                    : 0.325050             3.682876             4.670970
| 60>   O                    : -0.846528            4.166738             4.035653
| 61>   H                    : -1.548622            4.059657             4.702336
| 62>   H                    : 0.917244             3.089913             4.008710
| 63>   H                    : 1.078371             4.362851             4.962118
| 64>   H                    : 0.047949             3.124406             5.575140
| 65>   C                      -0.316782            6.480354             7.339445
| 66>   O                      -0.796057            6.418190             8.705326
| 67>   H                      -1.159090            7.322164             8.853414
| 68>   H                      0.790307             6.282609             7.339717
| 69>   H                      -0.731684            5.736807             6.688300
| 70>   H                      -0.368554            7.499129             6.910109
| 71> *
| 72>
| 73>                          ****END OF INPUT****
 Total Charge           Charge          ....    0
 Multiplicity           Mult            ....    1
 Number of Electrons    NEL             ....   36
Dispersion correction           -0.001659394
FINAL SINGLE POINT ENERGY      -231.460909140506
Dispersion correction           -0.000247701
FINAL SINGLE POINT ENERGY      -115.728808217989

CARTESIAN COORDINATES (ANGSTROEM)
---------------------------------
  C      0.325050    3.682876    4.670970
  O     -0.846528    4.166738    4.035653
  H     -1.548622    4.059657    4.702336
  H      0.917244    3.089913    4.008710
  H      1.078371    4.362851    4.962118
  H      0.047949    3.124406    5.575140
  C     -0.316782    6.480354    7.339445
  O     -0.796057    6.418190    8.705326
  H     -1.159090    7.322164    8.853414
  H      0.790307    6.282609    7.339717
  H     -0.731684    5.736807    6.688300
  H     -0.368554    7.499129    6.910109

 Multiplicity           Mult            ....    1
 Number of Electrons    NEL             ....   18
 Basis Dimension        Dim             ....  172

ORBITAL ENERGIES
----------------

  NO   OCC          E(Eh)            E(eV)
   0   2.0000     -19.235515      -523.4250
   1   2.0000     -10.318134      -280.7707
   2   2.0000      -1.124884       -30.6096
   3   2.0000      -0.792691       -21.5702
   4   2.0000      -0.602791       -16.4028
   5   2.0000      -0.538477       -14.6527
   6   2.0000      -0.518240       -14.1020
   7   2.0000      -0.441185       -12.0052
   8   2.0000      -0.373743       -10.1701
   9   0.0000       0.085871         2.3367
  10   0.0000       0.110324         3.0021
  11   0.0000       0.155626         4.2348
  12   0.0000       0.159438         4.3385
  13   0.0000       0.183322         4.9884

MULLIKEN ATOMIC CHARGES
-----------------------
   0 C :   -0.000037
   1 O :   -0.000055
   2 H :   -0.000192
   3 H :    0.000058
   4 H :   -0.000093
   5 H :    0.000216
   6 C :   -0.197800
   7 O :   -0.467121
   8 H :    0.318380
   9 H :    0.109130
  10 H :    0.125045
  11 H :    0.112470
Sum of atomic charges:   -0.0000000

LOEWDIN ATOMIC CHARGES
----------------------
   0 C :   -0.004393
   1 O :   -0.000530
   2 H :   -0.001485
   3 H :   -0.000036
   4 H :   -0.001082
   5 H :   -0.000489
   6 C :   -0.370733
   7 O :   -0.111264
   8 H :    0.184605
   9 H :    0.107322
  10 H :    0.097282
  11 H :    0.100803

  Mayer bond orders larger than 0.1
B(  6-C ,  7-O ) :   1.0097 B(  6-C ,  9-H ) :   0.9763 B(  6-C , 10-H ) :   0.9681
B(  6-C , 11-H ) :   0.9812 B(  7-O ,  8-H ) :   0.8993

Dispersion correction           -0.000265145
FINAL SINGLE POINT ENERGY      -115.730693797530

DIPOLE MOMENT
-------------
                                X             Y             Z
Electronic contribution:     -0.75743      -0.27071       1.73635
Nuclear contribution   :      0.72902       0.86953      -2.19371
                        -----------------------------------------
Total Dipole Moment    :     -0.02841       0.59881      -0.45735
                        -----------------------------------------
Magnitude (a.u.)       :      0.75403
Magnitude (Debye)      :      1.91659

Rotational constants in cm-1:     4.214118     0.799283     0.765745
Rotational constants in MHz : 126336.075050 23961.888389 22956.471866

                             ****ORCA TERMINATED NORMALLY****
TOTAL RUN TIME: 0 days 0 hours 0 minutes 59 seconds 819 msec
