                         Program Version 4.1.2  - RELEASE  -
|  1> #Run DFT-D3 single point of the dimer
|  2> ! wB97X-D3 def2-TZVP TIGHTSCF CHELPG PMODEL PAL8
|  3>
|  4> %base "7-139_DFT_AB"
|  5>
|  6> %scf
|  7> MaxIter 1000
|  8> end
|  9>
| 10> * xyz 0 1
| 11>   C                      -0.791871            0.813297             -8.061991
| 12>   O                      0.599258             1.023185             -8.096228
| 13>   H                      0.860506             1.887036             -7.719944
| 14>   H                      -1.410076            1.673867             -8.405220
| 15>   H                      -1.066712            -0.003070            -8.757313
| 16>   H                      -1.275459            0.581455             -7.114919
| 17>   C                      0.571452             5.757147             -9.310984
| 18>   O                      0.521628             4.402486             -9.201155
| 19>   H                      0.086074             4.339337             -8.344764
| 20>   H                      0.854972             6.019808             -10.346947
| 21>   H                      -0.502939            6.082742             -9.134544
| 22>   H                      1.119985             6.190823             -8.585950
| 23> *
| 24>
| 25> #Run DFT-D3 single point of the molecule with dimer basis set
| 26> $new_job
| 27> %base "7-139_DFT_A"
| 28> ! wB97X-D3 def2-TZVP TIGHTSCF CHELPG PMODEL
| 29>
| 30> %scf
| 31> MaxIter 1000
| 32> end
| 33>
| 34> * xyz 0 1
| 35>   C                      -0.791871            0.813297             -8.061991
| 36>   O                      0.599258             1.023185             -8.096228
| 37>   H                      0.860506             1.887036             -7.719944
| 38>   H                      -1.410076            1.673867             -8.405220
| 39>   H                      -1.066712            -0.003070            -8.757313
| 40>   H                      -1.275459            0.581455             -7.114919
| 41>   C                    : 0.571452             5.757147             -9.310984
| 42>   O                    : 0.521628             4.402486             -9.201155
| 43>   H                    : 0.086074             4.339337             -8.344764
| 44>   H                    : 0.854972             6.019808             -10.346947
| 45>   H                    : -0.502939            6.082742             -9.134544
| 46>   H                    : 1.119985             6.190823             -8.585950
| 47> *
| 48>
| 49> #Run DFT-D3 single point of the particle with dimer basis set
| 50> $new_job
| 51> %base "7-139_DFT_B"
| 52> ! wB97X-D3 def2-TZVP TIGHTSCF CHELPG PMODEL
| 53>
| 54> %scf
| 55> MaxIter 1000
| 56> end
| 57>
| 58> * xyz 0 1
| 59>   C                    : -0.791871            0.813297             -8.061991
| 60>   O                    : 0.599258             1.023185             -8.096228
| 61>   H                    : 0.860506             1.887036             -7.719944
| 62>   H                    : -1.410076            1.673867             -8.405220
| 63>   H                    : -1.066712            -0.003070            -8.757313
| 64>   H                    : -1.275459            0.581455             -7.114919
| 65>   C                      0.571452             5.757147             -9.310984
| 66>   O                      0.521628             4.402486             -9.201155
| 67>   H                      0.086074             4.339337             -8.344764
| 68>   H                      0.854972             6.019808             -10.346947
| 69>   H                      -0.502939            6.082742             -9.134544
| 70>   H                      1.119985             6.190823             -8.585950
| 71> *
| 72>
| 73>                          ****END OF INPUT****
 Total Charge           Charge          ....    0
 Multiplicity           Mult            ....    1
 Number of Electrons    NEL             ....   36
Dispersion correction           -0.001360683
FINAL SINGLE POINT ENERGY      -231.453871393281
Dispersion correction           -0.000281572
FINAL SINGLE POINT ENERGY      -115.733077214774

CARTESIAN COORDINATES (ANGSTROEM)
---------------------------------
  C     -0.791871    0.813297   -8.061991
  O      0.599258    1.023185   -8.096228
  H      0.860506    1.887036   -7.719944
  H     -1.410076    1.673867   -8.405220
  H     -1.066712   -0.003070   -8.757313
  H     -1.275459    0.581455   -7.114919
  C      0.571452    5.757147   -9.310984
  O      0.521628    4.402486   -9.201155
  H      0.086074    4.339337   -8.344764
  H      0.854972    6.019808  -10.346947
  H     -0.502939    6.082742   -9.134544
  H      1.119985    6.190823   -8.585950

 Multiplicity           Mult            ....    1
 Number of Electrons    NEL             ....   18
 Basis Dimension        Dim             ....  172

ORBITAL ENERGIES
----------------

  NO   OCC          E(Eh)            E(eV)
   0   2.0000     -19.229467      -523.2604
   1   2.0000     -10.305534      -280.4278
   2   2.0000      -1.161169       -31.5970
   3   2.0000      -0.789648       -21.4874
   4   2.0000      -0.626733       -17.0543
   5   2.0000      -0.556409       -15.1407
   6   2.0000      -0.530912       -14.4469
   7   2.0000      -0.439544       -11.9606
   8   2.0000      -0.367503       -10.0003
   9   0.0000       0.085584         2.3289
  10   0.0000       0.119807         3.2601
  11   0.0000       0.159940         4.3522
  12   0.0000       0.180295         4.9061
  13   0.0000       0.197573         5.3762

MULLIKEN ATOMIC CHARGES
-----------------------
   0 C :    0.000783
   1 O :    0.000483
   2 H :   -0.003861
   3 H :   -0.002325
   4 H :   -0.000027
   5 H :   -0.000044
   6 C :   -0.167961
   7 O :   -0.444563
   8 H :    0.317410
   9 H :    0.111519
  10 H :    0.081240
  11 H :    0.107347
Sum of atomic charges:    0.0000000

LOEWDIN ATOMIC CHARGES
----------------------
   0 C :   -0.001156
   1 O :   -0.000514
   2 H :   -0.004025
   3 H :   -0.001186
   4 H :   -0.000006
   5 H :   -0.000009
   6 C :   -0.421243
   7 O :   -0.036685
   8 H :    0.182173
   9 H :    0.111510
  10 H :    0.100011
  11 H :    0.071130

  Mayer bond orders larger than 0.1
B(  6-C ,  7-O ) :   1.0016 B(  6-C ,  9-H ) :   0.9738 B(  6-C , 10-H ) :   1.0009
B(  6-C , 11-H ) :   0.9714 B(  7-O ,  8-H ) :   0.8976

Dispersion correction           -0.000171135
FINAL SINGLE POINT ENERGY      -115.721181915926

DIPOLE MOMENT
-------------
                                X             Y             Z
Electronic contribution:      0.28058      -1.75703       0.01365
Nuclear contribution   :     -0.50349       2.20382       0.47675
                        -----------------------------------------
Total Dipole Moment    :     -0.22291       0.44679       0.49040
                        -----------------------------------------
Magnitude (a.u.)       :      0.69986
Magnitude (Debye)      :      1.77889

Rotational constants in cm-1:     4.177254     0.919981     0.870153
Rotational constants in MHz : 125230.922228 27580.347841 26086.526466

                             ****ORCA TERMINATED NORMALLY****
TOTAL RUN TIME: 0 days 0 hours 1 minutes 2 seconds 300 msec
