                         Program Version 4.1.2  - RELEASE  -
|  1> #Run DFT-D3 single point of the dimer
|  2> ! wB97X-D3 def2-TZVP TIGHTSCF CHELPG PMODEL PAL8
|  3>
|  4> %base "6-95_DFT_AB"
|  5>
|  6> %scf
|  7> MaxIter 1000
|  8> end
|  9>
| 10> * xyz 0 1
| 11>   C                      6.664978             3.067073             1.226311
| 12>   O                      8.059023             2.989451             1.564592
| 13>   H                      8.160365             2.945944             2.478638
| 14>   H                      6.091341             2.145018             1.217380
| 15>   H                      6.072127             3.731938             1.852075
| 16>   H                      6.459341             3.559162             0.310594
| 17>   C                      3.907215             -1.347456            -1.080740
| 18>   O                      3.559798             -1.759737            0.190437
| 19>   H                      3.127090             -1.043949            0.616142
| 20>   H                      3.067104             -1.087912            -1.704948
| 21>   H                      4.430530             -0.384175            -0.984382
| 22>   H                      4.629387             -2.130290            -1.448063
| 23> *
| 24>
| 25> #Run DFT-D3 single point of the molecule with dimer basis set
| 26> $new_job
| 27> %base "6-95_DFT_A"
| 28> ! wB97X-D3 def2-TZVP TIGHTSCF CHELPG PMODEL
| 29>
| 30> %scf
| 31> MaxIter 1000
| 32> end
| 33>
| 34> * xyz 0 1
| 35>   C                      6.664978             3.067073             1.226311
| 36>   O                      8.059023             2.989451             1.564592
| 37>   H                      8.160365             2.945944             2.478638
| 38>   H                      6.091341             2.145018             1.217380
| 39>   H                      6.072127             3.731938             1.852075
| 40>   H                      6.459341             3.559162             0.310594
| 41>   C                    : 3.907215             -1.347456            -1.080740
| 42>   O                    : 3.559798             -1.759737            0.190437
| 43>   H                    : 3.127090             -1.043949            0.616142
| 44>   H                    : 3.067104             -1.087912            -1.704948
| 45>   H                    : 4.430530             -0.384175            -0.984382
| 46>   H                    : 4.629387             -2.130290            -1.448063
| 47> *
| 48>
| 49> #Run DFT-D3 single point of the particle with dimer basis set
| 50> $new_job
| 51> %base "6-95_DFT_B"
| 52> ! wB97X-D3 def2-TZVP TIGHTSCF CHELPG PMODEL
| 53>
| 54> %scf
| 55> MaxIter 1000
| 56> end
| 57>
| 58> * xyz 0 1
| 59>   C                    : 6.664978             3.067073             1.226311
| 60>   O                    : 8.059023             2.989451             1.564592
| 61>   H                    : 8.160365             2.945944             2.478638
| 62>   H                    : 6.091341             2.145018             1.217380
| 63>   H                    : 6.072127             3.731938             1.852075
| 64>   H                    : 6.459341             3.559162             0.310594
| 65>   C                      3.907215             -1.347456            -1.080740
| 66>   O                      3.559798             -1.759737            0.190437
| 67>   H                      3.127090             -1.043949            0.616142
| 68>   H                      3.067104             -1.087912            -1.704948
| 69>   H                      4.430530             -0.384175            -0.984382
| 70>   H                      4.629387             -2.130290            -1.448063
| 71> *
| 72>
| 73>                          ****END OF INPUT****
 Total Charge           Charge          ....    0
 Multiplicity           Mult            ....    1
 Number of Electrons    NEL             ....   36
Dispersion correction           -0.000676618
FINAL SINGLE POINT ENERGY      -231.458667818870
Dispersion correction           -0.000278732
FINAL SINGLE POINT ENERGY      -115.727798684758

CARTESIAN COORDINATES (ANGSTROEM)
---------------------------------
  C      6.664978    3.067073    1.226311
  O      8.059023    2.989451    1.564592
  H      8.160365    2.945944    2.478638
  H      6.091341    2.145018    1.217380
  H      6.072127    3.731938    1.852075
  H      6.459341    3.559162    0.310594
  C      3.907215   -1.347456   -1.080740
  O      3.559798   -1.759737    0.190437
  H      3.127090   -1.043949    0.616142
  H      3.067104   -1.087912   -1.704948
  H      4.430530   -0.384175   -0.984382
  H      4.629387   -2.130290   -1.448063

 Multiplicity           Mult            ....    1
 Number of Electrons    NEL             ....   18
 Basis Dimension        Dim             ....  172

ORBITAL ENERGIES
----------------

  NO   OCC          E(Eh)            E(eV)
   0   2.0000     -19.225796      -523.1605
   1   2.0000     -10.311923      -280.6017
   2   2.0000      -1.151181       -31.3252
   3   2.0000      -0.792756       -21.5720
   4   2.0000      -0.625391       -17.0178
   5   2.0000      -0.543061       -14.7774
   6   2.0000      -0.525209       -14.2917
   7   2.0000      -0.435900       -11.8614
   8   2.0000      -0.368479       -10.0268
   9   0.0000       0.081136         2.2078
  10   0.0000       0.113324         3.0837
  11   0.0000       0.156925         4.2701
  12   0.0000       0.164259         4.4697
  13   0.0000       0.184079         5.0090

MULLIKEN ATOMIC CHARGES
-----------------------
   0 C :   -0.000351
   1 O :    0.000005
   2 H :    0.000001
   3 H :    0.000367
   4 H :    0.000008
   5 H :    0.000030
   6 C :   -0.163212
   7 O :   -0.462522
   8 H :    0.309324
   9 H :    0.100378
  10 H :    0.094362
  11 H :    0.121610
Sum of atomic charges:   -0.0000000

LOEWDIN ATOMIC CHARGES
----------------------
   0 C :   -0.000087
   1 O :   -0.000001
   2 H :   -0.000000
   3 H :   -0.000077
   4 H :   -0.000000
   5 H :   -0.000007
   6 C :   -0.411271
   7 O :   -0.045701
   8 H :    0.155984
   9 H :    0.088667
  10 H :    0.093200
  11 H :    0.119294

  Mayer bond orders larger than 0.1
B(  6-C ,  7-O ) :   0.9973 B(  6-C ,  9-H ) :   0.9680 B(  6-C , 10-H ) :   0.9858
B(  6-C , 11-H ) :   0.9727 B(  7-O ,  8-H ) :   0.9044

Dispersion correction           -0.000209262
FINAL SINGLE POINT ENERGY      -115.730853174263

DIPOLE MOMENT
-------------
                                X             Y             Z
Electronic contribution:     -0.48788      -0.74886       1.52791
Nuclear contribution   :      0.34124       1.37888      -1.71536
                        -----------------------------------------
Total Dipole Moment    :     -0.14663       0.63003      -0.18745
                        -----------------------------------------
Magnitude (a.u.)       :      0.67348
Magnitude (Debye)      :      1.71185

Rotational constants in cm-1:     4.187659     0.882315     0.834787
Rotational constants in MHz : 125542.856583 26451.146054 25026.278619

                             ****ORCA TERMINATED NORMALLY****
TOTAL RUN TIME: 0 days 0 hours 0 minutes 40 seconds 921 msec
