                         Program Version 4.1.2  - RELEASE  -
|  1> #Run DFT-D3 single point of the dimer
|  2> ! wB97X-D3 def2-TZVP TIGHTSCF CHELPG PMODEL PAL8
|  3>
|  4> %base "7-149_DFT_AB"
|  5>
|  6> %scf
|  7> MaxIter 1000
|  8> end
|  9>
| 10> * xyz 0 1
| 11>   C                      7.560265             4.536154             7.578513
| 12>   O                      7.874244             4.951479             8.946684
| 13>   H                      7.036518             5.037282             9.417587
| 14>   H                      7.386133             3.502118             7.605481
| 15>   H                      6.612294             4.970132             7.223736
| 16>   H                      8.342208             4.520084             6.856980
| 17>   C                      4.180189             2.958385             8.920042
| 18>   O                      3.642566             3.049578             7.658122
| 19>   H                      2.858319             2.567582             7.724482
| 20>   H                      5.314890             3.177197             8.823541
| 21>   H                      3.721327             3.587053             9.702145
| 22>   H                      4.083614             1.915289             9.254281
| 23> *
| 24>
| 25> #Run DFT-D3 single point of the molecule with dimer basis set
| 26> $new_job
| 27> %base "7-149_DFT_A"
| 28> ! wB97X-D3 def2-TZVP TIGHTSCF CHELPG PMODEL
| 29>
| 30> %scf
| 31> MaxIter 1000
| 32> end
| 33>
| 34> * xyz 0 1
| 35>   C                      7.560265             4.536154             7.578513
| 36>   O                      7.874244             4.951479             8.946684
| 37>   H                      7.036518             5.037282             9.417587
| 38>   H                      7.386133             3.502118             7.605481
| 39>   H                      6.612294             4.970132             7.223736
| 40>   H                      8.342208             4.520084             6.856980
| 41>   C                    : 4.180189             2.958385             8.920042
| 42>   O                    : 3.642566             3.049578             7.658122
| 43>   H                    : 2.858319             2.567582             7.724482
| 44>   H                    : 5.314890             3.177197             8.823541
| 45>   H                    : 3.721327             3.587053             9.702145
| 46>   H                    : 4.083614             1.915289             9.254281
| 47> *
| 48>
| 49> #Run DFT-D3 single point of the particle with dimer basis set
| 50> $new_job
| 51> %base "7-149_DFT_B"
| 52> ! wB97X-D3 def2-TZVP TIGHTSCF CHELPG PMODEL
| 53>
| 54> %scf
| 55> MaxIter 1000
| 56> end
| 57>
| 58> * xyz 0 1
| 59>   C                    : 7.560265             4.536154             7.578513
| 60>   O                    : 7.874244             4.951479             8.946684
| 61>   H                    : 7.036518             5.037282             9.417587
| 62>   H                    : 7.386133             3.502118             7.605481
| 63>   H                    : 6.612294             4.970132             7.223736
| 64>   H                    : 8.342208             4.520084             6.856980
| 65>   C                      4.180189             2.958385             8.920042
| 66>   O                      3.642566             3.049578             7.658122
| 67>   H                      2.858319             2.567582             7.724482
| 68>   H                      5.314890             3.177197             8.823541
| 69>   H                      3.721327             3.587053             9.702145
| 70>   H                      4.083614             1.915289             9.254281
| 71> *
| 72>
| 73>                          ****END OF INPUT****
 Total Charge           Charge          ....    0
 Multiplicity           Mult            ....    1
 Number of Electrons    NEL             ....   36
Dispersion correction           -0.001680046
FINAL SINGLE POINT ENERGY      -231.455529874013
Dispersion correction           -0.000252084
FINAL SINGLE POINT ENERGY      -115.724326586071

CARTESIAN COORDINATES (ANGSTROEM)
---------------------------------
  C      7.560265    4.536154    7.578513
  O      7.874244    4.951479    8.946684
  H      7.036518    5.037282    9.417587
  H      7.386133    3.502118    7.605481
  H      6.612294    4.970132    7.223736
  H      8.342208    4.520084    6.856980
  C      4.180189    2.958385    8.920042
  O      3.642566    3.049578    7.658122
  H      2.858319    2.567582    7.724482
  H      5.314890    3.177197    8.823541
  H      3.721327    3.587053    9.702145
  H      4.083614    1.915289    9.254281

 Multiplicity           Mult            ....    1
 Number of Electrons    NEL             ....   18
 Basis Dimension        Dim             ....  172

ORBITAL ENERGIES
----------------

  NO   OCC          E(Eh)            E(eV)
   0   2.0000     -19.229520      -523.2618
   1   2.0000     -10.318525      -280.7813
   2   2.0000      -1.161957       -31.6184
   3   2.0000      -0.788688       -21.4613
   4   2.0000      -0.624965       -17.0062
   5   2.0000      -0.547419       -14.8960
   6   2.0000      -0.526323       -14.3220
   7   2.0000      -0.433238       -11.7890
   8   2.0000      -0.374372       -10.1872
   9   0.0000       0.090457         2.4615
  10   0.0000       0.121547         3.3075
  11   0.0000       0.153852         4.1865
  12   0.0000       0.177735         4.8364
  13   0.0000       0.190316         5.1788

MULLIKEN ATOMIC CHARGES
-----------------------
   0 C :    0.003716
   1 O :   -0.000500
   2 H :   -0.000539
   3 H :   -0.000218
   4 H :   -0.000814
   5 H :    0.000275
   6 C :   -0.165409
   7 O :   -0.443876
   8 H :    0.307447
   9 H :    0.105040
  10 H :    0.096548
  11 H :    0.098329
Sum of atomic charges:   -0.0000000

LOEWDIN ATOMIC CHARGES
----------------------
   0 C :   -0.006243
   1 O :   -0.000368
   2 H :   -0.002196
   3 H :   -0.002706
   4 H :   -0.000862
   5 H :   -0.000038
   6 C :   -0.421648
   7 O :   -0.027378
   8 H :    0.150268
   9 H :    0.124692
  10 H :    0.092601
  11 H :    0.093879

  Mayer bond orders larger than 0.1
B(  6-C ,  7-O ) :   1.0099 B(  6-C ,  9-H ) :   0.9764 B(  6-C , 10-H ) :   0.9652
B(  6-C , 11-H ) :   0.9882 B(  7-O ,  8-H ) :   0.9097

Dispersion correction           -0.000219000
FINAL SINGLE POINT ENERGY      -115.729697264119

DIPOLE MOMENT
-------------
                                X             Y             Z
Electronic contribution:     -0.71586       0.28796      -1.72851
Nuclear contribution   :      0.39472      -0.65086       2.21118
                        -----------------------------------------
Total Dipole Moment    :     -0.32113      -0.36290       0.48267
                        -----------------------------------------
Magnitude (a.u.)       :      0.68396
Magnitude (Debye)      :      1.73848

Rotational constants in cm-1:     4.147227     0.876393     0.839101
Rotational constants in MHz : 124330.730015 26273.612847 25155.624374

                             ****ORCA TERMINATED NORMALLY****
TOTAL RUN TIME: 0 days 0 hours 1 minutes 5 seconds 739 msec
