                         Program Version 4.1.2  - RELEASE  -
|  1> #Run DFT-D3 single point of the dimer
|  2> ! wB97X-D3 def2-TZVP TIGHTSCF CHELPG PMODEL PAL8
|  3>
|  4> %base "10-32_DFT_AB"
|  5>
|  6> %scf
|  7> MaxIter 1000
|  8> end
|  9>
| 10> * xyz 0 1
| 11>   C                      -0.107336            -6.761295            -6.715591
| 12>   O                      -0.840736            -7.925506            -6.762882
| 13>   H                      -0.625648            -8.537022            -6.098598
| 14>   H                      0.918834             -6.900276            -6.443235
| 15>   H                      -0.136207            -6.196261            -7.628469
| 16>   H                      -0.460480            -6.062073            -5.931819
| 17>   C                      3.900362             -6.476290            -6.855185
| 18>   O                      3.207064             -5.324174            -6.360450
| 19>   H                      3.501172             -4.637270            -6.948847
| 20>   H                      3.526584             -6.779946            -7.863069
| 21>   H                      4.986917             -6.359107            -6.996146
| 22>   H                      3.705114             -7.313078            -6.190601
| 23> *
| 24>
| 25> #Run DFT-D3 single point of the molecule with dimer basis set
| 26> $new_job
| 27> %base "10-32_DFT_A"
| 28> ! wB97X-D3 def2-TZVP TIGHTSCF CHELPG PMODEL
| 29>
| 30> %scf
| 31> MaxIter 1000
| 32> end
| 33>
| 34> * xyz 0 1
| 35>   C                      -0.107336            -6.761295            -6.715591
| 36>   O                      -0.840736            -7.925506            -6.762882
| 37>   H                      -0.625648            -8.537022            -6.098598
| 38>   H                      0.918834             -6.900276            -6.443235
| 39>   H                      -0.136207            -6.196261            -7.628469
| 40>   H                      -0.460480            -6.062073            -5.931819
| 41>   C                    : 3.900362             -6.476290            -6.855185
| 42>   O                    : 3.207064             -5.324174            -6.360450
| 43>   H                    : 3.501172             -4.637270            -6.948847
| 44>   H                    : 3.526584             -6.779946            -7.863069
| 45>   H                    : 4.986917             -6.359107            -6.996146
| 46>   H                    : 3.705114             -7.313078            -6.190601
| 47> *
| 48>
| 49> #Run DFT-D3 single point of the particle with dimer basis set
| 50> $new_job
| 51> %base "10-32_DFT_B"
| 52> ! wB97X-D3 def2-TZVP TIGHTSCF CHELPG PMODEL
| 53>
| 54> %scf
| 55> MaxIter 1000
| 56> end
| 57>
| 58> * xyz 0 1
| 59>   C                    : -0.107336            -6.761295            -6.715591
| 60>   O                    : -0.840736            -7.925506            -6.762882
| 61>   H                    : -0.625648            -8.537022            -6.098598
| 62>   H                    : 0.918834             -6.900276            -6.443235
| 63>   H                    : -0.136207            -6.196261            -7.628469
| 64>   H                    : -0.460480            -6.062073            -5.931819
| 65>   C                      3.900362             -6.476290            -6.855185
| 66>   O                      3.207064             -5.324174            -6.360450
| 67>   H                      3.501172             -4.637270            -6.948847
| 68>   H                      3.526584             -6.779946            -7.863069
| 69>   H                      4.986917             -6.359107            -6.996146
| 70>   H                      3.705114             -7.313078            -6.190601
| 71> *
| 72>
| 73>                          ****END OF INPUT****
 Total Charge           Charge          ....    0
 Multiplicity           Mult            ....    1
 Number of Electrons    NEL             ....   36
Dispersion correction           -0.001627177
FINAL SINGLE POINT ENERGY      -231.469700549118
Dispersion correction           -0.000241885
FINAL SINGLE POINT ENERGY      -115.732631767665

CARTESIAN COORDINATES (ANGSTROEM)
---------------------------------
  C     -0.107336   -6.761295   -6.715591
  O     -0.840736   -7.925506   -6.762882
  H     -0.625648   -8.537022   -6.098598
  H      0.918834   -6.900276   -6.443235
  H     -0.136207   -6.196261   -7.628469
  H     -0.460480   -6.062073   -5.931819
  C      3.900362   -6.476290   -6.855185
  O      3.207064   -5.324174   -6.360450
  H      3.501172   -4.637270   -6.948847
  H      3.526584   -6.779946   -7.863069
  H      4.986917   -6.359107   -6.996146
  H      3.705114   -7.313078   -6.190601

 Multiplicity           Mult            ....    1
 Number of Electrons    NEL             ....   18
 Basis Dimension        Dim             ....  172

ORBITAL ENERGIES
----------------

  NO   OCC          E(Eh)            E(eV)
   0   2.0000     -19.234424      -523.3953
   1   2.0000     -10.317571      -280.7554
   2   2.0000      -1.137732       -30.9593
   3   2.0000      -0.794384       -21.6163
   4   2.0000      -0.611300       -16.6343
   5   2.0000      -0.532463       -14.4891
   6   2.0000      -0.524937       -14.2843
   7   2.0000      -0.447103       -12.1663
   8   2.0000      -0.375169       -10.2089
   9   0.0000       0.092267         2.5107
  10   0.0000       0.122243         3.3264
  11   0.0000       0.150273         4.0891
  12   0.0000       0.172074         4.6824
  13   0.0000       0.194454         5.2914

MULLIKEN ATOMIC CHARGES
-----------------------
   0 C :   -0.005329
   1 O :   -0.000001
   2 H :   -0.000006
   3 H :    0.006645
   4 H :   -0.001249
   5 H :   -0.000161
   6 C :   -0.190610
   7 O :   -0.461450
   8 H :    0.310377
   9 H :    0.099181
  10 H :    0.115678
  11 H :    0.126924
Sum of atomic charges:   -0.0000000

LOEWDIN ATOMIC CHARGES
----------------------
   0 C :   -0.004989
   1 O :   -0.000029
   2 H :   -0.000006
   3 H :   -0.004176
   4 H :   -0.000455
   5 H :   -0.000288
   6 C :   -0.381527
   7 O :   -0.075189
   8 H :    0.164049
   9 H :    0.097694
  10 H :    0.097027
  11 H :    0.107890

  Mayer bond orders larger than 0.1
B(  6-C ,  7-O ) :   0.9962 B(  6-C ,  9-H ) :   0.9758 B(  6-C , 10-H ) :   0.9659
B(  6-C , 11-H ) :   0.9772 B(  7-O ,  8-H ) :   0.9055

Dispersion correction           -0.000245417
FINAL SINGLE POINT ENERGY      -115.735304714619

DIPOLE MOMENT
-------------
                                X             Y             Z
Electronic contribution:     -0.92523       1.45382       0.84513
Nuclear contribution   :      1.39095      -1.48163      -1.39706
                        -----------------------------------------
Total Dipole Moment    :      0.46572      -0.02781      -0.55193
                        -----------------------------------------
Magnitude (a.u.)       :      0.72270
Magnitude (Debye)      :      1.83696

Rotational constants in cm-1:     4.265209     0.815486     0.782361
Rotational constants in MHz : 127867.752927 24447.667765 23454.584811

                             ****ORCA TERMINATED NORMALLY****
TOTAL RUN TIME: 0 days 0 hours 1 minutes 4 seconds 850 msec
