                         Program Version 4.1.2  - RELEASE  -
|  1> #Run DFT-D3 single point of the dimer
|  2> ! wB97X-D3 def2-TZVP TIGHTSCF CHELPG PMODEL PAL8
|  3>
|  4> %base "5-114_DFT_AB"
|  5>
|  6> %scf
|  7> MaxIter 1000
|  8> end
|  9>
| 10> * xyz 0 1
| 11>   C                      6.493591             -7.114689            5.665414
| 12>   O                      7.749158             -7.200561            5.023627
| 13>   H                      8.417499             -7.256658            5.702624
| 14>   H                      6.411173             -7.828988            6.442911
| 15>   H                      6.322881             -6.124128            6.161306
| 16>   H                      5.695959             -7.314876            5.013645
| 17>   C                      9.972915             -7.685073            0.459403
| 18>   O                      9.593615             -6.860634            1.550641
| 19>   H                      8.854218             -7.338539            1.910346
| 20>   H                      10.720847            -8.414273            0.751041
| 21>   H                      9.034047             -8.157437            0.053867
| 22>   H                      10.279727            -7.073836            -0.428352
| 23> *
| 24>
| 25> #Run DFT-D3 single point of the molecule with dimer basis set
| 26> $new_job
| 27> %base "5-114_DFT_A"
| 28> ! wB97X-D3 def2-TZVP TIGHTSCF CHELPG PMODEL
| 29>
| 30> %scf
| 31> MaxIter 1000
| 32> end
| 33>
| 34> * xyz 0 1
| 35>   C                      6.493591             -7.114689            5.665414
| 36>   O                      7.749158             -7.200561            5.023627
| 37>   H                      8.417499             -7.256658            5.702624
| 38>   H                      6.411173             -7.828988            6.442911
| 39>   H                      6.322881             -6.124128            6.161306
| 40>   H                      5.695959             -7.314876            5.013645
| 41>   C                    : 9.972915             -7.685073            0.459403
| 42>   O                    : 9.593615             -6.860634            1.550641
| 43>   H                    : 8.854218             -7.338539            1.910346
| 44>   H                    : 10.720847            -8.414273            0.751041
| 45>   H                    : 9.034047             -8.157437            0.053867
| 46>   H                    : 10.279727            -7.073836            -0.428352
| 47> *
| 48>
| 49> #Run DFT-D3 single point of the particle with dimer basis set
| 50> $new_job
| 51> %base "5-114_DFT_B"
| 52> ! wB97X-D3 def2-TZVP TIGHTSCF CHELPG PMODEL
| 53>
| 54> %scf
| 55> MaxIter 1000
| 56> end
| 57>
| 58> * xyz 0 1
| 59>   C                    : 6.493591             -7.114689            5.665414
| 60>   O                    : 7.749158             -7.200561            5.023627
| 61>   H                    : 8.417499             -7.256658            5.702624
| 62>   H                    : 6.411173             -7.828988            6.442911
| 63>   H                    : 6.322881             -6.124128            6.161306
| 64>   H                    : 5.695959             -7.314876            5.013645
| 65>   C                      9.972915             -7.685073            0.459403
| 66>   O                      9.593615             -6.860634            1.550641
| 67>   H                      8.854218             -7.338539            1.910346
| 68>   H                      10.720847            -8.414273            0.751041
| 69>   H                      9.034047             -8.157437            0.053867
| 70>   H                      10.279727            -7.073836            -0.428352
| 71> *
| 72>
| 73>                          ****END OF INPUT****
 Total Charge           Charge          ....    0
 Multiplicity           Mult            ....    1
 Number of Electrons    NEL             ....   36
Dispersion correction           -0.000830814
FINAL SINGLE POINT ENERGY      -231.467065414501
Dispersion correction           -0.000235109
FINAL SINGLE POINT ENERGY      -115.733994404115

CARTESIAN COORDINATES (ANGSTROEM)
---------------------------------
  C      6.493591   -7.114689    5.665414
  O      7.749158   -7.200561    5.023627
  H      8.417499   -7.256658    5.702624
  H      6.411173   -7.828988    6.442911
  H      6.322881   -6.124128    6.161306
  H      5.695959   -7.314876    5.013645
  C      9.972915   -7.685073    0.459403
  O      9.593615   -6.860634    1.550641
  H      8.854218   -7.338539    1.910346
  H     10.720847   -8.414273    0.751041
  H      9.034047   -8.157437    0.053867
  H     10.279727   -7.073836   -0.428352

 Multiplicity           Mult            ....    1
 Number of Electrons    NEL             ....   18
 Basis Dimension        Dim             ....  172

ORBITAL ENERGIES
----------------

  NO   OCC          E(Eh)            E(eV)
   0   2.0000     -19.230011      -523.2752
   1   2.0000     -10.319259      -280.8013
   2   2.0000      -1.140717       -31.0405
   3   2.0000      -0.789226       -21.4759
   4   2.0000      -0.606747       -16.5104
   5   2.0000      -0.553349       -15.0574
   6   2.0000      -0.521606       -14.1936
   7   2.0000      -0.428486       -11.6597
   8   2.0000      -0.378170       -10.2905
   9   0.0000       0.080840         2.1998
  10   0.0000       0.114141         3.1059
  11   0.0000       0.149798         4.0762
  12   0.0000       0.171096         4.6558
  13   0.0000       0.193544         5.2666

MULLIKEN ATOMIC CHARGES
-----------------------
   0 C :   -0.000040
   1 O :   -0.000217
   2 H :   -0.000100
   3 H :    0.000002
   4 H :    0.000001
   5 H :   -0.000004
   6 C :   -0.180076
   7 O :   -0.463477
   8 H :    0.316561
   9 H :    0.113081
  10 H :    0.097565
  11 H :    0.116705
Sum of atomic charges:   -0.0000000

LOEWDIN ATOMIC CHARGES
----------------------
   0 C :   -0.000051
   1 O :   -0.000419
   2 H :   -0.000103
   3 H :   -0.000001
   4 H :   -0.000001
   5 H :   -0.000005
   6 C :   -0.390890
   7 O :   -0.080269
   8 H :    0.165778
   9 H :    0.094080
  10 H :    0.101721
  11 H :    0.110161

  Mayer bond orders larger than 0.1
B(  6-C ,  7-O ) :   1.0041 B(  6-C ,  9-H ) :   0.9675 B(  6-C , 10-H ) :   0.9915
B(  6-C , 11-H ) :   0.9710 B(  7-O ,  8-H ) :   0.9032

Dispersion correction           -0.000231264
FINAL SINGLE POINT ENERGY      -115.731336058818

DIPOLE MOMENT
-------------
                                X             Y             Z
Electronic contribution:     -0.22234       1.12702       1.45649
Nuclear contribution   :     -0.11405      -1.73854      -1.66839
                        -----------------------------------------
Total Dipole Moment    :     -0.33639      -0.61152      -0.21190
                        -----------------------------------------
Magnitude (a.u.)       :      0.72939
Magnitude (Debye)      :      1.85397

Rotational constants in cm-1:     4.129801     0.827713     0.807909
Rotational constants in MHz : 123808.305751 24814.214782 24220.491640

                             ****ORCA TERMINATED NORMALLY****
TOTAL RUN TIME: 0 days 0 hours 1 minutes 1 seconds 182 msec
