                         Program Version 4.1.2  - RELEASE  -
|  1> #Run DFT-D3 single point of the dimer
|  2> ! wB97X-D3 def2-TZVP TIGHTSCF CHELPG PMODEL PAL8
|  3>
|  4> %base "20-142_DFT_AB"
|  5>
|  6> %scf
|  7> MaxIter 1000
|  8> end
|  9>
| 10> * xyz 0 1
| 11>   C                      -4.905139            5.262568             -10.301868
| 12>   O                      -4.333922            5.021783             -9.019390
| 13>   H                      -4.942635            5.445550             -8.437080
| 14>   H                      -4.087589            5.285542             -11.069867
| 15>   H                      -5.760049            4.649201             -10.628340
| 16>   H                      -5.338715            6.228068             -10.267397
| 17>   C                      -2.640541            0.829549             -10.356029
| 18>   O                      -3.382298            1.832271             -10.972147
| 19>   H                      -2.802487            2.539130             -11.278118
| 20>   H                      -2.226809            0.121991             -11.096118
| 21>   H                      -1.775766            1.282325             -9.850746
| 22>   H                      -3.261187            0.205242             -9.647087
| 23> *
| 24>
| 25> #Run DFT-D3 single point of the molecule with dimer basis set
| 26> $new_job
| 27> %base "20-142_DFT_A"
| 28> ! wB97X-D3 def2-TZVP TIGHTSCF CHELPG PMODEL
| 29>
| 30> %scf
| 31> MaxIter 1000
| 32> end
| 33>
| 34> * xyz 0 1
| 35>   C                      -4.905139            5.262568             -10.301868
| 36>   O                      -4.333922            5.021783             -9.019390
| 37>   H                      -4.942635            5.445550             -8.437080
| 38>   H                      -4.087589            5.285542             -11.069867
| 39>   H                      -5.760049            4.649201             -10.628340
| 40>   H                      -5.338715            6.228068             -10.267397
| 41>   C                    : -2.640541            0.829549             -10.356029
| 42>   O                    : -3.382298            1.832271             -10.972147
| 43>   H                    : -2.802487            2.539130             -11.278118
| 44>   H                    : -2.226809            0.121991             -11.096118
| 45>   H                    : -1.775766            1.282325             -9.850746
| 46>   H                    : -3.261187            0.205242             -9.647087
| 47> *
| 48>
| 49> #Run DFT-D3 single point of the particle with dimer basis set
| 50> $new_job
| 51> %base "20-142_DFT_B"
| 52> ! wB97X-D3 def2-TZVP TIGHTSCF CHELPG PMODEL
| 53>
| 54> %scf
| 55> MaxIter 1000
| 56> end
| 57>
| 58> * xyz 0 1
| 59>   C                    : -4.905139            5.262568             -10.301868
| 60>   O                    : -4.333922            5.021783             -9.019390
| 61>   H                    : -4.942635            5.445550             -8.437080
| 62>   H                    : -4.087589            5.285542             -11.069867
| 63>   H                    : -5.760049            4.649201             -10.628340
| 64>   H                    : -5.338715            6.228068             -10.267397
| 65>   C                      -2.640541            0.829549             -10.356029
| 66>   O                      -3.382298            1.832271             -10.972147
| 67>   H                      -2.802487            2.539130             -11.278118
| 68>   H                      -2.226809            0.121991             -11.096118
| 69>   H                      -1.775766            1.282325             -9.850746
| 70>   H                      -3.261187            0.205242             -9.647087
| 71> *
| 72>
| 73>                          ****END OF INPUT****
 Total Charge           Charge          ....    0
 Multiplicity           Mult            ....    1
 Number of Electrons    NEL             ....   36
Dispersion correction           -0.001228575
FINAL SINGLE POINT ENERGY      -231.464823873565
Dispersion correction           -0.000237191
FINAL SINGLE POINT ENERGY      -115.730191522428

CARTESIAN COORDINATES (ANGSTROEM)
---------------------------------
  C     -4.905139    5.262568  -10.301868
  O     -4.333922    5.021783   -9.019390
  H     -4.942635    5.445550   -8.437080
  H     -4.087589    5.285542  -11.069867
  H     -5.760049    4.649201  -10.628340
  H     -5.338715    6.228068  -10.267397
  C     -2.640541    0.829549  -10.356029
  O     -3.382298    1.832271  -10.972147
  H     -2.802487    2.539130  -11.278118
  H     -2.226809    0.121991  -11.096118
  H     -1.775766    1.282325   -9.850746
  H     -3.261187    0.205242   -9.647087

 Multiplicity           Mult            ....    1
 Number of Electrons    NEL             ....   18
 Basis Dimension        Dim             ....  172

ORBITAL ENERGIES
----------------

  NO   OCC          E(Eh)            E(eV)
   0   2.0000     -19.230164      -523.2794
   1   2.0000     -10.317544      -280.7546
   2   2.0000      -1.142097       -31.0780
   3   2.0000      -0.791193       -21.5294
   4   2.0000      -0.616304       -16.7705
   5   2.0000      -0.540219       -14.7001
   6   2.0000      -0.531250       -14.4560
   7   2.0000      -0.429453       -11.6860
   8   2.0000      -0.369608       -10.0575
   9   0.0000       0.086415         2.3515
  10   0.0000       0.119777         3.2593
  11   0.0000       0.149979         4.0811
  12   0.0000       0.175795         4.7836
  13   0.0000       0.196035         5.3344

MULLIKEN ATOMIC CHARGES
-----------------------
   0 C :   -0.003724
   1 O :    0.000227
   2 H :   -0.000007
   3 H :   -0.000257
   4 H :   -0.000344
   5 H :   -0.000243
   6 C :   -0.155815
   7 O :   -0.472142
   8 H :    0.320597
   9 H :    0.096828
  10 H :    0.099653
  11 H :    0.115226
Sum of atomic charges:   -0.0000000

LOEWDIN ATOMIC CHARGES
----------------------
   0 C :   -0.003987
   1 O :   -0.000513
   2 H :   -0.000039
   3 H :   -0.000620
   4 H :   -0.000509
   5 H :   -0.000099
   6 C :   -0.407144
   7 O :   -0.062821
   8 H :    0.174060
   9 H :    0.093597
  10 H :    0.095024
  11 H :    0.113052

  Mayer bond orders larger than 0.1
B(  6-C ,  7-O ) :   1.0019 B(  6-C ,  9-H ) :   0.9723 B(  6-C , 10-H ) :   0.9860
B(  6-C , 11-H ) :   0.9711 B(  7-O ,  8-H ) :   0.8922

Dispersion correction           -0.000238800
FINAL SINGLE POINT ENERGY      -115.734317686519

DIPOLE MOMENT
-------------
                                X             Y             Z
Electronic contribution:     -1.11873       1.25997      -0.74112
Nuclear contribution   :      1.79087      -1.19073       0.78274
                        -----------------------------------------
Total Dipole Moment    :      0.67214       0.06924       0.04161
                        -----------------------------------------
Magnitude (a.u.)       :      0.67698
Magnitude (Debye)      :      1.72075

Rotational constants in cm-1:     4.226605     0.850064     0.812401
Rotational constants in MHz : 126710.416482 25484.269559 24355.178838

                             ****ORCA TERMINATED NORMALLY****
TOTAL RUN TIME: 0 days 0 hours 1 minutes 3 seconds 495 msec
