                         Program Version 4.1.2  - RELEASE  -
|  1> #Run DFT-D3 single point of the dimer
|  2> ! wB97X-D3 def2-TZVP TIGHTSCF CHELPG PMODEL PAL8
|  3>
|  4> %base "3-105_DFT_AB"
|  5>
|  6> %scf
|  7> MaxIter 1000
|  8> end
|  9>
| 10> * xyz 0 1
| 11>   C                      3.247965             -4.559031            -0.450661
| 12>   O                      3.082228             -5.100131            0.833028
| 13>   H                      3.428484             -4.516003            1.598931
| 14>   H                      2.833958             -5.230700            -1.176977
| 15>   H                      2.781872             -3.575299            -0.586808
| 16>   H                      4.333572             -4.378047            -0.637821
| 17>   C                      1.573331             -6.246012            -4.165724
| 18>   O                      2.700081             -7.071655            -4.423399
| 19>   H                      3.488128             -6.553335            -4.301135
| 20>   H                      0.735123             -6.967502            -4.083892
| 21>   H                      1.613460             -5.641506            -3.237089
| 22>   H                      1.294870             -5.606868            -5.011459
| 23> *
| 24>
| 25> #Run DFT-D3 single point of the molecule with dimer basis set
| 26> $new_job
| 27> %base "3-105_DFT_A"
| 28> ! wB97X-D3 def2-TZVP TIGHTSCF CHELPG PMODEL
| 29>
| 30> %scf
| 31> MaxIter 1000
| 32> end
| 33>
| 34> * xyz 0 1
| 35>   C                      3.247965             -4.559031            -0.450661
| 36>   O                      3.082228             -5.100131            0.833028
| 37>   H                      3.428484             -4.516003            1.598931
| 38>   H                      2.833958             -5.230700            -1.176977
| 39>   H                      2.781872             -3.575299            -0.586808
| 40>   H                      4.333572             -4.378047            -0.637821
| 41>   C                    : 1.573331             -6.246012            -4.165724
| 42>   O                    : 2.700081             -7.071655            -4.423399
| 43>   H                    : 3.488128             -6.553335            -4.301135
| 44>   H                    : 0.735123             -6.967502            -4.083892
| 45>   H                    : 1.613460             -5.641506            -3.237089
| 46>   H                    : 1.294870             -5.606868            -5.011459
| 47> *
| 48>
| 49> #Run DFT-D3 single point of the particle with dimer basis set
| 50> $new_job
| 51> %base "3-105_DFT_B"
| 52> ! wB97X-D3 def2-TZVP TIGHTSCF CHELPG PMODEL
| 53>
| 54> %scf
| 55> MaxIter 1000
| 56> end
| 57>
| 58> * xyz 0 1
| 59>   C                    : 3.247965             -4.559031            -0.450661
| 60>   O                    : 3.082228             -5.100131            0.833028
| 61>   H                    : 3.428484             -4.516003            1.598931
| 62>   H                    : 2.833958             -5.230700            -1.176977
| 63>   H                    : 2.781872             -3.575299            -0.586808
| 64>   H                    : 4.333572             -4.378047            -0.637821
| 65>   C                      1.573331             -6.246012            -4.165724
| 66>   O                      2.700081             -7.071655            -4.423399
| 67>   H                      3.488128             -6.553335            -4.301135
| 68>   H                      0.735123             -6.967502            -4.083892
| 69>   H                      1.613460             -5.641506            -3.237089
| 70>   H                      1.294870             -5.606868            -5.011459
| 71> *
| 72>
| 73>                          ****END OF INPUT****
 Total Charge           Charge          ....    0
 Multiplicity           Mult            ....    1
 Number of Electrons    NEL             ....   36
Dispersion correction           -0.001201994
FINAL SINGLE POINT ENERGY      -231.466934063117
Dispersion correction           -0.000258005
FINAL SINGLE POINT ENERGY      -115.731130272182

CARTESIAN COORDINATES (ANGSTROEM)
---------------------------------
  C      3.247965   -4.559031   -0.450661
  O      3.082228   -5.100131    0.833028
  H      3.428484   -4.516003    1.598931
  H      2.833958   -5.230700   -1.176977
  H      2.781872   -3.575299   -0.586808
  H      4.333572   -4.378047   -0.637821
  C      1.573331   -6.246012   -4.165724
  O      2.700081   -7.071655   -4.423399
  H      3.488128   -6.553335   -4.301135
  H      0.735123   -6.967502   -4.083892
  H      1.613460   -5.641506   -3.237089
  H      1.294870   -5.606868   -5.011459

 Multiplicity           Mult            ....    1
 Number of Electrons    NEL             ....   18
 Basis Dimension        Dim             ....  172

ORBITAL ENERGIES
----------------

  NO   OCC          E(Eh)            E(eV)
   0   2.0000     -19.231413      -523.3133
   1   2.0000     -10.316401      -280.7236
   2   2.0000      -1.136697       -30.9311
   3   2.0000      -0.795049       -21.6344
   4   2.0000      -0.612068       -16.6552
   5   2.0000      -0.539837       -14.6897
   6   2.0000      -0.519954       -14.1487
   7   2.0000      -0.435209       -11.8426
   8   2.0000      -0.376059       -10.2331
   9   0.0000       0.079897         2.1741
  10   0.0000       0.119694         3.2570
  11   0.0000       0.150049         4.0831
  12   0.0000       0.169582         4.6145
  13   0.0000       0.188328         5.1247

MULLIKEN ATOMIC CHARGES
-----------------------
   0 C :   -0.003810
   1 O :    0.000075
   2 H :    0.000001
   3 H :    0.006135
   4 H :    0.000140
   5 H :    0.000043
   6 C :   -0.166030
   7 O :   -0.471975
   8 H :    0.310891
   9 H :    0.117157
  10 H :    0.098643
  11 H :    0.108730
Sum of atomic charges:    0.0000000

LOEWDIN ATOMIC CHARGES
----------------------
   0 C :   -0.001674
   1 O :   -0.000010
   2 H :   -0.000001
   3 H :   -0.002858
   4 H :   -0.000077
   5 H :   -0.000012
   6 C :   -0.386717
   7 O :   -0.074923
   8 H :    0.160608
   9 H :    0.113143
  10 H :    0.098131
  11 H :    0.094391

  Mayer bond orders larger than 0.1
B(  6-C ,  7-O ) :   1.0022 B(  6-C ,  9-H ) :   0.9794 B(  6-C , 10-H ) :   0.9665
B(  6-C , 11-H ) :   0.9743 B(  7-O ,  8-H ) :   0.9037

Dispersion correction           -0.000261607
FINAL SINGLE POINT ENERGY      -115.735671556297

DIPOLE MOMENT
-------------
                                X             Y             Z
Electronic contribution:      1.47188      -1.07171      -0.32348
Nuclear contribution   :     -1.41585       1.71705       0.50495
                        -----------------------------------------
Total Dipole Moment    :      0.05603       0.64533       0.18147
                        -----------------------------------------
Magnitude (a.u.)       :      0.67270
Magnitude (Debye)      :      1.70987

Rotational constants in cm-1:     4.279867     0.821281     0.792120
Rotational constants in MHz : 128307.179825 24621.387311 23747.157864

                             ****ORCA TERMINATED NORMALLY****
TOTAL RUN TIME: 0 days 0 hours 5 minutes 57 seconds 720 msec
