                         Program Version 4.1.2  - RELEASE  -
|  1> #Run DFT-D3 single point of the dimer
|  2> ! wB97X-D3 def2-TZVP TIGHTSCF CHELPG PMODEL PAL8
|  3>
|  4> %base "14-11_DFT_AB"
|  5>
|  6> %scf
|  7> MaxIter 1000
|  8> end
|  9>
| 10> * xyz 0 1
| 11>   C                      -9.672709            4.006744             2.552932
| 12>   O                      -10.300829           4.988320             3.368327
| 13>   H                      -10.582800           4.429678             4.110281
| 14>   H                      -10.532027           3.583830             1.937451
| 15>   H                      -9.091793            4.425824             1.762786
| 16>   H                      -9.184682            3.240365             3.147805
| 17>   C                      -7.703937            4.864431             7.544231
| 18>   O                      -8.044865            6.226566             7.754114
| 19>   H                      -8.552644            6.657544             7.051836
| 20>   H                      -8.567473            4.275343             7.272627
| 21>   H                      -6.941389            4.675493             6.753926
| 22>   H                      -7.290078            4.411499             8.488377
| 23> *
| 24>
| 25> #Run DFT-D3 single point of the molecule with dimer basis set
| 26> $new_job
| 27> %base "14-11_DFT_A"
| 28> ! wB97X-D3 def2-TZVP TIGHTSCF CHELPG PMODEL
| 29>
| 30> %scf
| 31> MaxIter 1000
| 32> end
| 33>
| 34> * xyz 0 1
| 35>   C                      -9.672709            4.006744             2.552932
| 36>   O                      -10.300829           4.988320             3.368327
| 37>   H                      -10.582800           4.429678             4.110281
| 38>   H                      -10.532027           3.583830             1.937451
| 39>   H                      -9.091793            4.425824             1.762786
| 40>   H                      -9.184682            3.240365             3.147805
| 41>   C                    : -7.703937            4.864431             7.544231
| 42>   O                    : -8.044865            6.226566             7.754114
| 43>   H                    : -8.552644            6.657544             7.051836
| 44>   H                    : -8.567473            4.275343             7.272627
| 45>   H                    : -6.941389            4.675493             6.753926
| 46>   H                    : -7.290078            4.411499             8.488377
| 47> *
| 48>
| 49> #Run DFT-D3 single point of the particle with dimer basis set
| 50> $new_job
| 51> %base "14-11_DFT_B"
| 52> ! wB97X-D3 def2-TZVP TIGHTSCF CHELPG PMODEL
| 53>
| 54> %scf
| 55> MaxIter 1000
| 56> end
| 57>
| 58> * xyz 0 1
| 59>   C                    : -9.672709            4.006744             2.552932
| 60>   O                    : -10.300829           4.988320             3.368327
| 61>   H                    : -10.582800           4.429678             4.110281
| 62>   H                    : -10.532027           3.583830             1.937451
| 63>   H                    : -9.091793            4.425824             1.762786
| 64>   H                    : -9.184682            3.240365             3.147805
| 65>   C                      -7.703937            4.864431             7.544231
| 66>   O                      -8.044865            6.226566             7.754114
| 67>   H                      -8.552644            6.657544             7.051836
| 68>   H                      -8.567473            4.275343             7.272627
| 69>   H                      -6.941389            4.675493             6.753926
| 70>   H                      -7.290078            4.411499             8.488377
| 71> *
| 72>
| 73>                          ****END OF INPUT****
 Total Charge           Charge          ....    0
 Multiplicity           Mult            ....    1
 Number of Electrons    NEL             ....   36
Dispersion correction           -0.000820326
FINAL SINGLE POINT ENERGY      -231.461561008207
Dispersion correction           -0.000215645
FINAL SINGLE POINT ENERGY      -115.727391101654

CARTESIAN COORDINATES (ANGSTROEM)
---------------------------------
  C     -9.672709    4.006744    2.552932
  O    -10.300829    4.988320    3.368327
  H    -10.582800    4.429678    4.110281
  H    -10.532027    3.583830    1.937451
  H     -9.091793    4.425824    1.762786
  H     -9.184682    3.240365    3.147805
  C     -7.703937    4.864431    7.544231
  O     -8.044865    6.226566    7.754114
  H     -8.552644    6.657544    7.051836
  H     -8.567473    4.275343    7.272627
  H     -6.941389    4.675493    6.753926
  H     -7.290078    4.411499    8.488377

 Multiplicity           Mult            ....    1
 Number of Electrons    NEL             ....   18
 Basis Dimension        Dim             ....  172

ORBITAL ENERGIES
----------------

  NO   OCC          E(Eh)            E(eV)
   0   2.0000     -19.229434      -523.2595
   1   2.0000     -10.318631      -280.7842
   2   2.0000      -1.127956       -30.6932
   3   2.0000      -0.796630       -21.6774
   4   2.0000      -0.613114       -16.6837
   5   2.0000      -0.535535       -14.5726
   6   2.0000      -0.524012       -14.2591
   7   2.0000      -0.423436       -11.5223
   8   2.0000      -0.373272       -10.1573
   9   0.0000       0.078076         2.1246
  10   0.0000       0.115172         3.1340
  11   0.0000       0.145599         3.9619
  12   0.0000       0.166950         4.5429
  13   0.0000       0.190368         5.1802

MULLIKEN ATOMIC CHARGES
-----------------------
   0 C :    0.000036
   1 O :    0.000002
   2 H :   -0.000009
   3 H :   -0.000002
   4 H :   -0.000004
   5 H :   -0.000082
   6 C :   -0.151300
   7 O :   -0.494529
   8 H :    0.320730
   9 H :    0.106270
  10 H :    0.099030
  11 H :    0.119859
Sum of atomic charges:   -0.0000000

LOEWDIN ATOMIC CHARGES
----------------------
   0 C :   -0.000024
   1 O :   -0.000012
   2 H :   -0.000087
   3 H :   -0.000000
   4 H :   -0.000001
   5 H :   -0.000027
   6 C :   -0.385738
   7 O :   -0.087704
   8 H :    0.170932
   9 H :    0.090851
  10 H :    0.096010
  11 H :    0.115800

  Mayer bond orders larger than 0.1
B(  6-C ,  7-O ) :   0.9948 B(  6-C ,  9-H ) :   0.9781 B(  6-C , 10-H ) :   0.9700
B(  6-C , 11-H ) :   0.9715 B(  7-O ,  8-H ) :   0.8891

Dispersion correction           -0.000279199
FINAL SINGLE POINT ENERGY      -115.733453042697

DIPOLE MOMENT
-------------
                                X             Y             Z
Electronic contribution:     -0.40883       1.79435       0.34840
Nuclear contribution   :      0.19710      -2.08148      -0.89184
                        -----------------------------------------
Total Dipole Moment    :     -0.21173      -0.28712      -0.54344
                        -----------------------------------------
Magnitude (a.u.)       :      0.65008
Magnitude (Debye)      :      1.65236

Rotational constants in cm-1:     4.401316     0.805465     0.778479
Rotational constants in MHz : 131948.123651 24147.228851 23338.210760

                             ****ORCA TERMINATED NORMALLY****
TOTAL RUN TIME: 0 days 0 hours 0 minutes 51 seconds 316 msec
