                         Program Version 4.1.2  - RELEASE  -
|  1> #Run DFT-D3 single point of the dimer
|  2> ! wB97X-D3 def2-TZVP TIGHTSCF CHELPG PMODEL PAL8
|  3>
|  4> %base "14-171_DFT_AB"
|  5>
|  6> %scf
|  7> MaxIter 1000
|  8> end
|  9>
| 10> * xyz 0 1
| 11>   C                      3.740945             6.725552             -0.939064
| 12>   O                      2.494065             7.327196             -0.686592
| 13>   H                      2.374699             7.452725             0.244688
| 14>   H                      4.622267             7.305502             -0.549109
| 15>   H                      3.679804             5.710443             -0.489413
| 16>   H                      3.882475             6.549137             -2.046860
| 17>   C                      2.903288             6.157176             3.375307
| 18>   O                      2.355776             6.871441             2.257254
| 19>   H                      1.487069             7.205921             2.419442
| 20>   H                      3.882769             5.824693             3.159846
| 21>   H                      2.907708             6.811169             4.289706
| 22>   H                      2.225679             5.284774             3.540277
| 23> *
| 24>
| 25> #Run DFT-D3 single point of the molecule with dimer basis set
| 26> $new_job
| 27> %base "14-171_DFT_A"
| 28> ! wB97X-D3 def2-TZVP TIGHTSCF CHELPG PMODEL
| 29>
| 30> %scf
| 31> MaxIter 1000
| 32> end
| 33>
| 34> * xyz 0 1
| 35>   C                      3.740945             6.725552             -0.939064
| 36>   O                      2.494065             7.327196             -0.686592
| 37>   H                      2.374699             7.452725             0.244688
| 38>   H                      4.622267             7.305502             -0.549109
| 39>   H                      3.679804             5.710443             -0.489413
| 40>   H                      3.882475             6.549137             -2.046860
| 41>   C                    : 2.903288             6.157176             3.375307
| 42>   O                    : 2.355776             6.871441             2.257254
| 43>   H                    : 1.487069             7.205921             2.419442
| 44>   H                    : 3.882769             5.824693             3.159846
| 45>   H                    : 2.907708             6.811169             4.289706
| 46>   H                    : 2.225679             5.284774             3.540277
| 47> *
| 48>
| 49> #Run DFT-D3 single point of the particle with dimer basis set
| 50> $new_job
| 51> %base "14-171_DFT_B"
| 52> ! wB97X-D3 def2-TZVP TIGHTSCF CHELPG PMODEL
| 53>
| 54> %scf
| 55> MaxIter 1000
| 56> end
| 57>
| 58> * xyz 0 1
| 59>   C                    : 3.740945             6.725552             -0.939064
| 60>   O                    : 2.494065             7.327196             -0.686592
| 61>   H                    : 2.374699             7.452725             0.244688
| 62>   H                    : 4.622267             7.305502             -0.549109
| 63>   H                    : 3.679804             5.710443             -0.489413
| 64>   H                    : 3.882475             6.549137             -2.046860
| 65>   C                      2.903288             6.157176             3.375307
| 66>   O                      2.355776             6.871441             2.257254
| 67>   H                      1.487069             7.205921             2.419442
| 68>   H                      3.882769             5.824693             3.159846
| 69>   H                      2.907708             6.811169             4.289706
| 70>   H                      2.225679             5.284774             3.540277
| 71> *
| 72>
| 73>                          ****END OF INPUT****
 Total Charge           Charge          ....    0
 Multiplicity           Mult            ....    1
 Number of Electrons    NEL             ....   36
Dispersion correction           -0.001677176
FINAL SINGLE POINT ENERGY      -231.474052571516
Dispersion correction           -0.000246285
FINAL SINGLE POINT ENERGY      -115.733845391890

CARTESIAN COORDINATES (ANGSTROEM)
---------------------------------
  C      3.740945    6.725552   -0.939064
  O      2.494065    7.327196   -0.686592
  H      2.374699    7.452725    0.244688
  H      4.622267    7.305502   -0.549109
  H      3.679804    5.710443   -0.489413
  H      3.882475    6.549137   -2.046860
  C      2.903288    6.157176    3.375307
  O      2.355776    6.871441    2.257254
  H      1.487069    7.205921    2.419442
  H      3.882769    5.824693    3.159846
  H      2.907708    6.811169    4.289706
  H      2.225679    5.284774    3.540277

 Multiplicity           Mult            ....    1
 Number of Electrons    NEL             ....   18
 Basis Dimension        Dim             ....  172

ORBITAL ENERGIES
----------------

  NO   OCC          E(Eh)            E(eV)
   0   2.0000     -19.224172      -523.1163
   1   2.0000     -10.318442      -280.7791
   2   2.0000      -1.128589       -30.7105
   3   2.0000      -0.798615       -21.7314
   4   2.0000      -0.604427       -16.4473
   5   2.0000      -0.539028       -14.6677
   6   2.0000      -0.534498       -14.5444
   7   2.0000      -0.428546       -11.6613
   8   2.0000      -0.370745       -10.0885
   9   0.0000       0.100082         2.7234
  10   0.0000       0.126219         3.4346
  11   0.0000       0.151595         4.1251
  12   0.0000       0.192565         5.2400
  13   0.0000       0.197766         5.3815

MULLIKEN ATOMIC CHARGES
-----------------------
   0 C :    0.004065
   1 O :    0.000531
   2 H :   -0.011300
   3 H :   -0.001016
   4 H :   -0.003074
   5 H :   -0.000215
   6 C :   -0.144436
   7 O :   -0.485345
   8 H :    0.314562
   9 H :    0.125259
  10 H :    0.100058
  11 H :    0.100910
Sum of atomic charges:   -0.0000000

LOEWDIN ATOMIC CHARGES
----------------------
   0 C :   -0.004666
   1 O :   -0.004031
   2 H :   -0.029031
   3 H :   -0.000297
   4 H :   -0.001258
   5 H :   -0.000055
   6 C :   -0.357492
   7 O :   -0.061641
   8 H :    0.156489
   9 H :    0.099155
  10 H :    0.101447
  11 H :    0.101379

  Mayer bond orders larger than 0.1
B(  6-C ,  7-O ) :   0.9797 B(  6-C ,  9-H ) :   0.9739 B(  6-C , 10-H ) :   0.9728
B(  6-C , 11-H ) :   0.9805 B(  7-O ,  8-H ) :   0.8962

Dispersion correction           -0.000245622
FINAL SINGLE POINT ENERGY      -115.733705677092

DIPOLE MOMENT
-------------
                                X             Y             Z
Electronic contribution:     -0.43413       0.83432      -1.43152
Nuclear contribution   :      0.11210      -0.92502       2.01133
                        -----------------------------------------
Total Dipole Moment    :     -0.32202      -0.09069       0.57980
                        -----------------------------------------
Magnitude (a.u.)       :      0.66940
Magnitude (Debye)      :      1.70148

Rotational constants in cm-1:     4.256313     0.809829     0.787687
Rotational constants in MHz : 127601.048464 24278.065107 23614.261915

                             ****ORCA TERMINATED NORMALLY****
TOTAL RUN TIME: 0 days 0 hours 1 minutes 3 seconds 983 msec
