                         Program Version 4.1.2  - RELEASE  -
|  1> #Run DFT-D3 single point of the dimer
|  2> ! wB97X-D3 def2-TZVP TIGHTSCF CHELPG PMODEL PAL8
|  3>
|  4> %base "13-81_DFT_AB"
|  5>
|  6> %scf
|  7> MaxIter 1000
|  8> end
|  9>
| 10> * xyz 0 1
| 11>   C                      -2.473489            2.754382             -3.587635
| 12>   O                      -2.443331            4.137999             -3.468418
| 13>   H                      -2.406738            4.647574             -4.288539
| 14>   H                      -1.822514            2.438176             -4.417710
| 15>   H                      -2.095098            2.370439             -2.644488
| 16>   H                      -3.458589            2.327411             -3.868728
| 17>   C                      0.416081             6.341552             -3.830665
| 18>   O                      0.004939             5.756950             -2.596167
| 19>   H                      -0.646958            5.116949             -2.802898
| 20>   H                      -0.303278            7.107280             -4.079319
| 21>   H                      1.418122             6.880632             -3.792920
| 22>   H                      0.462358             5.697803             -4.709192
| 23> *
| 24>
| 25> #Run DFT-D3 single point of the molecule with dimer basis set
| 26> $new_job
| 27> %base "13-81_DFT_A"
| 28> ! wB97X-D3 def2-TZVP TIGHTSCF CHELPG PMODEL
| 29>
| 30> %scf
| 31> MaxIter 1000
| 32> end
| 33>
| 34> * xyz 0 1
| 35>   C                      -2.473489            2.754382             -3.587635
| 36>   O                      -2.443331            4.137999             -3.468418
| 37>   H                      -2.406738            4.647574             -4.288539
| 38>   H                      -1.822514            2.438176             -4.417710
| 39>   H                      -2.095098            2.370439             -2.644488
| 40>   H                      -3.458589            2.327411             -3.868728
| 41>   C                    : 0.416081             6.341552             -3.830665
| 42>   O                    : 0.004939             5.756950             -2.596167
| 43>   H                    : -0.646958            5.116949             -2.802898
| 44>   H                    : -0.303278            7.107280             -4.079319
| 45>   H                    : 1.418122             6.880632             -3.792920
| 46>   H                    : 0.462358             5.697803             -4.709192
| 47> *
| 48>
| 49> #Run DFT-D3 single point of the particle with dimer basis set
| 50> $new_job
| 51> %base "13-81_DFT_B"
| 52> ! wB97X-D3 def2-TZVP TIGHTSCF CHELPG PMODEL
| 53>
| 54> %scf
| 55> MaxIter 1000
| 56> end
| 57>
| 58> * xyz 0 1
| 59>   C                    : -2.473489            2.754382             -3.587635
| 60>   O                    : -2.443331            4.137999             -3.468418
| 61>   H                    : -2.406738            4.647574             -4.288539
| 62>   H                    : -1.822514            2.438176             -4.417710
| 63>   H                    : -2.095098            2.370439             -2.644488
| 64>   H                    : -3.458589            2.327411             -3.868728
| 65>   C                      0.416081             6.341552             -3.830665
| 66>   O                      0.004939             5.756950             -2.596167
| 67>   H                      -0.646958            5.116949             -2.802898
| 68>   H                      -0.303278            7.107280             -4.079319
| 69>   H                      1.418122             6.880632             -3.792920
| 70>   H                      0.462358             5.697803             -4.709192
| 71> *
| 72>
| 73>                          ****END OF INPUT****
 Total Charge           Charge          ....    0
 Multiplicity           Mult            ....    1
 Number of Electrons    NEL             ....   36
Dispersion correction           -0.001809526
FINAL SINGLE POINT ENERGY      -231.471616862631
Dispersion correction           -0.000251151
FINAL SINGLE POINT ENERGY      -115.733975923838

CARTESIAN COORDINATES (ANGSTROEM)
---------------------------------
  C     -2.473489    2.754382   -3.587635
  O     -2.443331    4.137999   -3.468418
  H     -2.406738    4.647574   -4.288539
  H     -1.822514    2.438176   -4.417710
  H     -2.095098    2.370439   -2.644488
  H     -3.458589    2.327411   -3.868728
  C      0.416081    6.341552   -3.830665
  O      0.004939    5.756950   -2.596167
  H     -0.646958    5.116949   -2.802898
  H     -0.303278    7.107280   -4.079319
  H      1.418122    6.880632   -3.792920
  H      0.462358    5.697803   -4.709192

 Multiplicity           Mult            ....    1
 Number of Electrons    NEL             ....   18
 Basis Dimension        Dim             ....  172

ORBITAL ENERGIES
----------------

  NO   OCC          E(Eh)            E(eV)
   0   2.0000     -19.231947      -523.3279
   1   2.0000     -10.316939      -280.7382
   2   2.0000      -1.139697       -31.0127
   3   2.0000      -0.797353       -21.6971
   4   2.0000      -0.615108       -16.7380
   5   2.0000      -0.537479       -14.6255
   6   2.0000      -0.523709       -14.2508
   7   2.0000      -0.438281       -11.9262
   8   2.0000      -0.374493       -10.1905
   9   0.0000       0.068441         1.8624
  10   0.0000       0.130613         3.5542
  11   0.0000       0.147890         4.0243
  12   0.0000       0.172174         4.6851
  13   0.0000       0.185814         5.0562

MULLIKEN ATOMIC CHARGES
-----------------------
   0 C :   -0.002380
   1 O :   -0.002537
   2 H :   -0.000045
   3 H :    0.000078
   4 H :    0.000280
   5 H :   -0.000027
   6 C :   -0.183760
   7 O :   -0.461720
   8 H :    0.309210
   9 H :    0.110988
  10 H :    0.120518
  11 H :    0.109396
Sum of atomic charges:    0.0000000

LOEWDIN ATOMIC CHARGES
----------------------
   0 C :   -0.002421
   1 O :   -0.011025
   2 H :   -0.002348
   3 H :   -0.000078
   4 H :   -0.000204
   5 H :   -0.000068
   6 C :   -0.383560
   7 O :   -0.062967
   8 H :    0.157442
   9 H :    0.093852
  10 H :    0.116919
  11 H :    0.094458

  Mayer bond orders larger than 0.1
B(  6-C ,  7-O ) :   0.9871 B(  6-C ,  9-H ) :   0.9823 B(  6-C , 10-H ) :   0.9722
B(  6-C , 11-H ) :   0.9705 B(  7-O ,  8-H ) :   0.9146

Dispersion correction           -0.000256016
FINAL SINGLE POINT ENERGY      -115.731527509714

DIPOLE MOMENT
-------------
                                X             Y             Z
Electronic contribution:     -0.42351      -0.80329       1.71598
Nuclear contribution   :      0.16565       0.62917      -2.35458
                        -----------------------------------------
Total Dipole Moment    :     -0.25786      -0.17412      -0.63860
                        -----------------------------------------
Magnitude (a.u.)       :      0.71036
Magnitude (Debye)      :      1.80560

Rotational constants in cm-1:     4.415694     0.811452     0.779567
Rotational constants in MHz : 132379.185880 24326.731226 23370.844151

                             ****ORCA TERMINATED NORMALLY****
TOTAL RUN TIME: 0 days 0 hours 1 minutes 7 seconds 672 msec
