                         Program Version 4.1.2  - RELEASE  -
|  1> #Run DFT-D3 single point of the dimer
|  2> ! wB97X-D3 def2-TZVP TIGHTSCF CHELPG PMODEL PAL8
|  3>
|  4> %base "14-33_DFT_AB"
|  5>
|  6> %scf
|  7> MaxIter 1000
|  8> end
|  9>
| 10> * xyz 0 1
| 11>   C                      -0.612086            2.931693             -2.166030
| 12>   O                      -1.917891            3.394526             -2.096503
| 13>   H                      -2.283379            3.362468             -1.200627
| 14>   H                      -0.456620            1.838111             -2.061463
| 15>   H                      -0.083063            3.269453             -3.069938
| 16>   H                      -0.006313            3.238354             -1.311755
| 17>   C                      0.387438             7.211846             -3.550846
| 18>   O                      1.792564             7.463747             -3.620765
| 19>   H                      2.049877             7.318178             -2.693924
| 20>   H                      0.212305             6.111345             -3.715045
| 21>   H                      -0.024939            7.621403             -2.647262
| 22>   H                      -0.201617            7.672835             -4.356984
| 23> *
| 24>
| 25> #Run DFT-D3 single point of the molecule with dimer basis set
| 26> $new_job
| 27> %base "14-33_DFT_A"
| 28> ! wB97X-D3 def2-TZVP TIGHTSCF CHELPG PMODEL
| 29>
| 30> %scf
| 31> MaxIter 1000
| 32> end
| 33>
| 34> * xyz 0 1
| 35>   C                      -0.612086            2.931693             -2.166030
| 36>   O                      -1.917891            3.394526             -2.096503
| 37>   H                      -2.283379            3.362468             -1.200627
| 38>   H                      -0.456620            1.838111             -2.061463
| 39>   H                      -0.083063            3.269453             -3.069938
| 40>   H                      -0.006313            3.238354             -1.311755
| 41>   C                    : 0.387438             7.211846             -3.550846
| 42>   O                    : 1.792564             7.463747             -3.620765
| 43>   H                    : 2.049877             7.318178             -2.693924
| 44>   H                    : 0.212305             6.111345             -3.715045
| 45>   H                    : -0.024939            7.621403             -2.647262
| 46>   H                    : -0.201617            7.672835             -4.356984
| 47> *
| 48>
| 49> #Run DFT-D3 single point of the particle with dimer basis set
| 50> $new_job
| 51> %base "14-33_DFT_B"
| 52> ! wB97X-D3 def2-TZVP TIGHTSCF CHELPG PMODEL
| 53>
| 54> %scf
| 55> MaxIter 1000
| 56> end
| 57>
| 58> * xyz 0 1
| 59>   C                    : -0.612086            2.931693             -2.166030
| 60>   O                    : -1.917891            3.394526             -2.096503
| 61>   H                    : -2.283379            3.362468             -1.200627
| 62>   H                    : -0.456620            1.838111             -2.061463
| 63>   H                    : -0.083063            3.269453             -3.069938
| 64>   H                    : -0.006313            3.238354             -1.311755
| 65>   C                      0.387438             7.211846             -3.550846
| 66>   O                      1.792564             7.463747             -3.620765
| 67>   H                      2.049877             7.318178             -2.693924
| 68>   H                      0.212305             6.111345             -3.715045
| 69>   H                      -0.024939            7.621403             -2.647262
| 70>   H                      -0.201617            7.672835             -4.356984
| 71> *
| 72>
| 73>                          ****END OF INPUT****
 Total Charge           Charge          ....    0
 Multiplicity           Mult            ....    1
 Number of Electrons    NEL             ....   36
Dispersion correction           -0.001056569
FINAL SINGLE POINT ENERGY      -231.463989433118
Dispersion correction           -0.000258881
FINAL SINGLE POINT ENERGY      -115.732132236716

CARTESIAN COORDINATES (ANGSTROEM)
---------------------------------
  C     -0.612086    2.931693   -2.166030
  O     -1.917891    3.394526   -2.096503
  H     -2.283379    3.362468   -1.200627
  H     -0.456620    1.838111   -2.061463
  H     -0.083063    3.269453   -3.069938
  H     -0.006313    3.238354   -1.311755
  C      0.387438    7.211846   -3.550846
  O      1.792564    7.463747   -3.620765
  H      2.049877    7.318178   -2.693924
  H      0.212305    6.111345   -3.715045
  H     -0.024939    7.621403   -2.647262
  H     -0.201617    7.672835   -4.356984

 Multiplicity           Mult            ....    1
 Number of Electrons    NEL             ....   18
 Basis Dimension        Dim             ....  172

ORBITAL ENERGIES
----------------

  NO   OCC          E(Eh)            E(eV)
   0   2.0000     -19.233256      -523.3635
   1   2.0000     -10.316416      -280.7239
   2   2.0000      -1.134136       -30.8614
   3   2.0000      -0.791467       -21.5369
   4   2.0000      -0.604013       -16.4360
   5   2.0000      -0.543227       -14.7820
   6   2.0000      -0.526879       -14.3371
   7   2.0000      -0.436502       -11.8778
   8   2.0000      -0.373910       -10.1746
   9   0.0000       0.081242         2.2107
  10   0.0000       0.114828         3.1246
  11   0.0000       0.151562         4.1242
  12   0.0000       0.160000         4.3538
  13   0.0000       0.183810         5.0017

MULLIKEN ATOMIC CHARGES
-----------------------
   0 C :   -0.001138
   1 O :    0.000131
   2 H :    0.000005
   3 H :   -0.000005
   4 H :    0.000461
   5 H :    0.000050
   6 C :   -0.182332
   7 O :   -0.464145
   8 H :    0.316446
   9 H :    0.105663
  10 H :    0.109333
  11 H :    0.115530
Sum of atomic charges:   -0.0000000

LOEWDIN ATOMIC CHARGES
----------------------
   0 C :   -0.001443
   1 O :   -0.000044
   2 H :   -0.000008
   3 H :   -0.000013
   4 H :   -0.001206
   5 H :   -0.000057
   6 C :   -0.385944
   7 O :   -0.094161
   8 H :    0.179825
   9 H :    0.104029
  10 H :    0.092579
  11 H :    0.106444

  Mayer bond orders larger than 0.1
B(  6-C ,  7-O ) :   1.0043 B(  6-C ,  9-H ) :   0.9768 B(  6-C , 10-H ) :   0.9815
B(  6-C , 11-H ) :   0.9720 B(  7-O ,  8-H ) :   0.9008

Dispersion correction           -0.000236749
FINAL SINGLE POINT ENERGY      -115.731144268090

DIPOLE MOMENT
-------------
                                X             Y             Z
Electronic contribution:      1.81999       0.41509      -0.18921
Nuclear contribution   :     -2.22424      -0.57147       0.77816
                        -----------------------------------------
Total Dipole Moment    :     -0.40425      -0.15638       0.58895
                        -----------------------------------------
Magnitude (a.u.)       :      0.73126
Magnitude (Debye)      :      1.85871

Rotational constants in cm-1:     4.206880     0.817672     0.793520
Rotational constants in MHz : 126119.087927 24513.204452 23789.134129

                             ****ORCA TERMINATED NORMALLY****
TOTAL RUN TIME: 0 days 0 hours 1 minutes 9 seconds 977 msec
