                         Program Version 4.1.2  - RELEASE  -
|  1> #Run DFT-D3 single point of the dimer
|  2> ! wB97X-D3 def2-TZVP TIGHTSCF CHELPG PMODEL PAL8
|  3>
|  4> %base "16-87_DFT_AB"
|  5>
|  6> %scf
|  7> MaxIter 1000
|  8> end
|  9>
| 10> * xyz 0 1
| 11>   C                      7.892758             10.821007            -2.226867
| 12>   O                      8.272880             9.742820             -1.404930
| 13>   H                      8.541633             10.062633            -0.501364
| 14>   H                      7.192416             10.442952            -2.924750
| 15>   H                      7.429778             11.576646            -1.600123
| 16>   H                      8.748379             11.363983            -2.592521
| 17>   C                      10.089719            10.110157            2.020711
| 18>   O                      10.281442            9.413469             0.782419
| 19>   H                      11.005964            9.896686             0.423732
| 20>   H                      9.528740             11.055358            1.829653
| 21>   H                      9.457934             9.513034             2.708675
| 22>   H                      11.075233            10.346979            2.472632
| 23> *
| 24>
| 25> #Run DFT-D3 single point of the molecule with dimer basis set
| 26> $new_job
| 27> %base "16-87_DFT_A"
| 28> ! wB97X-D3 def2-TZVP TIGHTSCF CHELPG PMODEL
| 29>
| 30> %scf
| 31> MaxIter 1000
| 32> end
| 33>
| 34> * xyz 0 1
| 35>   C                      7.892758             10.821007            -2.226867
| 36>   O                      8.272880             9.742820             -1.404930
| 37>   H                      8.541633             10.062633            -0.501364
| 38>   H                      7.192416             10.442952            -2.924750
| 39>   H                      7.429778             11.576646            -1.600123
| 40>   H                      8.748379             11.363983            -2.592521
| 41>   C                    : 10.089719            10.110157            2.020711
| 42>   O                    : 10.281442            9.413469             0.782419
| 43>   H                    : 11.005964            9.896686             0.423732
| 44>   H                    : 9.528740             11.055358            1.829653
| 45>   H                    : 9.457934             9.513034             2.708675
| 46>   H                    : 11.075233            10.346979            2.472632
| 47> *
| 48>
| 49> #Run DFT-D3 single point of the particle with dimer basis set
| 50> $new_job
| 51> %base "16-87_DFT_B"
| 52> ! wB97X-D3 def2-TZVP TIGHTSCF CHELPG PMODEL
| 53>
| 54> %scf
| 55> MaxIter 1000
| 56> end
| 57>
| 58> * xyz 0 1
| 59>   C                    : 7.892758             10.821007            -2.226867
| 60>   O                    : 8.272880             9.742820             -1.404930
| 61>   H                    : 8.541633             10.062633            -0.501364
| 62>   H                    : 7.192416             10.442952            -2.924750
| 63>   H                    : 7.429778             11.576646            -1.600123
| 64>   H                    : 8.748379             11.363983            -2.592521
| 65>   C                      10.089719            10.110157            2.020711
| 66>   O                      10.281442            9.413469             0.782419
| 67>   H                      11.005964            9.896686             0.423732
| 68>   H                      9.528740             11.055358            1.829653
| 69>   H                      9.457934             9.513034             2.708675
| 70>   H                      11.075233            10.346979            2.472632
| 71> *
| 72>
| 73>                          ****END OF INPUT****
 Total Charge           Charge          ....    0
 Multiplicity           Mult            ....    1
 Number of Electrons    NEL             ....   36
Dispersion correction           -0.001532768
FINAL SINGLE POINT ENERGY      -231.467342756837
Dispersion correction           -0.000224679
FINAL SINGLE POINT ENERGY      -115.730811437207

CARTESIAN COORDINATES (ANGSTROEM)
---------------------------------
  C      7.892758   10.821007   -2.226867
  O      8.272880    9.742820   -1.404930
  H      8.541633   10.062633   -0.501364
  H      7.192416   10.442952   -2.924750
  H      7.429778   11.576646   -1.600123
  H      8.748379   11.363983   -2.592521
  C     10.089719   10.110157    2.020711
  O     10.281442    9.413469    0.782419
  H     11.005964    9.896686    0.423732
  H      9.528740   11.055358    1.829653
  H      9.457934    9.513034    2.708675
  H     11.075233   10.346979    2.472632

 Multiplicity           Mult            ....    1
 Number of Electrons    NEL             ....   18
 Basis Dimension        Dim             ....  172

ORBITAL ENERGIES
----------------

  NO   OCC          E(Eh)            E(eV)
   0   2.0000     -19.230996      -523.3020
   1   2.0000     -10.321607      -280.8652
   2   2.0000      -1.140081       -31.0232
   3   2.0000      -0.790126       -21.5004
   4   2.0000      -0.607799       -16.5391
   5   2.0000      -0.539470       -14.6797
   6   2.0000      -0.525009       -14.2862
   7   2.0000      -0.444243       -12.0885
   8   2.0000      -0.374207       -10.1827
   9   0.0000       0.091184         2.4812
  10   0.0000       0.122288         3.3276
  11   0.0000       0.153051         4.1647
  12   0.0000       0.183182         4.9846
  13   0.0000       0.196072         5.3354

MULLIKEN ATOMIC CHARGES
-----------------------
   0 C :   -0.000831
   1 O :    0.001296
   2 H :   -0.008734
   3 H :   -0.000108
   4 H :    0.000211
   5 H :    0.000108
   6 C :   -0.178045
   7 O :   -0.459560
   8 H :    0.310953
   9 H :    0.107378
  10 H :    0.119606
  11 H :    0.107725
Sum of atomic charges:    0.0000000

LOEWDIN ATOMIC CHARGES
----------------------
   0 C :   -0.000793
   1 O :   -0.006139
   2 H :   -0.021605
   3 H :   -0.000033
   4 H :   -0.000015
   5 H :   -0.000071
   6 C :   -0.377275
   7 O :   -0.061226
   8 H :    0.159227
   9 H :    0.099296
  10 H :    0.109303
  11 H :    0.099331

  Mayer bond orders larger than 0.1
B(  6-C ,  7-O ) :   0.9848 B(  6-C ,  9-H ) :   0.9747 B(  6-C , 10-H ) :   0.9745
B(  6-C , 11-H ) :   0.9783 B(  7-O ,  8-H ) :   0.9069

Dispersion correction           -0.000228631
FINAL SINGLE POINT ENERGY      -115.734098284134

DIPOLE MOMENT
-------------
                                X             Y             Z
Electronic contribution:      0.16155      -1.04005      -1.50478
Nuclear contribution   :      0.22331       1.60472       1.77985
                        -----------------------------------------
Total Dipole Moment    :      0.38485       0.56468       0.27508
                        -----------------------------------------
Magnitude (a.u.)       :      0.73664
Magnitude (Debye)      :      1.87239

Rotational constants in cm-1:     4.113654     0.823427     0.790689
Rotational constants in MHz : 123324.230740 24685.734177 23704.256935

                             ****ORCA TERMINATED NORMALLY****
TOTAL RUN TIME: 0 days 0 hours 0 minutes 54 seconds 54 msec
