                         Program Version 4.1.2  - RELEASE  -
|  1> #Run DFT-D3 single point of the dimer
|  2> ! wB97X-D3 def2-TZVP TIGHTSCF CHELPG PMODEL PAL8
|  3>
|  4> %base "22-192_DFT_AB"
|  5>
|  6> %scf
|  7> MaxIter 1000
|  8> end
|  9>
| 10> * xyz 0 1
| 11>   C                      4.063604             -4.164335            1.522662
| 12>   O                      3.636612             -3.300503            0.440059
| 13>   H                      4.382438             -2.679649            0.364125
| 14>   H                      3.242593             -4.589483            2.142196
| 15>   H                      4.763362             -5.016916            1.216015
| 16>   H                      4.592937             -3.590968            2.334445
| 17>   C                      2.297773             -6.764124            0.287503
| 18>   O                      2.256616             -5.790287            -0.759902
| 19>   H                      2.855951             -5.067472            -0.529458
| 20>   H                      1.602706             -7.583123            0.132265
| 21>   H                      3.277914             -7.233672            0.455721
| 22>   H                      1.867347             -6.276976            1.178452
| 23> *
| 24>
| 25> #Run DFT-D3 single point of the molecule with dimer basis set
| 26> $new_job
| 27> %base "22-192_DFT_A"
| 28> ! wB97X-D3 def2-TZVP TIGHTSCF CHELPG PMODEL
| 29>
| 30> %scf
| 31> MaxIter 1000
| 32> end
| 33>
| 34> * xyz 0 1
| 35>   C                      4.063604             -4.164335            1.522662
| 36>   O                      3.636612             -3.300503            0.440059
| 37>   H                      4.382438             -2.679649            0.364125
| 38>   H                      3.242593             -4.589483            2.142196
| 39>   H                      4.763362             -5.016916            1.216015
| 40>   H                      4.592937             -3.590968            2.334445
| 41>   C                    : 2.297773             -6.764124            0.287503
| 42>   O                    : 2.256616             -5.790287            -0.759902
| 43>   H                    : 2.855951             -5.067472            -0.529458
| 44>   H                    : 1.602706             -7.583123            0.132265
| 45>   H                    : 3.277914             -7.233672            0.455721
| 46>   H                    : 1.867347             -6.276976            1.178452
| 47> *
| 48>
| 49> #Run DFT-D3 single point of the particle with dimer basis set
| 50> $new_job
| 51> %base "22-192_DFT_B"
| 52> ! wB97X-D3 def2-TZVP TIGHTSCF CHELPG PMODEL
| 53>
| 54> %scf
| 55> MaxIter 1000
| 56> end
| 57>
| 58> * xyz 0 1
| 59>   C                    : 4.063604             -4.164335            1.522662
| 60>   O                    : 3.636612             -3.300503            0.440059
| 61>   H                    : 4.382438             -2.679649            0.364125
| 62>   H                    : 3.242593             -4.589483            2.142196
| 63>   H                    : 4.763362             -5.016916            1.216015
| 64>   H                    : 4.592937             -3.590968            2.334445
| 65>   C                      2.297773             -6.764124            0.287503
| 66>   O                      2.256616             -5.790287            -0.759902
| 67>   H                      2.855951             -5.067472            -0.529458
| 68>   H                      1.602706             -7.583123            0.132265
| 69>   H                      3.277914             -7.233672            0.455721
| 70>   H                      1.867347             -6.276976            1.178452
| 71> *
| 72>
| 73>                          ****END OF INPUT****
 Total Charge           Charge          ....    0
 Multiplicity           Mult            ....    1
 Number of Electrons    NEL             ....   36
Dispersion correction           -0.002330320
FINAL SINGLE POINT ENERGY      -231.467588990096
Dispersion correction           -0.000281969
FINAL SINGLE POINT ENERGY      -115.729052904369

CARTESIAN COORDINATES (ANGSTROEM)
---------------------------------
  C      4.063604   -4.164335    1.522662
  O      3.636612   -3.300503    0.440059
  H      4.382438   -2.679649    0.364125
  H      3.242593   -4.589483    2.142196
  H      4.763362   -5.016916    1.216015
  H      4.592937   -3.590968    2.334445
  C      2.297773   -6.764124    0.287503
  O      2.256616   -5.790287   -0.759902
  H      2.855951   -5.067472   -0.529458
  H      1.602706   -7.583123    0.132265
  H      3.277914   -7.233672    0.455721
  H      1.867347   -6.276976    1.178452

 Multiplicity           Mult            ....    1
 Number of Electrons    NEL             ....   18
 Basis Dimension        Dim             ....  172

ORBITAL ENERGIES
----------------

  NO   OCC          E(Eh)            E(eV)
   0   2.0000     -19.231389      -523.3127
   1   2.0000     -10.314865      -280.6817
   2   2.0000      -1.129619       -30.7385
   3   2.0000      -0.796609       -21.6768
   4   2.0000      -0.602747       -16.4016
   5   2.0000      -0.545999       -14.8574
   6   2.0000      -0.527203       -14.3459
   7   2.0000      -0.427581       -11.6351
   8   2.0000      -0.375369       -10.2143
   9   0.0000       0.070810         1.9268
  10   0.0000       0.138886         3.7793
  11   0.0000       0.144476         3.9314
  12   0.0000       0.170644         4.6435
  13   0.0000       0.178415         4.8549

MULLIKEN ATOMIC CHARGES
-----------------------
   0 C :   -0.005216
   1 O :    0.000427
   2 H :    0.000028
   3 H :   -0.001331
   4 H :   -0.000391
   5 H :   -0.000109
   6 C :   -0.181686
   7 O :   -0.470839
   8 H :    0.315264
   9 H :    0.127064
  10 H :    0.109598
  11 H :    0.107191
Sum of atomic charges:    0.0000000

LOEWDIN ATOMIC CHARGES
----------------------
   0 C :   -0.016205
   1 O :   -0.010132
   2 H :   -0.000443
   3 H :   -0.004702
   4 H :   -0.002051
   5 H :   -0.000159
   6 C :   -0.371770
   7 O :   -0.081279
   8 H :    0.177386
   9 H :    0.107037
  10 H :    0.098659
  11 H :    0.103659

  Mayer bond orders larger than 0.1
B(  6-C ,  7-O ) :   0.9906 B(  6-C ,  9-H ) :   0.9713 B(  6-C , 10-H ) :   0.9710
B(  6-C , 11-H ) :   0.9865 B(  7-O ,  8-H ) :   0.9068

Dispersion correction           -0.000253330
FINAL SINGLE POINT ENERGY      -115.733573419523

DIPOLE MOMENT
-------------
                                X             Y             Z
Electronic contribution:     -0.05044       1.12387      -1.46048
Nuclear contribution   :      0.41519      -1.08374       2.02613
                        -----------------------------------------
Total Dipole Moment    :      0.36475       0.04013       0.56565
                        -----------------------------------------
Magnitude (a.u.)       :      0.67425
Magnitude (Debye)      :      1.71382

Rotational constants in cm-1:     4.333094     0.804976     0.787486
Rotational constants in MHz : 129902.896283 24132.573575 23608.223158

                             ****ORCA TERMINATED NORMALLY****
TOTAL RUN TIME: 0 days 0 hours 1 minutes 8 seconds 982 msec
