                         Program Version 4.1.2  - RELEASE  -
|  1> #Run DFT-D3 single point of the dimer
|  2> ! wB97X-D3 def2-TZVP TIGHTSCF CHELPG PMODEL PAL8
|  3>
|  4> %base "10-176_DFT_AB"
|  5>
|  6> %scf
|  7> MaxIter 1000
|  8> end
|  9>
| 10> * xyz 0 1
| 11>   C                      -4.165208            -6.874129            5.786169
| 12>   O                      -4.507028            -5.521137            6.047845
| 13>   H                      -3.898203            -4.878910            5.624120
| 14>   H                      -4.916415            -7.543379            6.206603
| 15>   H                      -4.069517            -7.060152            4.748270
| 16>   H                      -3.136415            -7.146011            6.180695
| 17>   C                      -4.408711            -4.803330            9.541480
| 18>   O                      -3.507719            -5.619174            8.803093
| 19>   H                      -3.577156            -5.385569            7.868004
| 20>   H                      -3.953242            -3.834839            9.823231
| 21>   H                      -5.308709            -4.607049            9.067527
| 22>   H                      -4.647134            -5.268615            10.475084
| 23> *
| 24>
| 25> #Run DFT-D3 single point of the molecule with dimer basis set
| 26> $new_job
| 27> %base "10-176_DFT_A"
| 28> ! wB97X-D3 def2-TZVP TIGHTSCF CHELPG PMODEL
| 29>
| 30> %scf
| 31> MaxIter 1000
| 32> end
| 33>
| 34> * xyz 0 1
| 35>   C                      -4.165208            -6.874129            5.786169
| 36>   O                      -4.507028            -5.521137            6.047845
| 37>   H                      -3.898203            -4.878910            5.624120
| 38>   H                      -4.916415            -7.543379            6.206603
| 39>   H                      -4.069517            -7.060152            4.748270
| 40>   H                      -3.136415            -7.146011            6.180695
| 41>   C                    : -4.408711            -4.803330            9.541480
| 42>   O                    : -3.507719            -5.619174            8.803093
| 43>   H                    : -3.577156            -5.385569            7.868004
| 44>   H                    : -3.953242            -3.834839            9.823231
| 45>   H                    : -5.308709            -4.607049            9.067527
| 46>   H                    : -4.647134            -5.268615            10.475084
| 47> *
| 48>
| 49> #Run DFT-D3 single point of the particle with dimer basis set
| 50> $new_job
| 51> %base "10-176_DFT_B"
| 52> ! wB97X-D3 def2-TZVP TIGHTSCF CHELPG PMODEL
| 53>
| 54> %scf
| 55> MaxIter 1000
| 56> end
| 57>
| 58> * xyz 0 1
| 59>   C                    : -4.165208            -6.874129            5.786169
| 60>   O                    : -4.507028            -5.521137            6.047845
| 61>   H                    : -3.898203            -4.878910            5.624120
| 62>   H                    : -4.916415            -7.543379            6.206603
| 63>   H                    : -4.069517            -7.060152            4.748270
| 64>   H                    : -3.136415            -7.146011            6.180695
| 65>   C                      -4.408711            -4.803330            9.541480
| 66>   O                      -3.507719            -5.619174            8.803093
| 67>   H                      -3.577156            -5.385569            7.868004
| 68>   H                      -3.953242            -3.834839            9.823231
| 69>   H                      -5.308709            -4.607049            9.067527
| 70>   H                      -4.647134            -5.268615            10.475084
| 71> *
| 72>
| 73>                          ****END OF INPUT****
 Total Charge           Charge          ....    0
 Multiplicity           Mult            ....    1
 Number of Electrons    NEL             ....   36
Dispersion correction           -0.001905264
FINAL SINGLE POINT ENERGY      -231.474473808603
Dispersion correction           -0.000257692
FINAL SINGLE POINT ENERGY      -115.733869122018

CARTESIAN COORDINATES (ANGSTROEM)
---------------------------------
  C     -4.165208   -6.874129    5.786169
  O     -4.507028   -5.521137    6.047845
  H     -3.898203   -4.878910    5.624120
  H     -4.916415   -7.543379    6.206603
  H     -4.069517   -7.060152    4.748270
  H     -3.136415   -7.146011    6.180695
  C     -4.408711   -4.803330    9.541480
  O     -3.507719   -5.619174    8.803093
  H     -3.577156   -5.385569    7.868004
  H     -3.953242   -3.834839    9.823231
  H     -5.308709   -4.607049    9.067527
  H     -4.647134   -5.268615   10.475084

 Multiplicity           Mult            ....    1
 Number of Electrons    NEL             ....   18
 Basis Dimension        Dim             ....  172

ORBITAL ENERGIES
----------------

  NO   OCC          E(Eh)            E(eV)
   0   2.0000     -19.232855      -523.3526
   1   2.0000     -10.305601      -280.4297
   2   2.0000      -1.132730       -30.8231
   3   2.0000      -0.803020       -21.8513
   4   2.0000      -0.614063       -16.7095
   5   2.0000      -0.538796       -14.6614
   6   2.0000      -0.529406       -14.4059
   7   2.0000      -0.438690       -11.9374
   8   2.0000      -0.374593       -10.1932
   9   0.0000       0.072987         1.9861
  10   0.0000       0.134778         3.6675
  11   0.0000       0.154274         4.1980
  12   0.0000       0.171573         4.6687
  13   0.0000       0.188650         5.1334

MULLIKEN ATOMIC CHARGES
-----------------------
   0 C :   -0.009390
   1 O :   -0.002655
   2 H :   -0.000778
   3 H :    0.001041
   4 H :   -0.000415
   5 H :   -0.000120
   6 C :   -0.161967
   7 O :   -0.464515
   8 H :    0.316278
   9 H :    0.095921
  10 H :    0.110715
  11 H :    0.115886
Sum of atomic charges:   -0.0000000

LOEWDIN ATOMIC CHARGES
----------------------
   0 C :   -0.011664
   1 O :   -0.014229
   2 H :   -0.002331
   3 H :   -0.000729
   4 H :   -0.000235
   5 H :   -0.001847
   6 C :   -0.370153
   7 O :   -0.065541
   8 H :    0.180384
   9 H :    0.098723
  10 H :    0.083772
  11 H :    0.103849

  Mayer bond orders larger than 0.1
B(  6-C ,  7-O ) :   1.0051 B(  6-C ,  9-H ) :   0.9824 B(  6-C , 10-H ) :   0.9740
B(  6-C , 11-H ) :   0.9763 B(  7-O ,  8-H ) :   0.9006

Dispersion correction           -0.000248112
FINAL SINGLE POINT ENERGY      -115.734285418294

DIPOLE MOMENT
-------------
                                X             Y             Z
Electronic contribution:      1.12219      -1.14717      -0.88736
Nuclear contribution   :     -1.55978       1.61877       0.61412
                        -----------------------------------------
Total Dipole Moment    :     -0.43759       0.47160      -0.27324
                        -----------------------------------------
Magnitude (a.u.)       :      0.69897
Magnitude (Debye)      :      1.77664

Rotational constants in cm-1:     4.514579     0.819604     0.793439
Rotational constants in MHz : 135343.668731 24571.103084 23786.707069

                             ****ORCA TERMINATED NORMALLY****
TOTAL RUN TIME: 0 days 0 hours 1 minutes 7 seconds 663 msec
