                         Program Version 4.1.2  - RELEASE  -
|  1> #Run DFT-D3 single point of the dimer
|  2> ! wB97X-D3 def2-TZVP TIGHTSCF CHELPG PMODEL PAL8
|  3>
|  4> %base "11-71_DFT_AB"
|  5>
|  6> %scf
|  7> MaxIter 1000
|  8> end
|  9>
| 10> * xyz 0 1
| 11>   C                      11.210682            9.246803             6.188863
| 12>   O                      11.549430            8.223964             5.224175
| 13>   H                      11.164311            8.328825             4.327987
| 14>   H                      10.399351            9.964930             5.876393
| 15>   H                      11.010089            8.837820             7.195674
| 16>   H                      12.169177            9.877960             6.296828
| 17>   C                      10.510120            4.803059             2.009248
| 18>   O                      9.511246             5.390401             2.720921
| 19>   H                      9.788360             6.264995             2.646968
| 20>   H                      10.256843            3.794557             1.720164
| 21>   H                      10.969106            5.393652             1.241565
| 22>   H                      11.349476            4.549797             2.698899
| 23> *
| 24>
| 25> #Run DFT-D3 single point of the molecule with dimer basis set
| 26> $new_job
| 27> %base "11-71_DFT_A"
| 28> ! wB97X-D3 def2-TZVP TIGHTSCF CHELPG PMODEL
| 29>
| 30> %scf
| 31> MaxIter 1000
| 32> end
| 33>
| 34> * xyz 0 1
| 35>   C                      11.210682            9.246803             6.188863
| 36>   O                      11.549430            8.223964             5.224175
| 37>   H                      11.164311            8.328825             4.327987
| 38>   H                      10.399351            9.964930             5.876393
| 39>   H                      11.010089            8.837820             7.195674
| 40>   H                      12.169177            9.877960             6.296828
| 41>   C                    : 10.510120            4.803059             2.009248
| 42>   O                    : 9.511246             5.390401             2.720921
| 43>   H                    : 9.788360             6.264995             2.646968
| 44>   H                    : 10.256843            3.794557             1.720164
| 45>   H                    : 10.969106            5.393652             1.241565
| 46>   H                    : 11.349476            4.549797             2.698899
| 47> *
| 48>
| 49> #Run DFT-D3 single point of the particle with dimer basis set
| 50> $new_job
| 51> %base "11-71_DFT_B"
| 52> ! wB97X-D3 def2-TZVP TIGHTSCF CHELPG PMODEL
| 53>
| 54> %scf
| 55> MaxIter 1000
| 56> end
| 57>
| 58> * xyz 0 1
| 59>   C                    : 11.210682            9.246803             6.188863
| 60>   O                    : 11.549430            8.223964             5.224175
| 61>   H                    : 11.164311            8.328825             4.327987
| 62>   H                    : 10.399351            9.964930             5.876393
| 63>   H                    : 11.010089            8.837820             7.195674
| 64>   H                    : 12.169177            9.877960             6.296828
| 65>   C                      10.510120            4.803059             2.009248
| 66>   O                      9.511246             5.390401             2.720921
| 67>   H                      9.788360             6.264995             2.646968
| 68>   H                      10.256843            3.794557             1.720164
| 69>   H                      10.969106            5.393652             1.241565
| 70>   H                      11.349476            4.549797             2.698899
| 71> *
| 72>
| 73>                          ****END OF INPUT****
 Total Charge           Charge          ....    0
 Multiplicity           Mult            ....    1
 Number of Electrons    NEL             ....   36
Dispersion correction           -0.000921000
FINAL SINGLE POINT ENERGY      -231.450962222577
Dispersion correction           -0.000298088
FINAL SINGLE POINT ENERGY      -115.728250992165

CARTESIAN COORDINATES (ANGSTROEM)
---------------------------------
  C     11.210682    9.246803    6.188863
  O     11.549430    8.223964    5.224175
  H     11.164311    8.328825    4.327987
  H     10.399351    9.964930    5.876393
  H     11.010089    8.837820    7.195674
  H     12.169177    9.877960    6.296828
  C     10.510120    4.803059    2.009248
  O      9.511246    5.390401    2.720921
  H      9.788360    6.264995    2.646968
  H     10.256843    3.794557    1.720164
  H     10.969106    5.393652    1.241565
  H     11.349476    4.549797    2.698899

 Multiplicity           Mult            ....    1
 Number of Electrons    NEL             ....   18
 Basis Dimension        Dim             ....  172

ORBITAL ENERGIES
----------------

  NO   OCC          E(Eh)            E(eV)
   0   2.0000     -19.231222      -523.3082
   1   2.0000     -10.307335      -280.4769
   2   2.0000      -1.171574       -31.8801
   3   2.0000      -0.795730       -21.6529
   4   2.0000      -0.632249       -17.2044
   5   2.0000      -0.545286       -14.8380
   6   2.0000      -0.533800       -14.5254
   7   2.0000      -0.452083       -12.3018
   8   2.0000      -0.364950        -9.9308
   9   0.0000       0.079599         2.1660
  10   0.0000       0.113433         3.0867
  11   0.0000       0.155262         4.2249
  12   0.0000       0.183778         5.0009
  13   0.0000       0.193819         5.2741

MULLIKEN ATOMIC CHARGES
-----------------------
   0 C :    0.000072
   1 O :    0.000027
   2 H :   -0.001039
   3 H :   -0.000006
   4 H :    0.000006
   5 H :   -0.000003
   6 C :   -0.175507
   7 O :   -0.433378
   8 H :    0.308676
   9 H :    0.109733
  10 H :    0.105794
  11 H :    0.085625
Sum of atomic charges:    0.0000000

LOEWDIN ATOMIC CHARGES
----------------------
   0 C :   -0.000012
   1 O :   -0.000116
   2 H :   -0.001027
   3 H :   -0.000000
   4 H :   -0.000000
   5 H :   -0.000001
   6 C :   -0.434324
   7 O :   -0.010412
   8 H :    0.154524
   9 H :    0.103931
  10 H :    0.091158
  11 H :    0.096280

  Mayer bond orders larger than 0.1
B(  6-C ,  7-O ) :   1.0146 B(  6-C ,  9-H ) :   0.9787 B(  6-C , 10-H ) :   0.9792
B(  6-C , 11-H ) :   0.9789 B(  7-O ,  8-H ) :   0.9121

Dispersion correction           -0.000198746
FINAL SINGLE POINT ENERGY      -115.723713431858

DIPOLE MOMENT
-------------
                                X             Y             Z
Electronic contribution:     -1.61061       0.79223       0.80592
Nuclear contribution   :      2.12927      -0.44804      -1.10644
                        -----------------------------------------
Total Dipole Moment    :      0.51866       0.34418      -0.30053
                        -----------------------------------------
Magnitude (a.u.)       :      0.69122
Magnitude (Debye)      :      1.75695

Rotational constants in cm-1:     4.414628     0.901638     0.854043
Rotational constants in MHz : 132347.231552 27030.435958 25603.568888

                             ****ORCA TERMINATED NORMALLY****
TOTAL RUN TIME: 0 days 0 hours 1 minutes 11 seconds 592 msec
