                         Program Version 4.1.2  - RELEASE  -
|  1> #Run DFT-D3 single point of the dimer
|  2> ! wB97X-D3 def2-TZVP TIGHTSCF CHELPG PMODEL PAL8
|  3>
|  4> %base "16-125_DFT_AB"
|  5>
|  6> %scf
|  7> MaxIter 1000
|  8> end
|  9>
| 10> * xyz 0 1
| 11>   C                      -6.453457            -0.292748            3.025583
| 12>   O                      -7.118976            0.113840             4.133951
| 13>   H                      -6.482829            0.713591             4.577241
| 14>   H                      -7.026724            -1.111261            2.492437
| 15>   H                      -6.333896            0.490249             2.235554
| 16>   H                      -5.489757            -0.618275            3.381762
| 17>   C                      -6.937713            2.373086             6.655401
| 18>   O                      -5.794244            1.905989             5.977256
| 19>   H                      -5.128187            2.605545             6.038818
| 20>   H                      -6.876055            2.211186             7.722361
| 21>   H                      -7.201990            3.407024             6.351372
| 22>   H                      -7.791973            1.711379             6.400325
| 23> *
| 24>
| 25> #Run DFT-D3 single point of the molecule with dimer basis set
| 26> $new_job
| 27> %base "16-125_DFT_A"
| 28> ! wB97X-D3 def2-TZVP TIGHTSCF CHELPG PMODEL
| 29>
| 30> %scf
| 31> MaxIter 1000
| 32> end
| 33>
| 34> * xyz 0 1
| 35>   C                      -6.453457            -0.292748            3.025583
| 36>   O                      -7.118976            0.113840             4.133951
| 37>   H                      -6.482829            0.713591             4.577241
| 38>   H                      -7.026724            -1.111261            2.492437
| 39>   H                      -6.333896            0.490249             2.235554
| 40>   H                      -5.489757            -0.618275            3.381762
| 41>   C                    : -6.937713            2.373086             6.655401
| 42>   O                    : -5.794244            1.905989             5.977256
| 43>   H                    : -5.128187            2.605545             6.038818
| 44>   H                    : -6.876055            2.211186             7.722361
| 45>   H                    : -7.201990            3.407024             6.351372
| 46>   H                    : -7.791973            1.711379             6.400325
| 47> *
| 48>
| 49> #Run DFT-D3 single point of the particle with dimer basis set
| 50> $new_job
| 51> %base "16-125_DFT_B"
| 52> ! wB97X-D3 def2-TZVP TIGHTSCF CHELPG PMODEL
| 53>
| 54> %scf
| 55> MaxIter 1000
| 56> end
| 57>
| 58> * xyz 0 1
| 59>   C                    : -6.453457            -0.292748            3.025583
| 60>   O                    : -7.118976            0.113840             4.133951
| 61>   H                    : -6.482829            0.713591             4.577241
| 62>   H                    : -7.026724            -1.111261            2.492437
| 63>   H                    : -6.333896            0.490249             2.235554
| 64>   H                    : -5.489757            -0.618275            3.381762
| 65>   C                      -6.937713            2.373086             6.655401
| 66>   O                      -5.794244            1.905989             5.977256
| 67>   H                      -5.128187            2.605545             6.038818
| 68>   H                      -6.876055            2.211186             7.722361
| 69>   H                      -7.201990            3.407024             6.351372
| 70>   H                      -7.791973            1.711379             6.400325
| 71> *
| 72>
| 73>                          ****END OF INPUT****
 Total Charge           Charge          ....    0
 Multiplicity           Mult            ....    1
 Number of Electrons    NEL             ....   36
Dispersion correction           -0.001659880
FINAL SINGLE POINT ENERGY      -231.473214775005
Dispersion correction           -0.000206607
FINAL SINGLE POINT ENERGY      -115.729201433907

CARTESIAN COORDINATES (ANGSTROEM)
---------------------------------
  C     -6.453457   -0.292748    3.025583
  O     -7.118976    0.113840    4.133951
  H     -6.482829    0.713591    4.577241
  H     -7.026724   -1.111261    2.492437
  H     -6.333896    0.490249    2.235554
  H     -5.489757   -0.618275    3.381762
  C     -6.937713    2.373086    6.655401
  O     -5.794244    1.905989    5.977256
  H     -5.128187    2.605545    6.038818
  H     -6.876055    2.211186    7.722361
  H     -7.201990    3.407024    6.351372
  H     -7.791973    1.711379    6.400325

 Multiplicity           Mult            ....    1
 Number of Electrons    NEL             ....   18
 Basis Dimension        Dim             ....  172

ORBITAL ENERGIES
----------------

  NO   OCC          E(Eh)            E(eV)
   0   2.0000     -19.232116      -523.3325
   1   2.0000     -10.314316      -280.6668
   2   2.0000      -1.137524       -30.9536
   3   2.0000      -0.793531       -21.5931
   4   2.0000      -0.607496       -16.5308
   5   2.0000      -0.549948       -14.9648
   6   2.0000      -0.523843       -14.2545
   7   2.0000      -0.430364       -11.7108
   8   2.0000      -0.374975       -10.2036
   9   0.0000       0.100078         2.7233
  10   0.0000       0.122170         3.3244
  11   0.0000       0.152045         4.1374
  12   0.0000       0.184959         5.0330
  13   0.0000       0.205106         5.5812

MULLIKEN ATOMIC CHARGES
-----------------------
   0 C :   -0.001547
   1 O :   -0.001204
   2 H :   -0.000295
   3 H :   -0.000131
   4 H :   -0.000096
   5 H :   -0.000639
   6 C :   -0.165859
   7 O :   -0.468132
   8 H :    0.312280
   9 H :    0.107162
  10 H :    0.102674
  11 H :    0.115789
Sum of atomic charges:    0.0000000

LOEWDIN ATOMIC CHARGES
----------------------
   0 C :   -0.001810
   1 O :   -0.004395
   2 H :   -0.036468
   3 H :   -0.000026
   4 H :   -0.000081
   5 H :   -0.000284
   6 C :   -0.391380
   7 O :   -0.043740
   8 H :    0.173446
   9 H :    0.093020
  10 H :    0.098845
  11 H :    0.112875

  Mayer bond orders larger than 0.1
B(  6-C ,  7-O ) :   0.9954 B(  6-C ,  9-H ) :   0.9701 B(  6-C , 10-H ) :   0.9760
B(  6-C , 11-H ) :   0.9802 B(  7-O ,  8-H ) :   0.8976

Dispersion correction           -0.000242509
FINAL SINGLE POINT ENERGY      -115.734906885558

DIPOLE MOMENT
-------------
                                X             Y             Z
Electronic contribution:      1.47886      -0.62978      -0.87267
Nuclear contribution   :     -1.51723       1.23471       1.17655
                        -----------------------------------------
Total Dipole Moment    :     -0.03837       0.60493       0.30389
                        -----------------------------------------
Magnitude (a.u.)       :      0.67806
Magnitude (Debye)      :      1.72349

Rotational constants in cm-1:     4.241585     0.835470     0.804862
Rotational constants in MHz : 127159.515403 25046.747593 24129.160488

                             ****ORCA TERMINATED NORMALLY****
TOTAL RUN TIME: 0 days 0 hours 0 minutes 55 seconds 806 msec
