                         Program Version 4.1.2  - RELEASE  -
|  1> #Run DFT-D3 single point of the dimer
|  2> ! wB97X-D3 def2-TZVP TIGHTSCF CHELPG PMODEL PAL8
|  3>
|  4> %base "4-95_DFT_AB"
|  5>
|  6> %scf
|  7> MaxIter 1000
|  8> end
|  9>
| 10> * xyz 0 1
| 11>   C                      8.304697             0.773642             -7.879795
| 12>   O                      7.697569             -0.052126            -8.879199
| 13>   H                      7.046114             -0.492704            -8.416586
| 14>   H                      8.728058             0.224718             -7.058519
| 15>   H                      9.138744             1.205424             -8.296531
| 16>   H                      7.608282             1.530593             -7.478363
| 17>   C                      5.326982             -3.493005            -9.906447
| 18>   O                      5.426055             -2.243732            -9.319270
| 19>   H                      5.245611             -1.623291            -10.030802
| 20>   H                      4.384417             -3.795366            -9.951787
| 21>   H                      5.735980             -3.562127            -10.935980
| 22>   H                      5.934296             -4.319825            -9.419366
| 23> *
| 24>
| 25> #Run DFT-D3 single point of the molecule with dimer basis set
| 26> $new_job
| 27> %base "4-95_DFT_A"
| 28> ! wB97X-D3 def2-TZVP TIGHTSCF CHELPG PMODEL
| 29>
| 30> %scf
| 31> MaxIter 1000
| 32> end
| 33>
| 34> * xyz 0 1
| 35>   C                      8.304697             0.773642             -7.879795
| 36>   O                      7.697569             -0.052126            -8.879199
| 37>   H                      7.046114             -0.492704            -8.416586
| 38>   H                      8.728058             0.224718             -7.058519
| 39>   H                      9.138744             1.205424             -8.296531
| 40>   H                      7.608282             1.530593             -7.478363
| 41>   C                    : 5.326982             -3.493005            -9.906447
| 42>   O                    : 5.426055             -2.243732            -9.319270
| 43>   H                    : 5.245611             -1.623291            -10.030802
| 44>   H                    : 4.384417             -3.795366            -9.951787
| 45>   H                    : 5.735980             -3.562127            -10.935980
| 46>   H                    : 5.934296             -4.319825            -9.419366
| 47> *
| 48>
| 49> #Run DFT-D3 single point of the particle with dimer basis set
| 50> $new_job
| 51> %base "4-95_DFT_B"
| 52> ! wB97X-D3 def2-TZVP TIGHTSCF CHELPG PMODEL
| 53>
| 54> %scf
| 55> MaxIter 1000
| 56> end
| 57>
| 58> * xyz 0 1
| 59>   C                    : 8.304697             0.773642             -7.879795
| 60>   O                    : 7.697569             -0.052126            -8.879199
| 61>   H                    : 7.046114             -0.492704            -8.416586
| 62>   H                    : 8.728058             0.224718             -7.058519
| 63>   H                    : 9.138744             1.205424             -8.296531
| 64>   H                    : 7.608282             1.530593             -7.478363
| 65>   C                      5.326982             -3.493005            -9.906447
| 66>   O                      5.426055             -2.243732            -9.319270
| 67>   H                      5.245611             -1.623291            -10.030802
| 68>   H                      4.384417             -3.795366            -9.951787
| 69>   H                      5.735980             -3.562127            -10.935980
| 70>   H                      5.934296             -4.319825            -9.419366
| 71> *
| 72>
| 73>                          ****END OF INPUT****
 Total Charge           Charge          ....    0
 Multiplicity           Mult            ....    1
 Number of Electrons    NEL             ....   36
Dispersion correction           -0.001229095
FINAL SINGLE POINT ENERGY      -231.458222405347
Dispersion correction           -0.000227093
FINAL SINGLE POINT ENERGY      -115.730123137982

CARTESIAN COORDINATES (ANGSTROEM)
---------------------------------
  C      8.304697    0.773642   -7.879795
  O      7.697569   -0.052126   -8.879199
  H      7.046114   -0.492704   -8.416586
  H      8.728058    0.224718   -7.058519
  H      9.138744    1.205424   -8.296531
  H      7.608282    1.530593   -7.478363
  C      5.326982   -3.493005   -9.906447
  O      5.426055   -2.243732   -9.319270
  H      5.245611   -1.623291  -10.030802
  H      4.384417   -3.795366   -9.951787
  H      5.735980   -3.562127  -10.935980
  H      5.934296   -4.319825   -9.419366

 Multiplicity           Mult            ....    1
 Number of Electrons    NEL             ....   18
 Basis Dimension        Dim             ....  172

ORBITAL ENERGIES
----------------

  NO   OCC          E(Eh)            E(eV)
   0   2.0000     -19.234211      -523.3895
   1   2.0000     -10.304800      -280.4079
   2   2.0000      -1.149468       -31.2786
   3   2.0000      -0.799992       -21.7689
   4   2.0000      -0.619337       -16.8530
   5   2.0000      -0.557997       -15.1839
   6   2.0000      -0.527266       -14.3476
   7   2.0000      -0.427069       -11.6211
   8   2.0000      -0.378187       -10.2910
   9   0.0000       0.094792         2.5794
  10   0.0000       0.117769         3.2047
  11   0.0000       0.152299         4.1443
  12   0.0000       0.192221         5.2306
  13   0.0000       0.203719         5.5435

MULLIKEN ATOMIC CHARGES
-----------------------
   0 C :    0.000098
   1 O :   -0.001425
   2 H :   -0.007755
   3 H :   -0.000028
   4 H :    0.000043
   5 H :   -0.000018
   6 C :   -0.172337
   7 O :   -0.455629
   8 H :    0.320636
   9 H :    0.113826
  10 H :    0.095060
  11 H :    0.107528
Sum of atomic charges:    0.0000000

LOEWDIN ATOMIC CHARGES
----------------------
   0 C :   -0.000221
   1 O :   -0.003790
   2 H :   -0.012198
   3 H :   -0.000005
   4 H :   -0.000005
   5 H :   -0.000003
   6 C :   -0.407156
   7 O :   -0.039104
   8 H :    0.178525
   9 H :    0.069670
  10 H :    0.098559
  11 H :    0.115728

  Mayer bond orders larger than 0.1
B(  6-C ,  7-O ) :   1.0009 B(  6-C ,  9-H ) :   0.9767 B(  6-C , 10-H ) :   0.9829
B(  6-C , 11-H ) :   0.9731 B(  7-O ,  8-H ) :   0.8949

Dispersion correction           -0.000225261
FINAL SINGLE POINT ENERGY      -115.723940679481

DIPOLE MOMENT
-------------
                                X             Y             Z
Electronic contribution:      0.01667       1.68628       0.98903
Nuclear contribution   :     -0.19116      -1.78128      -1.67961
                        -----------------------------------------
Total Dipole Moment    :     -0.17449      -0.09500      -0.69058
                        -----------------------------------------
Magnitude (a.u.)       :      0.71859
Magnitude (Debye)      :      1.82651

Rotational constants in cm-1:     4.538890     0.855643     0.821597
Rotational constants in MHz : 136072.498677 25651.526013 24630.851106

                             ****ORCA TERMINATED NORMALLY****
TOTAL RUN TIME: 0 days 0 hours 1 minutes 33 seconds 340 msec
