                         Program Version 4.1.2  - RELEASE  -
|  1> #Run DFT-D3 single point of the dimer
|  2> ! wB97X-D3 def2-TZVP TIGHTSCF CHELPG PMODEL PAL8
|  3>
|  4> %base "13-148_DFT_AB"
|  5>
|  6> %scf
|  7> MaxIter 1000
|  8> end
|  9>
| 10> * xyz 0 1
| 11>   C                      9.891550             0.480431             3.243141
| 12>   O                      8.944325             0.051359             2.272123
| 13>   H                      9.402910             -0.576865            1.694396
| 14>   H                      9.507481             1.242253             3.932442
| 15>   H                      10.277829            -0.410366            3.756870
| 16>   H                      10.825653            0.996837             2.785037
| 17>   C                      9.588185             -2.891128            0.419807
| 18>   O                      10.395657            -1.721919            0.495448
| 19>   H                      11.271674            -2.028501            0.244754
| 20>   H                      9.916124             -3.566033            1.222881
| 21>   H                      8.543671             -2.560426            0.675156
| 22>   H                      9.666766             -3.407956            -0.564267
| 23> *
| 24>
| 25> #Run DFT-D3 single point of the molecule with dimer basis set
| 26> $new_job
| 27> %base "13-148_DFT_A"
| 28> ! wB97X-D3 def2-TZVP TIGHTSCF CHELPG PMODEL
| 29>
| 30> %scf
| 31> MaxIter 1000
| 32> end
| 33>
| 34> * xyz 0 1
| 35>   C                      9.891550             0.480431             3.243141
| 36>   O                      8.944325             0.051359             2.272123
| 37>   H                      9.402910             -0.576865            1.694396
| 38>   H                      9.507481             1.242253             3.932442
| 39>   H                      10.277829            -0.410366            3.756870
| 40>   H                      10.825653            0.996837             2.785037
| 41>   C                    : 9.588185             -2.891128            0.419807
| 42>   O                    : 10.395657            -1.721919            0.495448
| 43>   H                    : 11.271674            -2.028501            0.244754
| 44>   H                    : 9.916124             -3.566033            1.222881
| 45>   H                    : 8.543671             -2.560426            0.675156
| 46>   H                    : 9.666766             -3.407956            -0.564267
| 47> *
| 48>
| 49> #Run DFT-D3 single point of the particle with dimer basis set
| 50> $new_job
| 51> %base "13-148_DFT_B"
| 52> ! wB97X-D3 def2-TZVP TIGHTSCF CHELPG PMODEL
| 53>
| 54> %scf
| 55> MaxIter 1000
| 56> end
| 57>
| 58> * xyz 0 1
| 59>   C                    : 9.891550             0.480431             3.243141
| 60>   O                    : 8.944325             0.051359             2.272123
| 61>   H                    : 9.402910             -0.576865            1.694396
| 62>   H                    : 9.507481             1.242253             3.932442
| 63>   H                    : 10.277829            -0.410366            3.756870
| 64>   H                    : 10.825653            0.996837             2.785037
| 65>   C                      9.588185             -2.891128            0.419807
| 66>   O                      10.395657            -1.721919            0.495448
| 67>   H                      11.271674            -2.028501            0.244754
| 68>   H                      9.916124             -3.566033            1.222881
| 69>   H                      8.543671             -2.560426            0.675156
| 70>   H                      9.666766             -3.407956            -0.564267
| 71> *
| 72>
| 73>                          ****END OF INPUT****
 Total Charge           Charge          ....    0
 Multiplicity           Mult            ....    1
 Number of Electrons    NEL             ....   36
Dispersion correction           -0.001786129
FINAL SINGLE POINT ENERGY      -231.475308177348
Dispersion correction           -0.000251833
FINAL SINGLE POINT ENERGY      -115.732555636098

CARTESIAN COORDINATES (ANGSTROEM)
---------------------------------
  C      9.891550    0.480431    3.243141
  O      8.944325    0.051359    2.272123
  H      9.402910   -0.576865    1.694396
  H      9.507481    1.242253    3.932442
  H     10.277829   -0.410366    3.756870
  H     10.825653    0.996837    2.785037
  C      9.588185   -2.891128    0.419807
  O     10.395657   -1.721919    0.495448
  H     11.271674   -2.028501    0.244754
  H      9.916124   -3.566033    1.222881
  H      8.543671   -2.560426    0.675156
  H      9.666766   -3.407956   -0.564267

 Multiplicity           Mult            ....    1
 Number of Electrons    NEL             ....   18
 Basis Dimension        Dim             ....  172

ORBITAL ENERGIES
----------------

  NO   OCC          E(Eh)            E(eV)
   0   2.0000     -19.230735      -523.2949
   1   2.0000     -10.319885      -280.8183
   2   2.0000      -1.136392       -30.9228
   3   2.0000      -0.788287       -21.4504
   4   2.0000      -0.608109       -16.5475
   5   2.0000      -0.542373       -14.7587
   6   2.0000      -0.520189       -14.1551
   7   2.0000      -0.439432       -11.9576
   8   2.0000      -0.373047       -10.1511
   9   0.0000       0.097220         2.6455
  10   0.0000       0.124346         3.3836
  11   0.0000       0.153878         4.1872
  12   0.0000       0.180409         4.9092
  13   0.0000       0.195027         5.3070

MULLIKEN ATOMIC CHARGES
-----------------------
   0 C :   -0.000582
   1 O :   -0.000477
   2 H :   -0.001130
   3 H :   -0.000284
   4 H :   -0.001693
   5 H :   -0.001027
   6 C :   -0.178454
   7 O :   -0.460346
   8 H :    0.306898
   9 H :    0.108126
  10 H :    0.119662
  11 H :    0.109307
Sum of atomic charges:    0.0000000

LOEWDIN ATOMIC CHARGES
----------------------
   0 C :   -0.004286
   1 O :   -0.003804
   2 H :   -0.036432
   3 H :   -0.000071
   4 H :   -0.000703
   5 H :   -0.000436
   6 C :   -0.382510
   7 O :   -0.051964
   8 H :    0.167876
   9 H :    0.095942
  10 H :    0.116990
  11 H :    0.099398

  Mayer bond orders larger than 0.1
B(  6-C ,  7-O ) :   0.9835 B(  6-C ,  9-H ) :   0.9771 B(  6-C , 10-H ) :   0.9780
B(  6-C , 11-H ) :   0.9655 B(  7-O ,  8-H ) :   0.9019

Dispersion correction           -0.000227646
FINAL SINGLE POINT ENERGY      -115.734948157790

DIPOLE MOMENT
-------------
                                X             Y             Z
Electronic contribution:      0.88093       1.53246       0.04117
Nuclear contribution   :     -0.65010      -2.18087      -0.22372
                        -----------------------------------------
Total Dipole Moment    :      0.23083      -0.64841      -0.18254
                        -----------------------------------------
Magnitude (a.u.)       :      0.71207
Magnitude (Debye)      :      1.80993

Rotational constants in cm-1:     4.050999     0.834988     0.799091
Rotational constants in MHz : 121445.881845 25032.306618 23956.155920

                             ****ORCA TERMINATED NORMALLY****
TOTAL RUN TIME: 0 days 0 hours 1 minutes 9 seconds 254 msec
