                         Program Version 4.1.2  - RELEASE  -
|  1> #Run DFT-D3 single point of the dimer
|  2> ! wB97X-D3 def2-TZVP TIGHTSCF CHELPG PMODEL PAL8
|  3>
|  4> %base "7-178_DFT_AB"
|  5>
|  6> %scf
|  7> MaxIter 1000
|  8> end
|  9>
| 10> * xyz 0 1
| 11>   C                      -1.555646            5.231252             -6.405208
| 12>   O                      -0.346762            4.541400             -6.399865
| 13>   H                      0.267018             4.970165             -5.812395
| 14>   H                      -1.461585            6.358154             -6.598062
| 15>   H                      -2.193016            4.839029             -7.166690
| 16>   H                      -2.062145            5.051455             -5.484070
| 17>   C                      2.163176             6.492274             -4.981907
| 18>   O                      1.985793             5.101903             -4.804777
| 19>   H                      2.362999             4.914867             -3.969239
| 20>   H                      2.898402             6.911257             -4.360386
| 21>   H                      2.393466             6.722393             -6.010610
| 22>   H                      1.274072             6.999518             -4.632095
| 23> *
| 24>
| 25> #Run DFT-D3 single point of the molecule with dimer basis set
| 26> $new_job
| 27> %base "7-178_DFT_A"
| 28> ! wB97X-D3 def2-TZVP TIGHTSCF CHELPG PMODEL
| 29>
| 30> %scf
| 31> MaxIter 1000
| 32> end
| 33>
| 34> * xyz 0 1
| 35>   C                      -1.555646            5.231252             -6.405208
| 36>   O                      -0.346762            4.541400             -6.399865
| 37>   H                      0.267018             4.970165             -5.812395
| 38>   H                      -1.461585            6.358154             -6.598062
| 39>   H                      -2.193016            4.839029             -7.166690
| 40>   H                      -2.062145            5.051455             -5.484070
| 41>   C                    : 2.163176             6.492274             -4.981907
| 42>   O                    : 1.985793             5.101903             -4.804777
| 43>   H                    : 2.362999             4.914867             -3.969239
| 44>   H                    : 2.898402             6.911257             -4.360386
| 45>   H                    : 2.393466             6.722393             -6.010610
| 46>   H                    : 1.274072             6.999518             -4.632095
| 47> *
| 48>
| 49> #Run DFT-D3 single point of the particle with dimer basis set
| 50> $new_job
| 51> %base "7-178_DFT_B"
| 52> ! wB97X-D3 def2-TZVP TIGHTSCF CHELPG PMODEL
| 53>
| 54> %scf
| 55> MaxIter 1000
| 56> end
| 57>
| 58> * xyz 0 1
| 59>   C                    : -1.555646            5.231252             -6.405208
| 60>   O                    : -0.346762            4.541400             -6.399865
| 61>   H                    : 0.267018             4.970165             -5.812395
| 62>   H                    : -1.461585            6.358154             -6.598062
| 63>   H                    : -2.193016            4.839029             -7.166690
| 64>   H                    : -2.062145            5.051455             -5.484070
| 65>   C                      2.163176             6.492274             -4.981907
| 66>   O                      1.985793             5.101903             -4.804777
| 67>   H                      2.362999             4.914867             -3.969239
| 68>   H                      2.898402             6.911257             -4.360386
| 69>   H                      2.393466             6.722393             -6.010610
| 70>   H                      1.274072             6.999518             -4.632095
| 71> *
| 72>
| 73>                          ****END OF INPUT****
 Total Charge           Charge          ....    0
 Multiplicity           Mult            ....    1
 Number of Electrons    NEL             ....   36
Dispersion correction           -0.001756245
FINAL SINGLE POINT ENERGY      -231.471647817564
Dispersion correction           -0.000237677
FINAL SINGLE POINT ENERGY      -115.734513342573

CARTESIAN COORDINATES (ANGSTROEM)
---------------------------------
  C     -1.555646    5.231252   -6.405208
  O     -0.346762    4.541400   -6.399865
  H      0.267018    4.970165   -5.812395
  H     -1.461585    6.358154   -6.598062
  H     -2.193016    4.839029   -7.166690
  H     -2.062145    5.051455   -5.484070
  C      2.163176    6.492274   -4.981907
  O      1.985793    5.101903   -4.804777
  H      2.362999    4.914867   -3.969239
  H      2.898402    6.911257   -4.360386
  H      2.393466    6.722393   -6.010610
  H      1.274072    6.999518   -4.632095

 Multiplicity           Mult            ....    1
 Number of Electrons    NEL             ....   18
 Basis Dimension        Dim             ....  172

ORBITAL ENERGIES
----------------

  NO   OCC          E(Eh)            E(eV)
   0   2.0000     -19.227702      -523.2124
   1   2.0000     -10.304754      -280.4066
   2   2.0000      -1.143149       -31.1067
   3   2.0000      -0.802079       -21.8257
   4   2.0000      -0.620294       -16.8791
   5   2.0000      -0.545724       -14.8499
   6   2.0000      -0.523831       -14.2542
   7   2.0000      -0.443344       -12.0640
   8   2.0000      -0.373087       -10.1522
   9   0.0000       0.095715         2.6045
  10   0.0000       0.123562         3.3623
  11   0.0000       0.156507         4.2588
  12   0.0000       0.190061         5.1718
  13   0.0000       0.194426         5.2906

MULLIKEN ATOMIC CHARGES
-----------------------
   0 C :   -0.000497
   1 O :    0.000120
   2 H :   -0.004943
   3 H :    0.000085
   4 H :   -0.000031
   5 H :   -0.000096
   6 C :   -0.169136
   7 O :   -0.465316
   8 H :    0.306563
   9 H :    0.112032
  10 H :    0.116267
  11 H :    0.104954
Sum of atomic charges:   -0.0000000

LOEWDIN ATOMIC CHARGES
----------------------
   0 C :   -0.000862
   1 O :   -0.005198
   2 H :   -0.032505
   3 H :   -0.000179
   4 H :   -0.000013
   5 H :   -0.000043
   6 C :   -0.371787
   7 O :   -0.035325
   8 H :    0.154007
   9 H :    0.089233
  10 H :    0.104807
  11 H :    0.097866

  Mayer bond orders larger than 0.1
B(  6-C ,  7-O ) :   0.9820 B(  6-C ,  9-H ) :   0.9775 B(  6-C , 10-H ) :   0.9786
B(  6-C , 11-H ) :   0.9809 B(  7-O ,  8-H ) :   0.9077

Dispersion correction           -0.000221768
FINAL SINGLE POINT ENERGY      -115.732244609948

DIPOLE MOMENT
-------------
                                X             Y             Z
Electronic contribution:     -0.21155      -1.80630       0.03892
Nuclear contribution   :      0.55748       2.24982       0.45243
                        -----------------------------------------
Total Dipole Moment    :      0.34593       0.44352       0.49135
                        -----------------------------------------
Magnitude (a.u.)       :      0.74686
Magnitude (Debye)      :      1.89837

Rotational constants in cm-1:     4.469156     0.842162     0.810994
Rotational constants in MHz : 133981.912984 25247.373651 24313.000636

                             ****ORCA TERMINATED NORMALLY****
TOTAL RUN TIME: 0 days 0 hours 1 minutes 12 seconds 364 msec
