                         Program Version 4.1.2  - RELEASE  -
|  1> #Run DFT-D3 single point of the dimer
|  2> ! wB97X-D3 def2-TZVP TIGHTSCF CHELPG PMODEL PAL8
|  3>
|  4> %base "12-47_DFT_AB"
|  5>
|  6> %scf
|  7> MaxIter 1000
|  8> end
|  9>
| 10> * xyz 0 1
| 11>   C                      -2.565252            4.718114             -0.085181
| 12>   O                      -2.001019            4.805665             -1.430314
| 13>   H                      -1.240345            5.338943             -1.221299
| 14>   H                      -1.779562            4.387065             0.613376
| 15>   H                      -2.893558            5.626545             0.347260
| 16>   H                      -3.394099            4.098800             0.009473
| 17>   C                      -4.925144            1.513725             -0.004367
| 18>   O                      -5.509224            0.695109             0.966256
| 19>   H                      -5.411362            -0.220257            0.710541
| 20>   H                      -3.873854            1.549043             -0.014532
| 21>   H                      -5.184107            1.254739             -1.003264
| 22>   H                      -5.302555            2.564695             0.074116
| 23> *
| 24>
| 25> #Run DFT-D3 single point of the molecule with dimer basis set
| 26> $new_job
| 27> %base "12-47_DFT_A"
| 28> ! wB97X-D3 def2-TZVP TIGHTSCF CHELPG PMODEL
| 29>
| 30> %scf
| 31> MaxIter 1000
| 32> end
| 33>
| 34> * xyz 0 1
| 35>   C                      -2.565252            4.718114             -0.085181
| 36>   O                      -2.001019            4.805665             -1.430314
| 37>   H                      -1.240345            5.338943             -1.221299
| 38>   H                      -1.779562            4.387065             0.613376
| 39>   H                      -2.893558            5.626545             0.347260
| 40>   H                      -3.394099            4.098800             0.009473
| 41>   C                    : -4.925144            1.513725             -0.004367
| 42>   O                    : -5.509224            0.695109             0.966256
| 43>   H                    : -5.411362            -0.220257            0.710541
| 44>   H                    : -3.873854            1.549043             -0.014532
| 45>   H                    : -5.184107            1.254739             -1.003264
| 46>   H                    : -5.302555            2.564695             0.074116
| 47> *
| 48>
| 49> #Run DFT-D3 single point of the particle with dimer basis set
| 50> $new_job
| 51> %base "12-47_DFT_B"
| 52> ! wB97X-D3 def2-TZVP TIGHTSCF CHELPG PMODEL
| 53>
| 54> %scf
| 55> MaxIter 1000
| 56> end
| 57>
| 58> * xyz 0 1
| 59>   C                    : -2.565252            4.718114             -0.085181
| 60>   O                    : -2.001019            4.805665             -1.430314
| 61>   H                    : -1.240345            5.338943             -1.221299
| 62>   H                    : -1.779562            4.387065             0.613376
| 63>   H                    : -2.893558            5.626545             0.347260
| 64>   H                    : -3.394099            4.098800             0.009473
| 65>   C                      -4.925144            1.513725             -0.004367
| 66>   O                      -5.509224            0.695109             0.966256
| 67>   H                      -5.411362            -0.220257            0.710541
| 68>   H                      -3.873854            1.549043             -0.014532
| 69>   H                      -5.184107            1.254739             -1.003264
| 70>   H                      -5.302555            2.564695             0.074116
| 71> *
| 72>
| 73>                          ****END OF INPUT****
 Total Charge           Charge          ....    0
 Multiplicity           Mult            ....    1
 Number of Electrons    NEL             ....   36
Dispersion correction           -0.001323125
FINAL SINGLE POINT ENERGY      -231.460732740942
Dispersion correction           -0.000233859
FINAL SINGLE POINT ENERGY      -115.726992126832

CARTESIAN COORDINATES (ANGSTROEM)
---------------------------------
  C     -2.565252    4.718114   -0.085181
  O     -2.001019    4.805665   -1.430314
  H     -1.240345    5.338943   -1.221299
  H     -1.779562    4.387065    0.613376
  H     -2.893558    5.626545    0.347260
  H     -3.394099    4.098800    0.009473
  C     -4.925144    1.513725   -0.004367
  O     -5.509224    0.695109    0.966256
  H     -5.411362   -0.220257    0.710541
  H     -3.873854    1.549043   -0.014532
  H     -5.184107    1.254739   -1.003264
  H     -5.302555    2.564695    0.074116

 Multiplicity           Mult            ....    1
 Number of Electrons    NEL             ....   18
 Basis Dimension        Dim             ....  172

ORBITAL ENERGIES
----------------

  NO   OCC          E(Eh)            E(eV)
   0   2.0000     -19.231679      -523.3206
   1   2.0000     -10.306326      -280.4494
   2   2.0000      -1.141911       -31.0730
   3   2.0000      -0.801875       -21.8201
   4   2.0000      -0.621462       -16.9108
   5   2.0000      -0.544845       -14.8260
   6   2.0000      -0.525758       -14.3066
   7   2.0000      -0.430726       -11.7207
   8   2.0000      -0.376235       -10.2379
   9   0.0000       0.086207         2.3458
  10   0.0000       0.118213         3.2167
  11   0.0000       0.149812         4.0766
  12   0.0000       0.173620         4.7244
  13   0.0000       0.185626         5.0512

MULLIKEN ATOMIC CHARGES
-----------------------
   0 C :    0.003461
   1 O :   -0.000015
   2 H :    0.000009
   3 H :   -0.000205
   4 H :   -0.000186
   5 H :   -0.005647
   6 C :   -0.156123
   7 O :   -0.470506
   8 H :    0.316054
   9 H :    0.102974
  10 H :    0.095715
  11 H :    0.114468
Sum of atomic charges:   -0.0000000

LOEWDIN ATOMIC CHARGES
----------------------
   0 C :   -0.002649
   1 O :   -0.000008
   2 H :   -0.000001
   3 H :   -0.000096
   4 H :   -0.000027
   5 H :   -0.005275
   6 C :   -0.393369
   7 O :   -0.058160
   8 H :    0.168162
   9 H :    0.085749
  10 H :    0.088426
  11 H :    0.117248

  Mayer bond orders larger than 0.1
B(  6-C ,  7-O ) :   1.0052 B(  6-C ,  9-H ) :   0.9723 B(  6-C , 10-H ) :   0.9787
B(  6-C , 11-H ) :   0.9737 B(  7-O ,  8-H ) :   0.8977

Dispersion correction           -0.000243484
FINAL SINGLE POINT ENERGY      -115.732856318307

DIPOLE MOMENT
-------------
                                X             Y             Z
Electronic contribution:     -0.74779      -1.06385       1.42205
Nuclear contribution   :      1.03167       0.78468      -1.98832
                        -----------------------------------------
Total Dipole Moment    :      0.28388      -0.27917      -0.56627
                        -----------------------------------------
Magnitude (a.u.)       :      0.69223
Magnitude (Debye)      :      1.75951

Rotational constants in cm-1:     4.574089     0.838871     0.806215
Rotational constants in MHz : 137127.751634 25148.719756 24169.716400

                             ****ORCA TERMINATED NORMALLY****
TOTAL RUN TIME: 0 days 0 hours 1 minutes 13 seconds 743 msec
