                         Program Version 4.1.2  - RELEASE  -
|  1> #Run DFT-D3 single point of the dimer
|  2> ! wB97X-D3 def2-TZVP TIGHTSCF CHELPG PMODEL PAL8
|  3>
|  4> %base "8-184_DFT_AB"
|  5>
|  6> %scf
|  7> MaxIter 1000
|  8> end
|  9>
| 10> * xyz 0 1
| 11>   C                      -6.089729            4.718462             -4.995477
| 12>   O                      -7.378963            5.167259             -5.188108
| 13>   H                      -7.301230            5.778819             -5.888763
| 14>   H                      -5.713952            4.882978             -3.965145
| 15>   H                      -6.106463            3.570739             -5.127612
| 16>   H                      -5.362559            5.028709             -5.773777
| 17>   C                      -8.716310            2.595743             -4.167450
| 18>   O                      -8.870801            2.724648             -5.558098
| 19>   H                      -8.428671            3.546581             -5.726210
| 20>   H                      -9.260913            3.374342             -3.604034
| 21>   H                      -9.121703            1.675237             -3.742052
| 22>   H                      -7.700378            2.652149             -3.928569
| 23> *
| 24>
| 25> #Run DFT-D3 single point of the molecule with dimer basis set
| 26> $new_job
| 27> %base "8-184_DFT_A"
| 28> ! wB97X-D3 def2-TZVP TIGHTSCF CHELPG PMODEL
| 29>
| 30> %scf
| 31> MaxIter 1000
| 32> end
| 33>
| 34> * xyz 0 1
| 35>   C                      -6.089729            4.718462             -4.995477
| 36>   O                      -7.378963            5.167259             -5.188108
| 37>   H                      -7.301230            5.778819             -5.888763
| 38>   H                      -5.713952            4.882978             -3.965145
| 39>   H                      -6.106463            3.570739             -5.127612
| 40>   H                      -5.362559            5.028709             -5.773777
| 41>   C                    : -8.716310            2.595743             -4.167450
| 42>   O                    : -8.870801            2.724648             -5.558098
| 43>   H                    : -8.428671            3.546581             -5.726210
| 44>   H                    : -9.260913            3.374342             -3.604034
| 45>   H                    : -9.121703            1.675237             -3.742052
| 46>   H                    : -7.700378            2.652149             -3.928569
| 47> *
| 48>
| 49> #Run DFT-D3 single point of the particle with dimer basis set
| 50> $new_job
| 51> %base "8-184_DFT_B"
| 52> ! wB97X-D3 def2-TZVP TIGHTSCF CHELPG PMODEL
| 53>
| 54> %scf
| 55> MaxIter 1000
| 56> end
| 57>
| 58> * xyz 0 1
| 59>   C                    : -6.089729            4.718462             -4.995477
| 60>   O                    : -7.378963            5.167259             -5.188108
| 61>   H                    : -7.301230            5.778819             -5.888763
| 62>   H                    : -5.713952            4.882978             -3.965145
| 63>   H                    : -6.106463            3.570739             -5.127612
| 64>   H                    : -5.362559            5.028709             -5.773777
| 65>   C                      -8.716310            2.595743             -4.167450
| 66>   O                      -8.870801            2.724648             -5.558098
| 67>   H                      -8.428671            3.546581             -5.726210
| 68>   H                      -9.260913            3.374342             -3.604034
| 69>   H                      -9.121703            1.675237             -3.742052
| 70>   H                      -7.700378            2.652149             -3.928569
| 71> *
| 72>
| 73>                          ****END OF INPUT****
 Total Charge           Charge          ....    0
 Multiplicity           Mult            ....    1
 Number of Electrons    NEL             ....   36
Dispersion correction           -0.002323721
FINAL SINGLE POINT ENERGY      -231.469442599008
Dispersion correction           -0.000242875
FINAL SINGLE POINT ENERGY      -115.729732937453

CARTESIAN COORDINATES (ANGSTROEM)
---------------------------------
  C     -6.089729    4.718462   -4.995477
  O     -7.378963    5.167259   -5.188108
  H     -7.301230    5.778819   -5.888763
  H     -5.713952    4.882978   -3.965145
  H     -6.106463    3.570739   -5.127612
  H     -5.362559    5.028709   -5.773777
  C     -8.716310    2.595743   -4.167450
  O     -8.870801    2.724648   -5.558098
  H     -8.428671    3.546581   -5.726210
  H     -9.260913    3.374342   -3.604034
  H     -9.121703    1.675237   -3.742052
  H     -7.700378    2.652149   -3.928569

 Multiplicity           Mult            ....    1
 Number of Electrons    NEL             ....   18
 Basis Dimension        Dim             ....  172

ORBITAL ENERGIES
----------------

  NO   OCC          E(Eh)            E(eV)
   0   2.0000     -19.232422      -523.3408
   1   2.0000     -10.308110      -280.4979
   2   2.0000      -1.146707       -31.2035
   3   2.0000      -0.797706       -21.7067
   4   2.0000      -0.613854       -16.7038
   5   2.0000      -0.550733       -14.9862
   6   2.0000      -0.529923       -14.4199
   7   2.0000      -0.438380       -11.9289
   8   2.0000      -0.375250       -10.2111
   9   0.0000       0.071177         1.9368
  10   0.0000       0.139542         3.7971
  11   0.0000       0.147528         4.0144
  12   0.0000       0.169801         4.6205
  13   0.0000       0.193027         5.2525

MULLIKEN ATOMIC CHARGES
-----------------------
   0 C :   -0.001551
   1 O :   -0.003496
   2 H :   -0.000472
   3 H :   -0.000109
   4 H :   -0.000372
   5 H :    0.000173
   6 C :   -0.178315
   7 O :   -0.456803
   8 H :    0.312958
   9 H :    0.099091
  10 H :    0.121263
  11 H :    0.107633
Sum of atomic charges:   -0.0000000

LOEWDIN ATOMIC CHARGES
----------------------
   0 C :   -0.012379
   1 O :   -0.016382
   2 H :   -0.001295
   3 H :   -0.000394
   4 H :   -0.005457
   5 H :   -0.000073
   6 C :   -0.383259
   7 O :   -0.049322
   8 H :    0.172839
   9 H :    0.097961
  10 H :    0.108394
  11 H :    0.089367

  Mayer bond orders larger than 0.1
B(  6-C ,  7-O ) :   0.9959 B(  6-C ,  9-H ) :   0.9838 B(  6-C , 10-H ) :   0.9731
B(  6-C , 11-H ) :   0.9824 B(  7-O ,  8-H ) :   0.9126

Dispersion correction           -0.000215274
FINAL SINGLE POINT ENERGY      -115.732597450935

DIPOLE MOMENT
-------------
                                X             Y             Z
Electronic contribution:     -0.23965      -0.02381      -1.88649
Nuclear contribution   :      0.57815       0.46869       2.32411
                        -----------------------------------------
Total Dipole Moment    :      0.33850       0.44488       0.43761
                        -----------------------------------------
Magnitude (a.u.)       :      0.70993
Magnitude (Debye)      :      1.80451

Rotational constants in cm-1:     4.430094     0.844069     0.814184
Rotational constants in MHz : 132810.890165 25304.544364 24408.626406

                             ****ORCA TERMINATED NORMALLY****
TOTAL RUN TIME: 0 days 0 hours 0 minutes 49 seconds 820 msec
