                         Program Version 4.1.2  - RELEASE  -
|  1> #Run DFT-D3 single point of the dimer
|  2> ! wB97X-D3 def2-TZVP TIGHTSCF CHELPG PMODEL PAL8
|  3>
|  4> %base "11-57_DFT_AB"
|  5>
|  6> %scf
|  7> MaxIter 1000
|  8> end
|  9>
| 10> * xyz 0 1
| 11>   C                      -2.287004            -7.105774            -7.763036
| 12>   O                      -0.949285            -7.170664            -8.203545
| 13>   H                      -0.939735            -7.506460            -9.050222
| 14>   H                      -2.333886            -6.430946            -6.937260
| 15>   H                      -2.922818            -6.617067            -8.546304
| 16>   H                      -2.776979            -8.069040            -7.408969
| 17>   C                      -0.907765            -10.387057           -7.837134
| 18>   O                      0.405391             -10.686019           -7.496707
| 19>   H                      0.426644             -10.754461           -6.527792
| 20>   H                      -1.282115            -9.678535            -7.062980
| 21>   H                      -0.910572            -9.964160            -8.848894
| 22>   H                      -1.557584            -11.213663           -7.775463
| 23> *
| 24>
| 25> #Run DFT-D3 single point of the molecule with dimer basis set
| 26> $new_job
| 27> %base "11-57_DFT_A"
| 28> ! wB97X-D3 def2-TZVP TIGHTSCF CHELPG PMODEL
| 29>
| 30> %scf
| 31> MaxIter 1000
| 32> end
| 33>
| 34> * xyz 0 1
| 35>   C                      -2.287004            -7.105774            -7.763036
| 36>   O                      -0.949285            -7.170664            -8.203545
| 37>   H                      -0.939735            -7.506460            -9.050222
| 38>   H                      -2.333886            -6.430946            -6.937260
| 39>   H                      -2.922818            -6.617067            -8.546304
| 40>   H                      -2.776979            -8.069040            -7.408969
| 41>   C                    : -0.907765            -10.387057           -7.837134
| 42>   O                    : 0.405391             -10.686019           -7.496707
| 43>   H                    : 0.426644             -10.754461           -6.527792
| 44>   H                    : -1.282115            -9.678535            -7.062980
| 45>   H                    : -0.910572            -9.964160            -8.848894
| 46>   H                    : -1.557584            -11.213663           -7.775463
| 47> *
| 48>
| 49> #Run DFT-D3 single point of the particle with dimer basis set
| 50> $new_job
| 51> %base "11-57_DFT_B"
| 52> ! wB97X-D3 def2-TZVP TIGHTSCF CHELPG PMODEL
| 53>
| 54> %scf
| 55> MaxIter 1000
| 56> end
| 57>
| 58> * xyz 0 1
| 59>   C                    : -2.287004            -7.105774            -7.763036
| 60>   O                    : -0.949285            -7.170664            -8.203545
| 61>   H                    : -0.939735            -7.506460            -9.050222
| 62>   H                    : -2.333886            -6.430946            -6.937260
| 63>   H                    : -2.922818            -6.617067            -8.546304
| 64>   H                    : -2.776979            -8.069040            -7.408969
| 65>   C                      -0.907765            -10.387057           -7.837134
| 66>   O                      0.405391             -10.686019           -7.496707
| 67>   H                      0.426644             -10.754461           -6.527792
| 68>   H                      -1.282115            -9.678535            -7.062980
| 69>   H                      -0.910572            -9.964160            -8.848894
| 70>   H                      -1.557584            -11.213663           -7.775463
| 71> *
| 72>
| 73>                          ****END OF INPUT****
 Total Charge           Charge          ....    0
 Multiplicity           Mult            ....    1
 Number of Electrons    NEL             ....   36
Dispersion correction           -0.002059689
FINAL SINGLE POINT ENERGY      -231.464303535085
Dispersion correction           -0.000256816
FINAL SINGLE POINT ENERGY      -115.732190607848

CARTESIAN COORDINATES (ANGSTROEM)
---------------------------------
  C     -2.287004   -7.105774   -7.763036
  O     -0.949285   -7.170664   -8.203545
  H     -0.939735   -7.506460   -9.050222
  H     -2.333886   -6.430946   -6.937260
  H     -2.922818   -6.617067   -8.546304
  H     -2.776979   -8.069040   -7.408969
  C     -0.907765  -10.387057   -7.837134
  O      0.405391  -10.686019   -7.496707
  H      0.426644  -10.754461   -6.527792
  H     -1.282115   -9.678535   -7.062980
  H     -0.910572   -9.964160   -8.848894
  H     -1.557584  -11.213663   -7.775463

 Multiplicity           Mult            ....    1
 Number of Electrons    NEL             ....   18
 Basis Dimension        Dim             ....  172

ORBITAL ENERGIES
----------------

  NO   OCC          E(Eh)            E(eV)
   0   2.0000     -19.229024      -523.2483
   1   2.0000     -10.308252      -280.5018
   2   2.0000      -1.142765       -31.0962
   3   2.0000      -0.792404       -21.5624
   4   2.0000      -0.616956       -16.7882
   5   2.0000      -0.543906       -14.8004
   6   2.0000      -0.531379       -14.4596
   7   2.0000      -0.434751       -11.8302
   8   2.0000      -0.369281       -10.0487
   9   0.0000       0.088206         2.4002
  10   0.0000       0.113973         3.1014
  11   0.0000       0.158386         4.3099
  12   0.0000       0.166788         4.5385
  13   0.0000       0.190775         5.1912

MULLIKEN ATOMIC CHARGES
-----------------------
   0 C :    0.000797
   1 O :   -0.001256
   2 H :    0.000178
   3 H :   -0.000631
   4 H :   -0.000165
   5 H :   -0.003022
   6 C :   -0.151431
   7 O :   -0.464911
   8 H :    0.314121
   9 H :    0.092495
  10 H :    0.114741
  11 H :    0.099082
Sum of atomic charges:    0.0000000

LOEWDIN ATOMIC CHARGES
----------------------
   0 C :   -0.010989
   1 O :   -0.003208
   2 H :   -0.003487
   3 H :   -0.000183
   4 H :   -0.000105
   5 H :   -0.007394
   6 C :   -0.392092
   7 O :   -0.063476
   8 H :    0.177997
   9 H :    0.107213
  10 H :    0.112808
  11 H :    0.082917

  Mayer bond orders larger than 0.1
B(  6-C ,  7-O ) :   1.0075 B(  6-C ,  9-H ) :   0.9966 B(  6-C , 10-H ) :   0.9725
B(  6-C , 11-H ) :   0.9631 B(  7-O ,  8-H ) :   0.8997

Dispersion correction           -0.000210251
FINAL SINGLE POINT ENERGY      -115.732671111380

DIPOLE MOMENT
-------------
                                X             Y             Z
Electronic contribution:      1.71962      -0.44853       0.18731
Nuclear contribution   :     -2.19885       0.50667       0.29364
                        -----------------------------------------
Total Dipole Moment    :     -0.47923       0.05814       0.48095
                        -----------------------------------------
Magnitude (a.u.)       :      0.68143
Magnitude (Debye)      :      1.73207

Rotational constants in cm-1:     4.229666     0.873155     0.826789
Rotational constants in MHz : 126802.186914 26176.534136 24786.500134

                             ****ORCA TERMINATED NORMALLY****
TOTAL RUN TIME: 0 days 0 hours 1 minutes 10 seconds 760 msec
