                         Program Version 4.1.2  - RELEASE  -
|  1> #Run DFT-D3 single point of the dimer
|  2> ! wB97X-D3 def2-TZVP TIGHTSCF CHELPG PMODEL PAL8
|  3>
|  4> %base "20-193_DFT_AB"
|  5>
|  6> %scf
|  7> MaxIter 1000
|  8> end
|  9>
| 10> * xyz 0 1
| 11>   C                      -1.246376            -6.785112            3.235569
| 12>   O                      -1.731775            -5.723574            2.361640
| 13>   H                      -2.029969            -6.162378            1.487465
| 14>   H                      -1.333332            -7.757998            2.824304
| 15>   H                      -0.201581            -6.541920            3.488338
| 16>   H                      -1.815348            -6.841643            4.134731
| 17>   C                      -5.187840            -5.626479            3.601586
| 18>   O                      -4.440785            -4.681219            2.812045
| 19>   H                      -3.502146            -4.902189            2.922035
| 20>   H                      -4.747590            -5.765776            4.629819
| 21>   H                      -6.267407            -5.338771            3.654883
| 22>   H                      -5.067076            -6.568381            3.197691
| 23> *
| 24>
| 25> #Run DFT-D3 single point of the molecule with dimer basis set
| 26> $new_job
| 27> %base "20-193_DFT_A"
| 28> ! wB97X-D3 def2-TZVP TIGHTSCF CHELPG PMODEL
| 29>
| 30> %scf
| 31> MaxIter 1000
| 32> end
| 33>
| 34> * xyz 0 1
| 35>   C                      -1.246376            -6.785112            3.235569
| 36>   O                      -1.731775            -5.723574            2.361640
| 37>   H                      -2.029969            -6.162378            1.487465
| 38>   H                      -1.333332            -7.757998            2.824304
| 39>   H                      -0.201581            -6.541920            3.488338
| 40>   H                      -1.815348            -6.841643            4.134731
| 41>   C                    : -5.187840            -5.626479            3.601586
| 42>   O                    : -4.440785            -4.681219            2.812045
| 43>   H                    : -3.502146            -4.902189            2.922035
| 44>   H                    : -4.747590            -5.765776            4.629819
| 45>   H                    : -6.267407            -5.338771            3.654883
| 46>   H                    : -5.067076            -6.568381            3.197691
| 47> *
| 48>
| 49> #Run DFT-D3 single point of the particle with dimer basis set
| 50> $new_job
| 51> %base "20-193_DFT_B"
| 52> ! wB97X-D3 def2-TZVP TIGHTSCF CHELPG PMODEL
| 53>
| 54> %scf
| 55> MaxIter 1000
| 56> end
| 57>
| 58> * xyz 0 1
| 59>   C                    : -1.246376            -6.785112            3.235569
| 60>   O                    : -1.731775            -5.723574            2.361640
| 61>   H                    : -2.029969            -6.162378            1.487465
| 62>   H                    : -1.333332            -7.757998            2.824304
| 63>   H                    : -0.201581            -6.541920            3.488338
| 64>   H                    : -1.815348            -6.841643            4.134731
| 65>   C                      -5.187840            -5.626479            3.601586
| 66>   O                      -4.440785            -4.681219            2.812045
| 67>   H                      -3.502146            -4.902189            2.922035
| 68>   H                      -4.747590            -5.765776            4.629819
| 69>   H                      -6.267407            -5.338771            3.654883
| 70>   H                      -5.067076            -6.568381            3.197691
| 71> *
| 72>
| 73>                          ****END OF INPUT****
 Total Charge           Charge          ....    0
 Multiplicity           Mult            ....    1
 Number of Electrons    NEL             ....   36
Dispersion correction           -0.001991472
FINAL SINGLE POINT ENERGY      -231.468383254730
Dispersion correction           -0.000264318
FINAL SINGLE POINT ENERGY      -115.729521986845

CARTESIAN COORDINATES (ANGSTROEM)
---------------------------------
  C     -1.246376   -6.785112    3.235569
  O     -1.731775   -5.723574    2.361640
  H     -2.029969   -6.162378    1.487465
  H     -1.333332   -7.757998    2.824304
  H     -0.201581   -6.541920    3.488338
  H     -1.815348   -6.841643    4.134731
  C     -5.187840   -5.626479    3.601586
  O     -4.440785   -4.681219    2.812045
  H     -3.502146   -4.902189    2.922035
  H     -4.747590   -5.765776    4.629819
  H     -6.267407   -5.338771    3.654883
  H     -5.067076   -6.568381    3.197691

 Multiplicity           Mult            ....    1
 Number of Electrons    NEL             ....   18
 Basis Dimension        Dim             ....  172

ORBITAL ENERGIES
----------------

  NO   OCC          E(Eh)            E(eV)
   0   2.0000     -19.231231      -523.3084
   1   2.0000     -10.314799      -280.6799
   2   2.0000      -1.127077       -30.6693
   3   2.0000      -0.796477       -21.6732
   4   2.0000      -0.608911       -16.5693
   5   2.0000      -0.535950       -14.5839
   6   2.0000      -0.523277       -14.2391
   7   2.0000      -0.440468       -11.9858
   8   2.0000      -0.371911       -10.1202
   9   0.0000       0.067876         1.8470
  10   0.0000       0.137041         3.7291
  11   0.0000       0.140946         3.8353
  12   0.0000       0.165720         4.5095
  13   0.0000       0.192661         5.2426

MULLIKEN ATOMIC CHARGES
-----------------------
   0 C :   -0.001824
   1 O :   -0.003572
   2 H :   -0.001864
   3 H :    0.000019
   4 H :    0.000056
   5 H :    0.000171
   6 C :   -0.185474
   7 O :   -0.469568
   8 H :    0.312807
   9 H :    0.101451
  10 H :    0.130364
  11 H :    0.117434
Sum of atomic charges:    0.0000000

LOEWDIN ATOMIC CHARGES
----------------------
   0 C :   -0.003646
   1 O :   -0.016190
   2 H :   -0.003092
   3 H :   -0.000062
   4 H :   -0.000061
   5 H :   -0.000691
   6 C :   -0.365111
   7 O :   -0.089867
   8 H :    0.179709
   9 H :    0.101510
  10 H :    0.116314
  11 H :    0.081187

  Mayer bond orders larger than 0.1
B(  6-C ,  7-O ) :   0.9902 B(  6-C ,  9-H ) :   0.9794 B(  6-C , 10-H ) :   0.9710
B(  6-C , 11-H ) :   0.9737 B(  7-O ,  8-H ) :   0.9040

Dispersion correction           -0.000239362
FINAL SINGLE POINT ENERGY      -115.730909870216

DIPOLE MOMENT
-------------
                                X             Y             Z
Electronic contribution:      0.71030       1.27213      -1.09173
Nuclear contribution   :     -0.43763      -1.82093       1.47201
                        -----------------------------------------
Total Dipole Moment    :      0.27267      -0.54880       0.38028
                        -----------------------------------------
Magnitude (a.u.)       :      0.72121
Magnitude (Debye)      :      1.83316

Rotational constants in cm-1:     4.264330     0.815477     0.771448
Rotational constants in MHz : 127841.382893 24447.383236 23127.422130

                             ****ORCA TERMINATED NORMALLY****
TOTAL RUN TIME: 0 days 0 hours 1 minutes 9 seconds 262 msec
