                         Program Version 4.1.2  - RELEASE  -
|  1> #Run DFT-D3 single point of the dimer
|  2> ! wB97X-D3 def2-TZVP TIGHTSCF CHELPG PMODEL PAL8
|  3>
|  4> %base "14-59_DFT_AB"
|  5>
|  6> %scf
|  7> MaxIter 1000
|  8> end
|  9>
| 10> * xyz 0 1
| 11>   C                      4.463888             10.329483            8.452455
| 12>   O                      5.053410             11.626280            8.445353
| 13>   H                      5.107064             11.999492            9.351809
| 14>   H                      3.465351             10.341592            8.955897
| 15>   H                      4.478914             10.000706            7.463618
| 16>   H                      5.187701             9.732460             8.978266
| 17>   C                      4.918881             5.852485             9.923070
| 18>   O                      5.420235             7.182159             9.840038
| 19>   H                      6.326654             7.184408             9.631924
| 20>   H                      5.399851             5.240885             10.678256
| 21>   H                      3.839993             5.811326             10.163391
| 22>   H                      5.111345             5.355015             8.953127
| 23> *
| 24>
| 25> #Run DFT-D3 single point of the molecule with dimer basis set
| 26> $new_job
| 27> %base "14-59_DFT_A"
| 28> ! wB97X-D3 def2-TZVP TIGHTSCF CHELPG PMODEL
| 29>
| 30> %scf
| 31> MaxIter 1000
| 32> end
| 33>
| 34> * xyz 0 1
| 35>   C                      4.463888             10.329483            8.452455
| 36>   O                      5.053410             11.626280            8.445353
| 37>   H                      5.107064             11.999492            9.351809
| 38>   H                      3.465351             10.341592            8.955897
| 39>   H                      4.478914             10.000706            7.463618
| 40>   H                      5.187701             9.732460             8.978266
| 41>   C                    : 4.918881             5.852485             9.923070
| 42>   O                    : 5.420235             7.182159             9.840038
| 43>   H                    : 6.326654             7.184408             9.631924
| 44>   H                    : 5.399851             5.240885             10.678256
| 45>   H                    : 3.839993             5.811326             10.163391
| 46>   H                    : 5.111345             5.355015             8.953127
| 47> *
| 48>
| 49> #Run DFT-D3 single point of the particle with dimer basis set
| 50> $new_job
| 51> %base "14-59_DFT_B"
| 52> ! wB97X-D3 def2-TZVP TIGHTSCF CHELPG PMODEL
| 53>
| 54> %scf
| 55> MaxIter 1000
| 56> end
| 57>
| 58> * xyz 0 1
| 59>   C                    : 4.463888             10.329483            8.452455
| 60>   O                    : 5.053410             11.626280            8.445353
| 61>   H                    : 5.107064             11.999492            9.351809
| 62>   H                    : 3.465351             10.341592            8.955897
| 63>   H                    : 4.478914             10.000706            7.463618
| 64>   H                    : 5.187701             9.732460             8.978266
| 65>   C                      4.918881             5.852485             9.923070
| 66>   O                      5.420235             7.182159             9.840038
| 67>   H                      6.326654             7.184408             9.631924
| 68>   H                      5.399851             5.240885             10.678256
| 69>   H                      3.839993             5.811326             10.163391
| 70>   H                      5.111345             5.355015             8.953127
| 71> *
| 72>
| 73>                          ****END OF INPUT****
 Total Charge           Charge          ....    0
 Multiplicity           Mult            ....    1
 Number of Electrons    NEL             ....   36
Dispersion correction           -0.001249640
FINAL SINGLE POINT ENERGY      -231.466204679509
Dispersion correction           -0.000225182
FINAL SINGLE POINT ENERGY      -115.730699713093

CARTESIAN COORDINATES (ANGSTROEM)
---------------------------------
  C      4.463888   10.329483    8.452455
  O      5.053410   11.626280    8.445353
  H      5.107064   11.999492    9.351809
  H      3.465351   10.341592    8.955897
  H      4.478914   10.000706    7.463618
  H      5.187701    9.732460    8.978266
  C      4.918881    5.852485    9.923070
  O      5.420235    7.182159    9.840038
  H      6.326654    7.184408    9.631924
  H      5.399851    5.240885   10.678256
  H      3.839993    5.811326   10.163391
  H      5.111345    5.355015    8.953127

 Multiplicity           Mult            ....    1
 Number of Electrons    NEL             ....   18
 Basis Dimension        Dim             ....  172

ORBITAL ENERGIES
----------------

  NO   OCC          E(Eh)            E(eV)
   0   2.0000     -19.227051      -523.1947
   1   2.0000     -10.316983      -280.7394
   2   2.0000      -1.137841       -30.9622
   3   2.0000      -0.799572       -21.7575
   4   2.0000      -0.614375       -16.7180
   5   2.0000      -0.540878       -14.7181
   6   2.0000      -0.527504       -14.3541
   7   2.0000      -0.432093       -11.7579
   8   2.0000      -0.373722       -10.1695
   9   0.0000       0.098213         2.6725
  10   0.0000       0.122954         3.3457
  11   0.0000       0.153181         4.1683
  12   0.0000       0.177667         4.8346
  13   0.0000       0.197180         5.3655

MULLIKEN ATOMIC CHARGES
-----------------------
   0 C :    0.001617
   1 O :   -0.000079
   2 H :   -0.000036
   3 H :   -0.000690
   4 H :   -0.000644
   5 H :   -0.007065
   6 C :   -0.164144
   7 O :   -0.471063
   8 H :    0.311407
   9 H :    0.102568
  10 H :    0.124665
  11 H :    0.103465
Sum of atomic charges:   -0.0000000

LOEWDIN ATOMIC CHARGES
----------------------
   0 C :   -0.006017
   1 O :   -0.000041
   2 H :   -0.000005
   3 H :   -0.000220
   4 H :   -0.000282
   5 H :   -0.007527
   6 C :   -0.375885
   7 O :   -0.060428
   8 H :    0.148261
   9 H :    0.091531
  10 H :    0.112478
  11 H :    0.098135

  Mayer bond orders larger than 0.1
B(  6-C ,  7-O ) :   0.9865 B(  6-C ,  9-H ) :   0.9689 B(  6-C , 10-H ) :   0.9725
B(  6-C , 11-H ) :   0.9829 B(  7-O ,  8-H ) :   0.9020

Dispersion correction           -0.000248524
FINAL SINGLE POINT ENERGY      -115.734274512899

DIPOLE MOMENT
-------------
                                X             Y             Z
Electronic contribution:      0.50111       1.77052      -0.02363
Nuclear contribution   :     -0.11416      -2.33274      -0.06272
                        -----------------------------------------
Total Dipole Moment    :      0.38696      -0.56222      -0.08634
                        -----------------------------------------
Magnitude (a.u.)       :      0.68796
Magnitude (Debye)      :      1.74865

Rotational constants in cm-1:     4.398525     0.816296     0.787156
Rotational constants in MHz : 131864.460214 24471.935084 23598.357696

                             ****ORCA TERMINATED NORMALLY****
TOTAL RUN TIME: 0 days 0 hours 0 minutes 57 seconds 155 msec
