                         Program Version 4.1.2  - RELEASE  -
|  1> #Run DFT-D3 single point of the dimer
|  2> ! wB97X-D3 def2-TZVP TIGHTSCF CHELPG PMODEL PAL8
|  3>
|  4> %base "19-207_DFT_AB"
|  5>
|  6> %scf
|  7> MaxIter 1000
|  8> end
|  9>
| 10> * xyz 0 1
| 11>   C                      8.177291             -7.823232            1.276284
| 12>   O                      9.330157             -7.927958            0.531694
| 13>   H                      9.165812             -7.302442            -0.180403
| 14>   H                      8.179002             -6.885459            1.760567
| 15>   H                      7.333951             -7.900479            0.595086
| 16>   H                      8.099777             -8.672896            1.972851
| 17>   C                      8.555876             -5.023468            -2.085604
| 18>   O                      9.597576             -5.817501            -1.599137
| 19>   H                      10.014008            -5.365580            -0.897390
| 20>   H                      7.789222             -4.795281            -1.346501
| 21>   H                      8.845916             -4.068275            -2.582090
| 22>   H                      8.075075             -5.507060            -2.944996
| 23> *
| 24>
| 25> #Run DFT-D3 single point of the molecule with dimer basis set
| 26> $new_job
| 27> %base "19-207_DFT_A"
| 28> ! wB97X-D3 def2-TZVP TIGHTSCF CHELPG PMODEL
| 29>
| 30> %scf
| 31> MaxIter 1000
| 32> end
| 33>
| 34> * xyz 0 1
| 35>   C                      8.177291             -7.823232            1.276284
| 36>   O                      9.330157             -7.927958            0.531694
| 37>   H                      9.165812             -7.302442            -0.180403
| 38>   H                      8.179002             -6.885459            1.760567
| 39>   H                      7.333951             -7.900479            0.595086
| 40>   H                      8.099777             -8.672896            1.972851
| 41>   C                    : 8.555876             -5.023468            -2.085604
| 42>   O                    : 9.597576             -5.817501            -1.599137
| 43>   H                    : 10.014008            -5.365580            -0.897390
| 44>   H                    : 7.789222             -4.795281            -1.346501
| 45>   H                    : 8.845916             -4.068275            -2.582090
| 46>   H                    : 8.075075             -5.507060            -2.944996
| 47> *
| 48>
| 49> #Run DFT-D3 single point of the particle with dimer basis set
| 50> $new_job
| 51> %base "19-207_DFT_B"
| 52> ! wB97X-D3 def2-TZVP TIGHTSCF CHELPG PMODEL
| 53>
| 54> %scf
| 55> MaxIter 1000
| 56> end
| 57>
| 58> * xyz 0 1
| 59>   C                    : 8.177291             -7.823232            1.276284
| 60>   O                    : 9.330157             -7.927958            0.531694
| 61>   H                    : 9.165812             -7.302442            -0.180403
| 62>   H                    : 8.179002             -6.885459            1.760567
| 63>   H                    : 7.333951             -7.900479            0.595086
| 64>   H                    : 8.099777             -8.672896            1.972851
| 65>   C                      8.555876             -5.023468            -2.085604
| 66>   O                      9.597576             -5.817501            -1.599137
| 67>   H                      10.014008            -5.365580            -0.897390
| 68>   H                      7.789222             -4.795281            -1.346501
| 69>   H                      8.845916             -4.068275            -2.582090
| 70>   H                      8.075075             -5.507060            -2.944996
| 71> *
| 72>
| 73>                          ****END OF INPUT****
 Total Charge           Charge          ....    0
 Multiplicity           Mult            ....    1
 Number of Electrons    NEL             ....   36
Dispersion correction           -0.001711148
FINAL SINGLE POINT ENERGY      -231.472429194961
Dispersion correction           -0.000186034
FINAL SINGLE POINT ENERGY      -115.731774827432

CARTESIAN COORDINATES (ANGSTROEM)
---------------------------------
  C      8.177291   -7.823232    1.276284
  O      9.330157   -7.927958    0.531694
  H      9.165812   -7.302442   -0.180403
  H      8.179002   -6.885459    1.760567
  H      7.333951   -7.900479    0.595086
  H      8.099777   -8.672896    1.972851
  C      8.555876   -5.023468   -2.085604
  O      9.597576   -5.817501   -1.599137
  H     10.014008   -5.365580   -0.897390
  H      7.789222   -4.795281   -1.346501
  H      8.845916   -4.068275   -2.582090
  H      8.075075   -5.507060   -2.944996

 Multiplicity           Mult            ....    1
 Number of Electrons    NEL             ....   18
 Basis Dimension        Dim             ....  172

ORBITAL ENERGIES
----------------

  NO   OCC          E(Eh)            E(eV)
   0   2.0000     -19.233477      -523.3695
   1   2.0000     -10.314125      -280.6616
   2   2.0000      -1.149312       -31.2744
   3   2.0000      -0.799632       -21.7591
   4   2.0000      -0.620257       -16.8780
   5   2.0000      -0.546626       -14.8744
   6   2.0000      -0.525668       -14.3042
   7   2.0000      -0.431687       -11.7468
   8   2.0000      -0.377614       -10.2754
   9   0.0000       0.089757         2.4424
  10   0.0000       0.131720         3.5843
  11   0.0000       0.148882         4.0513
  12   0.0000       0.190264         5.1773
  13   0.0000       0.196174         5.3382

MULLIKEN ATOMIC CHARGES
-----------------------
   0 C :   -0.000898
   1 O :    0.000966
   2 H :   -0.013710
   3 H :   -0.000354
   4 H :    0.000134
   5 H :   -0.000180
   6 C :   -0.164688
   7 O :   -0.457283
   8 H :    0.314374
   9 H :    0.106252
  10 H :    0.096352
  11 H :    0.119036
Sum of atomic charges:   -0.0000000

LOEWDIN ATOMIC CHARGES
----------------------
   0 C :   -0.001803
   1 O :   -0.004152
   2 H :   -0.032400
   3 H :   -0.000193
   4 H :   -0.000114
   5 H :   -0.000048
   6 C :   -0.405228
   7 O :   -0.014949
   8 H :    0.155980
   9 H :    0.093601
  10 H :    0.098251
  11 H :    0.111055

  Mayer bond orders larger than 0.1
B(  6-C ,  7-O ) :   0.9960 B(  6-C ,  9-H ) :   0.9754 B(  6-C , 10-H ) :   0.9684
B(  6-C , 11-H ) :   0.9774 B(  7-O ,  8-H ) :   0.9013

Dispersion correction           -0.000254644
FINAL SINGLE POINT ENERGY      -115.734512130878

DIPOLE MOMENT
-------------
                                X             Y             Z
Electronic contribution:      1.40023      -1.17500       0.67998
Nuclear contribution   :     -1.53378       1.77513      -0.43954
                        -----------------------------------------
Total Dipole Moment    :     -0.13355       0.60013       0.24043
                        -----------------------------------------
Magnitude (a.u.)       :      0.66015
Magnitude (Debye)      :      1.67796

Rotational constants in cm-1:     4.463501     0.832758     0.807868
Rotational constants in MHz : 133812.395899 24965.443767 24219.270177

                             ****ORCA TERMINATED NORMALLY****
TOTAL RUN TIME: 0 days 0 hours 0 minutes 51 seconds 421 msec
