                         Program Version 4.1.2  - RELEASE  -
|  1> #Run DFT-D3 single point of the dimer
|  2> ! wB97X-D3 def2-TZVP TIGHTSCF CHELPG PMODEL PAL8
|  3>
|  4> %base "8-126_DFT_AB"
|  5>
|  6> %scf
|  7> MaxIter 1000
|  8> end
|  9>
| 10> * xyz 0 1
| 11>   C                      6.823729             6.653392             4.663200
| 12>   O                      5.853408             7.293050             3.735871
| 13>   H                      5.958699             6.875321             2.844677
| 14>   H                      6.405214             6.361899             5.666741
| 15>   H                      7.327214             5.758224             4.307533
| 16>   H                      7.632612             7.335827             4.701187
| 17>   C                      6.278651             9.131592             0.310008
| 18>   O                      4.981540             8.722451             -0.021591
| 19>   H                      4.399282             9.081503             0.703388
| 20>   H                      6.369270             9.393353             1.328500
| 21>   H                      7.022365             8.378398             0.114698
| 22>   H                      6.562119             10.081628            -0.112263
| 23> *
| 24>
| 25> #Run DFT-D3 single point of the molecule with dimer basis set
| 26> $new_job
| 27> %base "8-126_DFT_A"
| 28> ! wB97X-D3 def2-TZVP TIGHTSCF CHELPG PMODEL
| 29>
| 30> %scf
| 31> MaxIter 1000
| 32> end
| 33>
| 34> * xyz 0 1
| 35>   C                      6.823729             6.653392             4.663200
| 36>   O                      5.853408             7.293050             3.735871
| 37>   H                      5.958699             6.875321             2.844677
| 38>   H                      6.405214             6.361899             5.666741
| 39>   H                      7.327214             5.758224             4.307533
| 40>   H                      7.632612             7.335827             4.701187
| 41>   C                    : 6.278651             9.131592             0.310008
| 42>   O                    : 4.981540             8.722451             -0.021591
| 43>   H                    : 4.399282             9.081503             0.703388
| 44>   H                    : 6.369270             9.393353             1.328500
| 45>   H                    : 7.022365             8.378398             0.114698
| 46>   H                    : 6.562119             10.081628            -0.112263
| 47> *
| 48>
| 49> #Run DFT-D3 single point of the particle with dimer basis set
| 50> $new_job
| 51> %base "8-126_DFT_B"
| 52> ! wB97X-D3 def2-TZVP TIGHTSCF CHELPG PMODEL
| 53>
| 54> %scf
| 55> MaxIter 1000
| 56> end
| 57>
| 58> * xyz 0 1
| 59>   C                    : 6.823729             6.653392             4.663200
| 60>   O                    : 5.853408             7.293050             3.735871
| 61>   H                    : 5.958699             6.875321             2.844677
| 62>   H                    : 6.405214             6.361899             5.666741
| 63>   H                    : 7.327214             5.758224             4.307533
| 64>   H                    : 7.632612             7.335827             4.701187
| 65>   C                      6.278651             9.131592             0.310008
| 66>   O                      4.981540             8.722451             -0.021591
| 67>   H                      4.399282             9.081503             0.703388
| 68>   H                      6.369270             9.393353             1.328500
| 69>   H                      7.022365             8.378398             0.114698
| 70>   H                      6.562119             10.081628            -0.112263
| 71> *
| 72>
| 73>                          ****END OF INPUT****
 Total Charge           Charge          ....    0
 Multiplicity           Mult            ....    1
 Number of Electrons    NEL             ....   36
Dispersion correction           -0.001365651
FINAL SINGLE POINT ENERGY      -231.457337886742
Dispersion correction           -0.000287315
FINAL SINGLE POINT ENERGY      -115.725340671626

CARTESIAN COORDINATES (ANGSTROEM)
---------------------------------
  C      6.823729    6.653392    4.663200
  O      5.853408    7.293050    3.735871
  H      5.958699    6.875321    2.844677
  H      6.405214    6.361899    5.666741
  H      7.327214    5.758224    4.307533
  H      7.632612    7.335827    4.701187
  C      6.278651    9.131592    0.310008
  O      4.981540    8.722451   -0.021591
  H      4.399282    9.081503    0.703388
  H      6.369270    9.393353    1.328500
  H      7.022365    8.378398    0.114698
  H      6.562119   10.081628   -0.112263

 Multiplicity           Mult            ....    1
 Number of Electrons    NEL             ....   18
 Basis Dimension        Dim             ....  172

ORBITAL ENERGIES
----------------

  NO   OCC          E(Eh)            E(eV)
   0   2.0000     -19.235016      -523.4114
   1   2.0000     -10.302898      -280.3561
   2   2.0000      -1.136011       -30.9124
   3   2.0000      -0.798395       -21.7254
   4   2.0000      -0.617212       -16.7952
   5   2.0000      -0.543110       -14.7788
   6   2.0000      -0.526232       -14.3195
   7   2.0000      -0.436341       -11.8734
   8   2.0000      -0.372474       -10.1355
   9   0.0000       0.080575         2.1925
  10   0.0000       0.110856         3.0165
  11   0.0000       0.151908         4.1336
  12   0.0000       0.178011         4.8439
  13   0.0000       0.185611         5.0507

MULLIKEN ATOMIC CHARGES
-----------------------
   0 C :   -0.000308
   1 O :    0.000135
   2 H :   -0.000230
   3 H :   -0.000007
   4 H :    0.000011
   5 H :    0.000032
   6 C :   -0.168920
   7 O :   -0.470207
   8 H :    0.320153
   9 H :    0.104006
  10 H :    0.118440
  11 H :    0.096896
Sum of atomic charges:   -0.0000000

LOEWDIN ATOMIC CHARGES
----------------------
   0 C :   -0.000164
   1 O :   -0.000537
   2 H :   -0.001136
   3 H :   -0.000004
   4 H :   -0.000002
   5 H :   -0.000031
   6 C :   -0.398564
   7 O :   -0.079707
   8 H :    0.195445
   9 H :    0.088998
  10 H :    0.102856
  11 H :    0.092845

  Mayer bond orders larger than 0.1
B(  6-C ,  7-O ) :   1.0079 B(  6-C ,  9-H ) :   0.9889 B(  6-C , 10-H ) :   0.9771
B(  6-C , 11-H ) :   0.9734 B(  7-O ,  8-H ) :   0.8949

Dispersion correction           -0.000232689
FINAL SINGLE POINT ENERGY      -115.729497030147

DIPOLE MOMENT
-------------
                                X             Y             Z
Electronic contribution:     -1.66077      -0.70640      -0.64564
Nuclear contribution   :      1.79667       1.09845       1.26993
                        -----------------------------------------
Total Dipole Moment    :      0.13590       0.39205       0.62430
                        -----------------------------------------
Magnitude (a.u.)       :      0.74961
Magnitude (Debye)      :      1.90536

Rotational constants in cm-1:     4.461267     0.845298     0.809371
Rotational constants in MHz : 133745.427434 25341.401626 24264.343196

                             ****ORCA TERMINATED NORMALLY****
TOTAL RUN TIME: 0 days 0 hours 0 minutes 44 seconds 483 msec
