                         Program Version 4.1.2  - RELEASE  -
|  1> #Run DFT-D3 single point of the dimer
|  2> ! wB97X-D3 def2-TZVP TIGHTSCF CHELPG PMODEL PAL8
|  3>
|  4> %base "13-184_DFT_AB"
|  5>
|  6> %scf
|  7> MaxIter 1000
|  8> end
|  9>
| 10> * xyz 0 1
| 11>   C                      0.416081             6.341552             -3.830665
| 12>   O                      0.004939             5.756950             -2.596167
| 13>   H                      -0.646958            5.116949             -2.802898
| 14>   H                      -0.303278            7.107280             -4.079319
| 15>   H                      1.418122             6.880632             -3.792920
| 16>   H                      0.462358             5.697803             -4.709192
| 17>   C                      -3.597941            7.981117             -3.330310
| 18>   O                      -3.746181            6.622635             -3.215281
| 19>   H                      -2.888624            6.161588             -3.122469
| 20>   H                      -4.486749            8.586821             -3.163398
| 21>   H                      -2.815400            8.344847             -2.598938
| 22>   H                      -3.304377            8.236626             -4.371332
| 23> *
| 24>
| 25> #Run DFT-D3 single point of the molecule with dimer basis set
| 26> $new_job
| 27> %base "13-184_DFT_A"
| 28> ! wB97X-D3 def2-TZVP TIGHTSCF CHELPG PMODEL
| 29>
| 30> %scf
| 31> MaxIter 1000
| 32> end
| 33>
| 34> * xyz 0 1
| 35>   C                      0.416081             6.341552             -3.830665
| 36>   O                      0.004939             5.756950             -2.596167
| 37>   H                      -0.646958            5.116949             -2.802898
| 38>   H                      -0.303278            7.107280             -4.079319
| 39>   H                      1.418122             6.880632             -3.792920
| 40>   H                      0.462358             5.697803             -4.709192
| 41>   C                    : -3.597941            7.981117             -3.330310
| 42>   O                    : -3.746181            6.622635             -3.215281
| 43>   H                    : -2.888624            6.161588             -3.122469
| 44>   H                    : -4.486749            8.586821             -3.163398
| 45>   H                    : -2.815400            8.344847             -2.598938
| 46>   H                    : -3.304377            8.236626             -4.371332
| 47> *
| 48>
| 49> #Run DFT-D3 single point of the particle with dimer basis set
| 50> $new_job
| 51> %base "13-184_DFT_B"
| 52> ! wB97X-D3 def2-TZVP TIGHTSCF CHELPG PMODEL
| 53>
| 54> %scf
| 55> MaxIter 1000
| 56> end
| 57>
| 58> * xyz 0 1
| 59>   C                    : 0.416081             6.341552             -3.830665
| 60>   O                    : 0.004939             5.756950             -2.596167
| 61>   H                    : -0.646958            5.116949             -2.802898
| 62>   H                    : -0.303278            7.107280             -4.079319
| 63>   H                    : 1.418122             6.880632             -3.792920
| 64>   H                    : 0.462358             5.697803             -4.709192
| 65>   C                      -3.597941            7.981117             -3.330310
| 66>   O                      -3.746181            6.622635             -3.215281
| 67>   H                      -2.888624            6.161588             -3.122469
| 68>   H                      -4.486749            8.586821             -3.163398
| 69>   H                      -2.815400            8.344847             -2.598938
| 70>   H                      -3.304377            8.236626             -4.371332
| 71> *
| 72>
| 73>                          ****END OF INPUT****
 Total Charge           Charge          ....    0
 Multiplicity           Mult            ....    1
 Number of Electrons    NEL             ....   36
Dispersion correction           -0.001751491
FINAL SINGLE POINT ENERGY      -231.463836787296
Dispersion correction           -0.000256016
FINAL SINGLE POINT ENERGY      -115.731692409638

CARTESIAN COORDINATES (ANGSTROEM)
---------------------------------
  C      0.416081    6.341552   -3.830665
  O      0.004939    5.756950   -2.596167
  H     -0.646958    5.116949   -2.802898
  H     -0.303278    7.107280   -4.079319
  H      1.418122    6.880632   -3.792920
  H      0.462358    5.697803   -4.709192
  C     -3.597941    7.981117   -3.330310
  O     -3.746181    6.622635   -3.215281
  H     -2.888624    6.161588   -3.122469
  H     -4.486749    8.586821   -3.163398
  H     -2.815400    8.344847   -2.598938
  H     -3.304377    8.236626   -4.371332

 Multiplicity           Mult            ....    1
 Number of Electrons    NEL             ....   18
 Basis Dimension        Dim             ....  172

ORBITAL ENERGIES
----------------

  NO   OCC          E(Eh)            E(eV)
   0   2.0000     -19.230435      -523.2867
   1   2.0000     -10.315011      -280.6857
   2   2.0000      -1.144490       -31.1432
   3   2.0000      -0.791300       -21.5324
   4   2.0000      -0.614220       -16.7138
   5   2.0000      -0.544089       -14.8054
   6   2.0000      -0.538382       -14.6501
   7   2.0000      -0.419806       -11.4235
   8   2.0000      -0.368422       -10.0253
   9   0.0000       0.067988         1.8500
  10   0.0000       0.129061         3.5119
  11   0.0000       0.141427         3.8484
  12   0.0000       0.177656         4.8343
  13   0.0000       0.186941         5.0869

MULLIKEN ATOMIC CHARGES
-----------------------
   0 C :   -0.001865
   1 O :   -0.000060
   2 H :   -0.000160
   3 H :    0.000537
   4 H :   -0.000026
   5 H :    0.000169
   6 C :   -0.158656
   7 O :   -0.473112
   8 H :    0.325274
   9 H :    0.123273
  10 H :    0.093884
  11 H :    0.090743
Sum of atomic charges:    0.0000000

LOEWDIN ATOMIC CHARGES
----------------------
   0 C :   -0.001507
   1 O :   -0.000723
   2 H :   -0.001950
   3 H :   -0.000833
   4 H :   -0.000030
   5 H :   -0.000012
   6 C :   -0.424352
   7 O :   -0.054481
   8 H :    0.184681
   9 H :    0.105263
  10 H :    0.099674
  11 H :    0.094272

  Mayer bond orders larger than 0.1
B(  6-C ,  7-O ) :   1.0008 B(  6-C ,  9-H ) :   0.9678 B(  6-C , 10-H ) :   0.9841
B(  6-C , 11-H ) :   0.9798 B(  7-O ,  8-H ) :   0.8899

Dispersion correction           -0.000239076
FINAL SINGLE POINT ENERGY      -115.731532838850

DIPOLE MOMENT
-------------
                                X             Y             Z
Electronic contribution:     -0.42658      -1.83542       0.18901
Nuclear contribution   :      1.01159       2.04808      -0.16132
                        -----------------------------------------
Total Dipole Moment    :      0.58500       0.21266       0.02769
                        -----------------------------------------
Magnitude (a.u.)       :      0.62307
Magnitude (Debye)      :      1.58372

Rotational constants in cm-1:     4.287673     0.857280     0.829562
Rotational constants in MHz : 128541.193942 25700.605036 24869.648963

                             ****ORCA TERMINATED NORMALLY****
TOTAL RUN TIME: 0 days 0 hours 1 minutes 13 seconds 446 msec
