                         Program Version 4.1.2  - RELEASE  -
|  1> #Run DFT-D3 single point of the dimer
|  2> ! wB97X-D3 def2-TZVP TIGHTSCF CHELPG PMODEL PAL8
|  3>
|  4> %base "13-56_DFT_AB"
|  5>
|  6> %scf
|  7> MaxIter 1000
|  8> end
|  9>
| 10> * xyz 0 1
| 11>   C                      -2.615448            -10.755304           2.628873
| 12>   O                      -2.908532            -9.997534            1.453146
| 13>   H                      -3.393054            -10.558160           0.797230
| 14>   H                      -3.465573            -11.407798           2.994486
| 15>   H                      -1.643496            -11.228046           2.392343
| 16>   H                      -2.479222            -10.048655           3.452952
| 17>   C                      -1.708168            -6.745225            3.942439
| 18>   O                      -2.101679            -5.421923            4.243975
| 19>   H                      -1.984440            -5.247799            5.187823
| 20>   H                      -2.537170            -7.464061            4.247987
| 21>   H                      -1.615068            -6.857520            2.852533
| 22>   H                      -0.770799            -7.131770            4.409028
| 23> *
| 24>
| 25> #Run DFT-D3 single point of the molecule with dimer basis set
| 26> $new_job
| 27> %base "13-56_DFT_A"
| 28> ! wB97X-D3 def2-TZVP TIGHTSCF CHELPG PMODEL
| 29>
| 30> %scf
| 31> MaxIter 1000
| 32> end
| 33>
| 34> * xyz 0 1
| 35>   C                      -2.615448            -10.755304           2.628873
| 36>   O                      -2.908532            -9.997534            1.453146
| 37>   H                      -3.393054            -10.558160           0.797230
| 38>   H                      -3.465573            -11.407798           2.994486
| 39>   H                      -1.643496            -11.228046           2.392343
| 40>   H                      -2.479222            -10.048655           3.452952
| 41>   C                    : -1.708168            -6.745225            3.942439
| 42>   O                    : -2.101679            -5.421923            4.243975
| 43>   H                    : -1.984440            -5.247799            5.187823
| 44>   H                    : -2.537170            -7.464061            4.247987
| 45>   H                    : -1.615068            -6.857520            2.852533
| 46>   H                    : -0.770799            -7.131770            4.409028
| 47> *
| 48>
| 49> #Run DFT-D3 single point of the particle with dimer basis set
| 50> $new_job
| 51> %base "13-56_DFT_B"
| 52> ! wB97X-D3 def2-TZVP TIGHTSCF CHELPG PMODEL
| 53>
| 54> %scf
| 55> MaxIter 1000
| 56> end
| 57>
| 58> * xyz 0 1
| 59>   C                    : -2.615448            -10.755304           2.628873
| 60>   O                    : -2.908532            -9.997534            1.453146
| 61>   H                    : -3.393054            -10.558160           0.797230
| 62>   H                    : -3.465573            -11.407798           2.994486
| 63>   H                    : -1.643496            -11.228046           2.392343
| 64>   H                    : -2.479222            -10.048655           3.452952
| 65>   C                      -1.708168            -6.745225            3.942439
| 66>   O                      -2.101679            -5.421923            4.243975
| 67>   H                      -1.984440            -5.247799            5.187823
| 68>   H                      -2.537170            -7.464061            4.247987
| 69>   H                      -1.615068            -6.857520            2.852533
| 70>   H                      -0.770799            -7.131770            4.409028
| 71> *
| 72>
| 73>                          ****END OF INPUT****
 Total Charge           Charge          ....    0
 Multiplicity           Mult            ....    1
 Number of Electrons    NEL             ....   36
Dispersion correction           -0.001297779
FINAL SINGLE POINT ENERGY      -231.465927527596
Dispersion correction           -0.000258058
FINAL SINGLE POINT ENERGY      -115.730583964176

CARTESIAN COORDINATES (ANGSTROEM)
---------------------------------
  C     -2.615448  -10.755304    2.628873
  O     -2.908532   -9.997534    1.453146
  H     -3.393054  -10.558160    0.797230
  H     -3.465573  -11.407798    2.994486
  H     -1.643496  -11.228046    2.392343
  H     -2.479222  -10.048655    3.452952
  C     -1.708168   -6.745225    3.942439
  O     -2.101679   -5.421923    4.243975
  H     -1.984440   -5.247799    5.187823
  H     -2.537170   -7.464061    4.247987
  H     -1.615068   -6.857520    2.852533
  H     -0.770799   -7.131770    4.409028

 Multiplicity           Mult            ....    1
 Number of Electrons    NEL             ....   18
 Basis Dimension        Dim             ....  172

ORBITAL ENERGIES
----------------

  NO   OCC          E(Eh)            E(eV)
   0   2.0000     -19.233493      -523.3700
   1   2.0000     -10.320542      -280.8362
   2   2.0000      -1.135505       -30.8987
   3   2.0000      -0.791571       -21.5397
   4   2.0000      -0.611758       -16.6468
   5   2.0000      -0.531895       -14.4736
   6   2.0000      -0.526655       -14.3310
   7   2.0000      -0.434513       -11.8237
   8   2.0000      -0.371545       -10.1102
   9   0.0000       0.083707         2.2778
  10   0.0000       0.115751         3.1497
  11   0.0000       0.145117         3.9488
  12   0.0000       0.164971         4.4891
  13   0.0000       0.185361         5.0439

MULLIKEN ATOMIC CHARGES
-----------------------
   0 C :    0.000809
   1 O :    0.000041
   2 H :    0.000003
   3 H :   -0.000014
   4 H :   -0.000059
   5 H :   -0.002215
   6 C :   -0.170480
   7 O :   -0.471047
   8 H :    0.317001
   9 H :    0.099854
  10 H :    0.123465
  11 H :    0.102643
Sum of atomic charges:    0.0000000

LOEWDIN ATOMIC CHARGES
----------------------
   0 C :   -0.000980
   1 O :   -0.000102
   2 H :   -0.000005
   3 H :   -0.000006
   4 H :   -0.000006
   5 H :   -0.002582
   6 C :   -0.399702
   7 O :   -0.077412
   8 H :    0.172815
   9 H :    0.101595
  10 H :    0.109223
  11 H :    0.097161

  Mayer bond orders larger than 0.1
B(  6-C ,  7-O ) :   1.0044 B(  6-C ,  9-H ) :   0.9782 B(  6-C , 10-H ) :   0.9707
B(  6-C , 11-H ) :   0.9668 B(  7-O ,  8-H ) :   0.8959

Dispersion correction           -0.000269433
FINAL SINGLE POINT ENERGY      -115.734526337638

DIPOLE MOMENT
-------------
                                X             Y             Z
Electronic contribution:     -0.43273       1.85020       0.27694
Nuclear contribution   :      0.67312      -2.24047       0.19755
                        -----------------------------------------
Total Dipole Moment    :      0.24039      -0.39028       0.47449
                        -----------------------------------------
Magnitude (a.u.)       :      0.65973
Magnitude (Debye)      :      1.67691

Rotational constants in cm-1:     4.226007     0.818105     0.790113
Rotational constants in MHz : 126692.509496 24526.177482 23687.003927

                             ****ORCA TERMINATED NORMALLY****
TOTAL RUN TIME: 0 days 0 hours 1 minutes 7 seconds 662 msec
