                         Program Version 4.1.2  - RELEASE  -
|  1> #Run DFT-D3 single point of the dimer
|  2> ! wB97X-D3 def2-TZVP TIGHTSCF CHELPG PMODEL PAL8
|  3>
|  4> %base "6-153_DFT_AB"
|  5>
|  6> %scf
|  7> MaxIter 1000
|  8> end
|  9>
| 10> * xyz 0 1
| 11>   C                      -1.657348            -2.605589            3.107495
| 12>   O                      -1.433084            -3.963794            3.336402
| 13>   H                      -1.822367            -4.471035            2.634541
| 14>   H                      -1.025186            -1.978984            3.793105
| 15>   H                      -1.370348            -2.277809            2.137469
| 16>   H                      -2.655147            -2.318401            3.325334
| 17>   C                      -2.824209            -7.043111            1.849998
| 18>   O                      -2.415118            -5.932369            1.193276
| 19>   H                      -1.603743            -6.021471            0.731254
| 20>   H                      -1.950311            -7.530693            2.177517
| 21>   H                      -3.591103            -6.913765            2.613869
| 22>   H                      -3.313529            -7.756251            1.091547
| 23> *
| 24>
| 25> #Run DFT-D3 single point of the molecule with dimer basis set
| 26> $new_job
| 27> %base "6-153_DFT_A"
| 28> ! wB97X-D3 def2-TZVP TIGHTSCF CHELPG PMODEL
| 29>
| 30> %scf
| 31> MaxIter 1000
| 32> end
| 33>
| 34> * xyz 0 1
| 35>   C                      -1.657348            -2.605589            3.107495
| 36>   O                      -1.433084            -3.963794            3.336402
| 37>   H                      -1.822367            -4.471035            2.634541
| 38>   H                      -1.025186            -1.978984            3.793105
| 39>   H                      -1.370348            -2.277809            2.137469
| 40>   H                      -2.655147            -2.318401            3.325334
| 41>   C                    : -2.824209            -7.043111            1.849998
| 42>   O                    : -2.415118            -5.932369            1.193276
| 43>   H                    : -1.603743            -6.021471            0.731254
| 44>   H                    : -1.950311            -7.530693            2.177517
| 45>   H                    : -3.591103            -6.913765            2.613869
| 46>   H                    : -3.313529            -7.756251            1.091547
| 47> *
| 48>
| 49> #Run DFT-D3 single point of the particle with dimer basis set
| 50> $new_job
| 51> %base "6-153_DFT_B"
| 52> ! wB97X-D3 def2-TZVP TIGHTSCF CHELPG PMODEL
| 53>
| 54> %scf
| 55> MaxIter 1000
| 56> end
| 57>
| 58> * xyz 0 1
| 59>   C                    : -1.657348            -2.605589            3.107495
| 60>   O                    : -1.433084            -3.963794            3.336402
| 61>   H                    : -1.822367            -4.471035            2.634541
| 62>   H                    : -1.025186            -1.978984            3.793105
| 63>   H                    : -1.370348            -2.277809            2.137469
| 64>   H                    : -2.655147            -2.318401            3.325334
| 65>   C                      -2.824209            -7.043111            1.849998
| 66>   O                      -2.415118            -5.932369            1.193276
| 67>   H                      -1.603743            -6.021471            0.731254
| 68>   H                      -1.950311            -7.530693            2.177517
| 69>   H                      -3.591103            -6.913765            2.613869
| 70>   H                      -3.313529            -7.756251            1.091547
| 71> *
| 72>
| 73>                          ****END OF INPUT****
 Total Charge           Charge          ....    0
 Multiplicity           Mult            ....    1
 Number of Electrons    NEL             ....   36
Dispersion correction           -0.001551847
FINAL SINGLE POINT ENERGY      -231.468170405859
Dispersion correction           -0.000236371
FINAL SINGLE POINT ENERGY      -115.734557229978

CARTESIAN COORDINATES (ANGSTROEM)
---------------------------------
  C     -1.657348   -2.605589    3.107495
  O     -1.433084   -3.963794    3.336402
  H     -1.822367   -4.471035    2.634541
  H     -1.025186   -1.978984    3.793105
  H     -1.370348   -2.277809    2.137469
  H     -2.655147   -2.318401    3.325334
  C     -2.824209   -7.043111    1.849998
  O     -2.415118   -5.932369    1.193276
  H     -1.603743   -6.021471    0.731254
  H     -1.950311   -7.530693    2.177517
  H     -3.591103   -6.913765    2.613869
  H     -3.313529   -7.756251    1.091547

 Multiplicity           Mult            ....    1
 Number of Electrons    NEL             ....   18
 Basis Dimension        Dim             ....  172

ORBITAL ENERGIES
----------------

  NO   OCC          E(Eh)            E(eV)
   0   2.0000     -19.224604      -523.1281
   1   2.0000     -10.310592      -280.5655
   2   2.0000      -1.156801       -31.4782
   3   2.0000      -0.798674       -21.7330
   4   2.0000      -0.627636       -17.0788
   5   2.0000      -0.554658       -15.0930
   6   2.0000      -0.536093       -14.5878
   7   2.0000      -0.423657       -11.5283
   8   2.0000      -0.362592        -9.8666
   9   0.0000       0.096054         2.6138
  10   0.0000       0.121346         3.3020
  11   0.0000       0.154655         4.2084
  12   0.0000       0.192638         5.2419
  13   0.0000       0.200289         5.4501

MULLIKEN ATOMIC CHARGES
-----------------------
   0 C :    0.001496
   1 O :   -0.001567
   2 H :   -0.010300
   3 H :   -0.000043
   4 H :   -0.000692
   5 H :   -0.000204
   6 C :   -0.141378
   7 O :   -0.471918
   8 H :    0.320820
   9 H :    0.100868
  10 H :    0.122379
  11 H :    0.080539
Sum of atomic charges:    0.0000000

LOEWDIN ATOMIC CHARGES
----------------------
   0 C :   -0.001347
   1 O :   -0.003667
   2 H :   -0.030439
   3 H :   -0.000022
   4 H :   -0.000162
   5 H :   -0.000038
   6 C :   -0.422775
   7 O :    0.001559
   8 H :    0.160920
   9 H :    0.087599
  10 H :    0.107779
  11 H :    0.100593

  Mayer bond orders larger than 0.1
B(  6-C ,  7-O ) :   0.9854 B(  6-C ,  9-H ) :   0.9948 B(  6-C , 10-H ) :   0.9706
B(  6-C , 11-H ) :   0.9725 B(  7-O ,  8-H ) :   0.8924

Dispersion correction           -0.000218024
FINAL SINGLE POINT ENERGY      -115.725789869585

DIPOLE MOMENT
-------------
                                X             Y             Z
Electronic contribution:      0.48317       1.64039      -0.62502
Nuclear contribution   :     -0.07652      -2.11382       0.58160
                        -----------------------------------------
Total Dipole Moment    :      0.40665      -0.47344      -0.04342
                        -----------------------------------------
Magnitude (a.u.)       :      0.62561
Magnitude (Debye)      :      1.59018

Rotational constants in cm-1:     4.424594     0.885902     0.853776
Rotational constants in MHz : 132646.000073 26558.679600 25595.569549

                             ****ORCA TERMINATED NORMALLY****
TOTAL RUN TIME: 0 days 0 hours 1 minutes 4 seconds 335 msec
