                         Program Version 4.1.2  - RELEASE  -
|  1> #Run DFT-D3 single point of the dimer
|  2> ! wB97X-D3 def2-TZVP TIGHTSCF CHELPG PMODEL PAL8
|  3>
|  4> %base "22-39_DFT_AB"
|  5>
|  6> %scf
|  7> MaxIter 1000
|  8> end
|  9>
| 10> * xyz 0 1
| 11>   C                      3.346385             5.166609             -0.324777
| 12>   O                      4.605433             4.856927             -0.851271
| 13>   H                      4.735588             5.658297             -1.389277
| 14>   H                      2.939554             4.225934             -0.016089
| 15>   H                      3.411675             5.727115             0.579502
| 16>   H                      2.613158             5.716876             -1.000328
| 17>   C                      -0.749633            2.416253             -3.313901
| 18>   O                      -0.861180            1.452458             -2.250456
| 19>   H                      0.018248             1.215378             -2.084135
| 20>   H                      -1.723585            2.657808             -3.810069
| 21>   H                      -0.325219            3.272619             -2.879507
| 22>   H                      -0.054227            2.091398             -4.053934
| 23> *
| 24>
| 25> #Run DFT-D3 single point of the molecule with dimer basis set
| 26> $new_job
| 27> %base "22-39_DFT_A"
| 28> ! wB97X-D3 def2-TZVP TIGHTSCF CHELPG PMODEL
| 29>
| 30> %scf
| 31> MaxIter 1000
| 32> end
| 33>
| 34> * xyz 0 1
| 35>   C                      3.346385             5.166609             -0.324777
| 36>   O                      4.605433             4.856927             -0.851271
| 37>   H                      4.735588             5.658297             -1.389277
| 38>   H                      2.939554             4.225934             -0.016089
| 39>   H                      3.411675             5.727115             0.579502
| 40>   H                      2.613158             5.716876             -1.000328
| 41>   C                    : -0.749633            2.416253             -3.313901
| 42>   O                    : -0.861180            1.452458             -2.250456
| 43>   H                    : 0.018248             1.215378             -2.084135
| 44>   H                    : -1.723585            2.657808             -3.810069
| 45>   H                    : -0.325219            3.272619             -2.879507
| 46>   H                    : -0.054227            2.091398             -4.053934
| 47> *
| 48>
| 49> #Run DFT-D3 single point of the particle with dimer basis set
| 50> $new_job
| 51> %base "22-39_DFT_B"
| 52> ! wB97X-D3 def2-TZVP TIGHTSCF CHELPG PMODEL
| 53>
| 54> %scf
| 55> MaxIter 1000
| 56> end
| 57>
| 58> * xyz 0 1
| 59>   C                    : 3.346385             5.166609             -0.324777
| 60>   O                    : 4.605433             4.856927             -0.851271
| 61>   H                    : 4.735588             5.658297             -1.389277
| 62>   H                    : 2.939554             4.225934             -0.016089
| 63>   H                    : 3.411675             5.727115             0.579502
| 64>   H                    : 2.613158             5.716876             -1.000328
| 65>   C                      -0.749633            2.416253             -3.313901
| 66>   O                      -0.861180            1.452458             -2.250456
| 67>   H                      0.018248             1.215378             -2.084135
| 68>   H                      -1.723585            2.657808             -3.810069
| 69>   H                      -0.325219            3.272619             -2.879507
| 70>   H                      -0.054227            2.091398             -4.053934
| 71> *
| 72>
| 73>                          ****END OF INPUT****
 Total Charge           Charge          ....    0
 Multiplicity           Mult            ....    1
 Number of Electrons    NEL             ....   36
Dispersion correction           -0.000598110
FINAL SINGLE POINT ENERGY      -231.459660146236
Dispersion correction           -0.000224358
FINAL SINGLE POINT ENERGY      -115.729235599141

CARTESIAN COORDINATES (ANGSTROEM)
---------------------------------
  C      3.346385    5.166609   -0.324777
  O      4.605433    4.856927   -0.851271
  H      4.735588    5.658297   -1.389277
  H      2.939554    4.225934   -0.016089
  H      3.411675    5.727115    0.579502
  H      2.613158    5.716876   -1.000328
  C     -0.749633    2.416253   -3.313901
  O     -0.861180    1.452458   -2.250456
  H      0.018248    1.215378   -2.084135
  H     -1.723585    2.657808   -3.810069
  H     -0.325219    3.272619   -2.879507
  H     -0.054227    2.091398   -4.053934

 Multiplicity           Mult            ....    1
 Number of Electrons    NEL             ....   18
 Basis Dimension        Dim             ....  172

ORBITAL ENERGIES
----------------

  NO   OCC          E(Eh)            E(eV)
   0   2.0000     -19.225028      -523.1396
   1   2.0000     -10.309982      -280.5489
   2   2.0000      -1.137730       -30.9592
   3   2.0000      -0.800258       -21.7761
   4   2.0000      -0.610320       -16.6077
   5   2.0000      -0.545734       -14.8502
   6   2.0000      -0.524846       -14.2818
   7   2.0000      -0.442118       -12.0307
   8   2.0000      -0.373316       -10.1585
   9   0.0000       0.081381         2.2145
  10   0.0000       0.116365         3.1665
  11   0.0000       0.154773         4.2116
  12   0.0000       0.165182         4.4948
  13   0.0000       0.184760         5.0276

MULLIKEN ATOMIC CHARGES
-----------------------
   0 C :   -0.000018
   1 O :    0.000001
   2 H :   -0.000000
   3 H :    0.000004
   4 H :    0.000001
   5 H :   -0.000046
   6 C :   -0.178373
   7 O :   -0.465459
   8 H :    0.304441
   9 H :    0.120772
  10 H :    0.109650
  11 H :    0.109027
Sum of atomic charges:    0.0000000

LOEWDIN ATOMIC CHARGES
----------------------
   0 C :   -0.000028
   1 O :   -0.000001
   2 H :   -0.000000
   3 H :   -0.000011
   4 H :   -0.000000
   5 H :   -0.000034
   6 C :   -0.358102
   7 O :   -0.080370
   8 H :    0.145336
   9 H :    0.114987
  10 H :    0.087762
  11 H :    0.090461

  Mayer bond orders larger than 0.1
B(  6-C ,  7-O ) :   0.9863 B(  6-C ,  9-H ) :   0.9704 B(  6-C , 10-H ) :   0.9841
B(  6-C , 11-H ) :   0.9801 B(  7-O ,  8-H ) :   0.9116

Dispersion correction           -0.000216039
FINAL SINGLE POINT ENERGY      -115.730100783682

DIPOLE MOMENT
-------------
                                X             Y             Z
Electronic contribution:     -0.33630      -1.19269       1.29311
Nuclear contribution   :      0.95715       1.44814      -1.63400
                        -----------------------------------------
Total Dipole Moment    :      0.62085       0.25546      -0.34089
                        -----------------------------------------
Magnitude (a.u.)       :      0.75294
Magnitude (Debye)      :      1.91382

Rotational constants in cm-1:     4.405678     0.822396     0.786176
Rotational constants in MHz : 132078.912217 24654.824779 23568.954599

                             ****ORCA TERMINATED NORMALLY****
TOTAL RUN TIME: 0 days 0 hours 0 minutes 51 seconds 450 msec
