                         Program Version 4.1.2  - RELEASE  -
|  1> #Run DFT-D3 single point of the dimer
|  2> ! wB97X-D3 def2-TZVP TIGHTSCF CHELPG PMODEL PAL8
|  3>
|  4> %base "19-85_DFT_AB"
|  5>
|  6> %scf
|  7> MaxIter 1000
|  8> end
|  9>
| 10> * xyz 0 1
| 11>   C                      1.790265             3.458561             8.299905
| 12>   O                      0.760315             4.348827             7.951540
| 13>   H                      0.700689             4.320397             6.985783
| 14>   H                      2.747720             4.048782             8.453165
| 15>   H                      1.540345             2.807398             9.173545
| 16>   H                      2.017215             2.823354             7.489023
| 17>   C                      -1.171793            5.934240             5.579448
| 18>   O                      -0.309131            4.850648             5.364397
| 19>   H                      -0.566829            4.437277             4.482448
| 20>   H                      -1.154150            6.680770             4.732149
| 21>   H                      -2.241465            5.558941             5.543396
| 22>   H                      -0.988504            6.613440             6.458835
| 23> *
| 24>
| 25> #Run DFT-D3 single point of the molecule with dimer basis set
| 26> $new_job
| 27> %base "19-85_DFT_A"
| 28> ! wB97X-D3 def2-TZVP TIGHTSCF CHELPG PMODEL
| 29>
| 30> %scf
| 31> MaxIter 1000
| 32> end
| 33>
| 34> * xyz 0 1
| 35>   C                      1.790265             3.458561             8.299905
| 36>   O                      0.760315             4.348827             7.951540
| 37>   H                      0.700689             4.320397             6.985783
| 38>   H                      2.747720             4.048782             8.453165
| 39>   H                      1.540345             2.807398             9.173545
| 40>   H                      2.017215             2.823354             7.489023
| 41>   C                    : -1.171793            5.934240             5.579448
| 42>   O                    : -0.309131            4.850648             5.364397
| 43>   H                    : -0.566829            4.437277             4.482448
| 44>   H                    : -1.154150            6.680770             4.732149
| 45>   H                    : -2.241465            5.558941             5.543396
| 46>   H                    : -0.988504            6.613440             6.458835
| 47> *
| 48>
| 49> #Run DFT-D3 single point of the particle with dimer basis set
| 50> $new_job
| 51> %base "19-85_DFT_B"
| 52> ! wB97X-D3 def2-TZVP TIGHTSCF CHELPG PMODEL
| 53>
| 54> %scf
| 55> MaxIter 1000
| 56> end
| 57>
| 58> * xyz 0 1
| 59>   C                    : 1.790265             3.458561             8.299905
| 60>   O                    : 0.760315             4.348827             7.951540
| 61>   H                    : 0.700689             4.320397             6.985783
| 62>   H                    : 2.747720             4.048782             8.453165
| 63>   H                    : 1.540345             2.807398             9.173545
| 64>   H                    : 2.017215             2.823354             7.489023
| 65>   C                      -1.171793            5.934240             5.579448
| 66>   O                      -0.309131            4.850648             5.364397
| 67>   H                      -0.566829            4.437277             4.482448
| 68>   H                      -1.154150            6.680770             4.732149
| 69>   H                      -2.241465            5.558941             5.543396
| 70>   H                      -0.988504            6.613440             6.458835
| 71> *
| 72>
| 73>                          ****END OF INPUT****
 Total Charge           Charge          ....    0
 Multiplicity           Mult            ....    1
 Number of Electrons    NEL             ....   36
Dispersion correction           -0.001561078
FINAL SINGLE POINT ENERGY      -231.466044922996
Dispersion correction           -0.000237640
FINAL SINGLE POINT ENERGY      -115.731800914628

CARTESIAN COORDINATES (ANGSTROEM)
---------------------------------
  C      1.790265    3.458561    8.299905
  O      0.760315    4.348827    7.951540
  H      0.700689    4.320397    6.985783
  H      2.747720    4.048782    8.453165
  H      1.540345    2.807398    9.173545
  H      2.017215    2.823354    7.489023
  C     -1.171793    5.934240    5.579448
  O     -0.309131    4.850648    5.364397
  H     -0.566829    4.437277    4.482448
  H     -1.154150    6.680770    4.732149
  H     -2.241465    5.558941    5.543396
  H     -0.988504    6.613440    6.458835

 Multiplicity           Mult            ....    1
 Number of Electrons    NEL             ....   18
 Basis Dimension        Dim             ....  172

ORBITAL ENERGIES
----------------

  NO   OCC          E(Eh)            E(eV)
   0   2.0000     -19.238723      -523.5123
   1   2.0000     -10.324657      -280.9482
   2   2.0000      -1.135064       -30.8867
   3   2.0000      -0.784476       -21.3467
   4   2.0000      -0.609337       -16.5809
   5   2.0000      -0.541375       -14.7315
   6   2.0000      -0.522529       -14.2187
   7   2.0000      -0.430387       -11.7114
   8   2.0000      -0.368240       -10.0203
   9   0.0000       0.097395         2.6502
  10   0.0000       0.114439         3.1141
  11   0.0000       0.144863         3.9419
  12   0.0000       0.187722         5.1082
  13   0.0000       0.196571         5.3490

MULLIKEN ATOMIC CHARGES
-----------------------
   0 C :    0.000851
   1 O :   -0.000073
   2 H :   -0.009340
   3 H :   -0.000050
   4 H :    0.000010
   5 H :   -0.000712
   6 C :   -0.184396
   7 O :   -0.456501
   8 H :    0.320603
   9 H :    0.097182
  10 H :    0.100985
  11 H :    0.131442
Sum of atomic charges:   -0.0000000

LOEWDIN ATOMIC CHARGES
----------------------
   0 C :   -0.000912
   1 O :   -0.005004
   2 H :   -0.036174
   3 H :   -0.000010
   4 H :   -0.000006
   5 H :   -0.000178
   6 C :   -0.416924
   7 O :   -0.054644
   8 H :    0.201379
   9 H :    0.096255
  10 H :    0.099824
  11 H :    0.116396

  Mayer bond orders larger than 0.1
B(  6-C ,  7-O ) :   0.9898 B(  6-C ,  9-H ) :   0.9703 B(  6-C , 10-H ) :   0.9785
B(  6-C , 11-H ) :   0.9681 B(  7-O ,  8-H ) :   0.8846

Dispersion correction           -0.000251791
FINAL SINGLE POINT ENERGY      -115.726760252027

DIPOLE MOMENT
-------------
                                X             Y             Z
Electronic contribution:      1.35250      -1.48528       0.02619
Nuclear contribution   :     -1.82625       1.65638      -0.50105
                        -----------------------------------------
Total Dipole Moment    :     -0.47375       0.17111      -0.47486
                        -----------------------------------------
Magnitude (a.u.)       :      0.69225
Magnitude (Debye)      :      1.75956

Rotational constants in cm-1:     4.135161     0.827520     0.789831
Rotational constants in MHz : 123969.000669 24808.427322 23678.526902

                             ****ORCA TERMINATED NORMALLY****
TOTAL RUN TIME: 0 days 0 hours 0 minutes 53 seconds 855 msec
