                         Program Version 4.1.2  - RELEASE  -
|  1> #Run DFT-D3 single point of the dimer
|  2> ! wB97X-D3 def2-TZVP TIGHTSCF CHELPG PMODEL PAL8
|  3>
|  4> %base "19-61_DFT_AB"
|  5>
|  6> %scf
|  7> MaxIter 1000
|  8> end
|  9>
| 10> * xyz 0 1
| 11>   C                      7.735640             -3.628557            -5.394134
| 12>   O                      6.374040             -3.628548            -5.142410
| 13>   H                      5.933957             -4.477045            -5.105908
| 14>   H                      8.304852             -3.877057            -4.570331
| 15>   H                      7.857922             -4.475036            -6.074864
| 16>   H                      8.076524             -2.769222            -5.967372
| 17>   C                      6.852534             -0.651808            -8.123853
| 18>   O                      6.081490             0.505833             -8.526992
| 19>   H                      6.589264             1.284014             -8.734406
| 20>   H                      6.153322             -1.496321            -8.012773
| 21>   H                      7.725909             -0.850191            -8.732376
| 22>   H                      7.268838             -0.484203            -7.133630
| 23> *
| 24>
| 25> #Run DFT-D3 single point of the molecule with dimer basis set
| 26> $new_job
| 27> %base "19-61_DFT_A"
| 28> ! wB97X-D3 def2-TZVP TIGHTSCF CHELPG PMODEL
| 29>
| 30> %scf
| 31> MaxIter 1000
| 32> end
| 33>
| 34> * xyz 0 1
| 35>   C                      7.735640             -3.628557            -5.394134
| 36>   O                      6.374040             -3.628548            -5.142410
| 37>   H                      5.933957             -4.477045            -5.105908
| 38>   H                      8.304852             -3.877057            -4.570331
| 39>   H                      7.857922             -4.475036            -6.074864
| 40>   H                      8.076524             -2.769222            -5.967372
| 41>   C                    : 6.852534             -0.651808            -8.123853
| 42>   O                    : 6.081490             0.505833             -8.526992
| 43>   H                    : 6.589264             1.284014             -8.734406
| 44>   H                    : 6.153322             -1.496321            -8.012773
| 45>   H                    : 7.725909             -0.850191            -8.732376
| 46>   H                    : 7.268838             -0.484203            -7.133630
| 47> *
| 48>
| 49> #Run DFT-D3 single point of the particle with dimer basis set
| 50> $new_job
| 51> %base "19-61_DFT_B"
| 52> ! wB97X-D3 def2-TZVP TIGHTSCF CHELPG PMODEL
| 53>
| 54> %scf
| 55> MaxIter 1000
| 56> end
| 57>
| 58> * xyz 0 1
| 59>   C                    : 7.735640             -3.628557            -5.394134
| 60>   O                    : 6.374040             -3.628548            -5.142410
| 61>   H                    : 5.933957             -4.477045            -5.105908
| 62>   H                    : 8.304852             -3.877057            -4.570331
| 63>   H                    : 7.857922             -4.475036            -6.074864
| 64>   H                    : 8.076524             -2.769222            -5.967372
| 65>   C                      6.852534             -0.651808            -8.123853
| 66>   O                      6.081490             0.505833             -8.526992
| 67>   H                      6.589264             1.284014             -8.734406
| 68>   H                      6.153322             -1.496321            -8.012773
| 69>   H                      7.725909             -0.850191            -8.732376
| 70>   H                      7.268838             -0.484203            -7.133630
| 71> *
| 72>
| 73>                          ****END OF INPUT****
 Total Charge           Charge          ....    0
 Multiplicity           Mult            ....    1
 Number of Electrons    NEL             ....   36
Dispersion correction           -0.001363811
FINAL SINGLE POINT ENERGY      -231.458764659757
Dispersion correction           -0.000222511
FINAL SINGLE POINT ENERGY      -115.725295380607

CARTESIAN COORDINATES (ANGSTROEM)
---------------------------------
  C      7.735640   -3.628557   -5.394134
  O      6.374040   -3.628548   -5.142410
  H      5.933957   -4.477045   -5.105908
  H      8.304852   -3.877057   -4.570331
  H      7.857922   -4.475036   -6.074864
  H      8.076524   -2.769222   -5.967372
  C      6.852534   -0.651808   -8.123853
  O      6.081490    0.505833   -8.526992
  H      6.589264    1.284014   -8.734406
  H      6.153322   -1.496321   -8.012773
  H      7.725909   -0.850191   -8.732376
  H      7.268838   -0.484203   -7.133630

 Multiplicity           Mult            ....    1
 Number of Electrons    NEL             ....   18
 Basis Dimension        Dim             ....  172

ORBITAL ENERGIES
----------------

  NO   OCC          E(Eh)            E(eV)
   0   2.0000     -19.225402      -523.1498
   1   2.0000     -10.316104      -280.7155
   2   2.0000      -1.121903       -30.5285
   3   2.0000      -0.801368       -21.8063
   4   2.0000      -0.610769       -16.6199
   5   2.0000      -0.532966       -14.5027
   6   2.0000      -0.523413       -14.2428
   7   2.0000      -0.432032       -11.7562
   8   2.0000      -0.370964       -10.0944
   9   0.0000       0.082837         2.2541
  10   0.0000       0.118176         3.2157
  11   0.0000       0.147255         4.0070
  12   0.0000       0.163362         4.4453
  13   0.0000       0.188454         5.1281

MULLIKEN ATOMIC CHARGES
-----------------------
   0 C :   -0.000267
   1 O :    0.000158
   2 H :    0.000003
   3 H :   -0.000017
   4 H :    0.000028
   5 H :   -0.001015
   6 C :   -0.146635
   7 O :   -0.499730
   8 H :    0.313747
   9 H :    0.125772
  10 H :    0.107298
  11 H :    0.100658
Sum of atomic charges:    0.0000000

LOEWDIN ATOMIC CHARGES
----------------------
   0 C :   -0.001307
   1 O :   -0.000092
   2 H :   -0.000013
   3 H :   -0.000006
   4 H :   -0.000018
   5 H :   -0.002292
   6 C :   -0.354407
   7 O :   -0.101125
   8 H :    0.157021
   9 H :    0.113936
  10 H :    0.093796
  11 H :    0.094507

  Mayer bond orders larger than 0.1
B(  6-C ,  7-O ) :   0.9867 B(  6-C ,  9-H ) :   0.9719 B(  6-C , 10-H ) :   0.9699
B(  6-C , 11-H ) :   0.9797 B(  7-O ,  8-H ) :   0.8972

Dispersion correction           -0.000270619
FINAL SINGLE POINT ENERGY      -115.732698208300

DIPOLE MOMENT
-------------
                                X             Y             Z
Electronic contribution:     -1.02976       1.30654      -0.60468
Nuclear contribution   :      1.70724      -1.29132       0.65587
                        -----------------------------------------
Total Dipole Moment    :      0.67749       0.01522       0.05120
                        -----------------------------------------
Magnitude (a.u.)       :      0.67959
Magnitude (Debye)      :      1.72738

Rotational constants in cm-1:     4.414391     0.796509     0.762177
Rotational constants in MHz : 132340.100525 23878.730785 22849.476672

                             ****ORCA TERMINATED NORMALLY****
TOTAL RUN TIME: 0 days 0 hours 0 minutes 49 seconds 266 msec
