                         Program Version 4.1.2  - RELEASE  -
|  1> #Run DFT-D3 single point of the dimer
|  2> ! wB97X-D3 def2-TZVP TIGHTSCF CHELPG PMODEL PAL8
|  3>
|  4> %base "8-76_DFT_AB"
|  5>
|  6> %scf
|  7> MaxIter 1000
|  8> end
|  9>
| 10> * xyz 0 1
| 11>   C                      6.555521             2.875121             5.302771
| 12>   O                      5.960526             2.912413             6.541502
| 13>   H                      5.034107             2.707951             6.433674
| 14>   H                      6.880396             3.815636             4.981021
| 15>   H                      7.546284             2.419773             5.320943
| 16>   H                      5.929050             2.395693             4.578541
| 17>   C                      3.227038             0.299315             2.583247
| 18>   O                      2.666419             0.055697             1.319139
| 19>   H                      2.532418             -0.879725            1.086573
| 20>   H                      4.019190             -0.355166            2.838296
| 21>   H                      3.630524             1.336282             2.668777
| 22>   H                      2.489073             0.331264             3.443880
| 23> *
| 24>
| 25> #Run DFT-D3 single point of the molecule with dimer basis set
| 26> $new_job
| 27> %base "8-76_DFT_A"
| 28> ! wB97X-D3 def2-TZVP TIGHTSCF CHELPG PMODEL
| 29>
| 30> %scf
| 31> MaxIter 1000
| 32> end
| 33>
| 34> * xyz 0 1
| 35>   C                      6.555521             2.875121             5.302771
| 36>   O                      5.960526             2.912413             6.541502
| 37>   H                      5.034107             2.707951             6.433674
| 38>   H                      6.880396             3.815636             4.981021
| 39>   H                      7.546284             2.419773             5.320943
| 40>   H                      5.929050             2.395693             4.578541
| 41>   C                    : 3.227038             0.299315             2.583247
| 42>   O                    : 2.666419             0.055697             1.319139
| 43>   H                    : 2.532418             -0.879725            1.086573
| 44>   H                    : 4.019190             -0.355166            2.838296
| 45>   H                    : 3.630524             1.336282             2.668777
| 46>   H                    : 2.489073             0.331264             3.443880
| 47> *
| 48>
| 49> #Run DFT-D3 single point of the particle with dimer basis set
| 50> $new_job
| 51> %base "8-76_DFT_B"
| 52> ! wB97X-D3 def2-TZVP TIGHTSCF CHELPG PMODEL
| 53>
| 54> %scf
| 55> MaxIter 1000
| 56> end
| 57>
| 58> * xyz 0 1
| 59>   C                    : 6.555521             2.875121             5.302771
| 60>   O                    : 5.960526             2.912413             6.541502
| 61>   H                    : 5.034107             2.707951             6.433674
| 62>   H                    : 6.880396             3.815636             4.981021
| 63>   H                    : 7.546284             2.419773             5.320943
| 64>   H                    : 5.929050             2.395693             4.578541
| 65>   C                      3.227038             0.299315             2.583247
| 66>   O                      2.666419             0.055697             1.319139
| 67>   H                      2.532418             -0.879725            1.086573
| 68>   H                      4.019190             -0.355166            2.838296
| 69>   H                      3.630524             1.336282             2.668777
| 70>   H                      2.489073             0.331264             3.443880
| 71> *
| 72>
| 73>                          ****END OF INPUT****
 Total Charge           Charge          ....    0
 Multiplicity           Mult            ....    1
 Number of Electrons    NEL             ....   36
Dispersion correction           -0.000887987
FINAL SINGLE POINT ENERGY      -231.459703202011
Dispersion correction           -0.000227656
FINAL SINGLE POINT ENERGY      -115.728537542379

CARTESIAN COORDINATES (ANGSTROEM)
---------------------------------
  C      6.555521    2.875121    5.302771
  O      5.960526    2.912413    6.541502
  H      5.034107    2.707951    6.433674
  H      6.880396    3.815636    4.981021
  H      7.546284    2.419773    5.320943
  H      5.929050    2.395693    4.578541
  C      3.227038    0.299315    2.583247
  O      2.666419    0.055697    1.319139
  H      2.532418   -0.879725    1.086573
  H      4.019190   -0.355166    2.838296
  H      3.630524    1.336282    2.668777
  H      2.489073    0.331264    3.443880

 Multiplicity           Mult            ....    1
 Number of Electrons    NEL             ....   18
 Basis Dimension        Dim             ....  172

ORBITAL ENERGIES
----------------

  NO   OCC          E(Eh)            E(eV)
   0   2.0000     -19.232248      -523.3361
   1   2.0000     -10.315680      -280.7039
   2   2.0000      -1.133115       -30.8336
   3   2.0000      -0.797795       -21.7091
   4   2.0000      -0.616749       -16.7826
   5   2.0000      -0.541686       -14.7400
   6   2.0000      -0.522345       -14.2137
   7   2.0000      -0.423855       -11.5337
   8   2.0000      -0.371948       -10.1212
   9   0.0000       0.084619         2.3026
  10   0.0000       0.116650         3.1742
  11   0.0000       0.142122         3.8673
  12   0.0000       0.163046         4.4367
  13   0.0000       0.193038         5.2528

MULLIKEN ATOMIC CHARGES
-----------------------
   0 C :    0.000233
   1 O :   -0.000005
   2 H :   -0.000000
   3 H :   -0.000002
   4 H :   -0.000012
   5 H :   -0.000637
   6 C :   -0.150881
   7 O :   -0.487183
   8 H :    0.322831
   9 H :    0.108892
  10 H :    0.116394
  11 H :    0.090370
Sum of atomic charges:   -0.0000000

LOEWDIN ATOMIC CHARGES
----------------------
   0 C :   -0.000147
   1 O :   -0.000003
   2 H :   -0.000009
   3 H :   -0.000001
   4 H :   -0.000001
   5 H :   -0.000653
   6 C :   -0.399961
   7 O :   -0.075146
   8 H :    0.176935
   9 H :    0.086949
  10 H :    0.113025
  11 H :    0.099012

  Mayer bond orders larger than 0.1
B(  6-C ,  7-O ) :   1.0096 B(  6-C ,  9-H ) :   0.9779 B(  6-C , 10-H ) :   0.9733
B(  6-C , 11-H ) :   0.9709 B(  7-O ,  8-H ) :   0.8876

Dispersion correction           -0.000278452
FINAL SINGLE POINT ENERGY      -115.730958991995

DIPOLE MOMENT
-------------
                                X             Y             Z
Electronic contribution:     -0.68675      -0.34334      -1.77353
Nuclear contribution   :      0.85211      -0.17203       2.11712
                        -----------------------------------------
Total Dipole Moment    :      0.16536      -0.51537       0.34359
                        -----------------------------------------
Magnitude (a.u.)       :      0.64110
Magnitude (Debye)      :      1.62953

Rotational constants in cm-1:     4.491271     0.814365     0.789673
Rotational constants in MHz : 134644.902491 24414.057547 23673.789803

                             ****ORCA TERMINATED NORMALLY****
TOTAL RUN TIME: 0 days 0 hours 0 minutes 43 seconds 712 msec
