                         Program Version 4.1.2  - RELEASE  -
|  1> #Run DFT-D3 single point of the dimer
|  2> ! wB97X-D3 def2-TZVP TIGHTSCF CHELPG PMODEL PAL8
|  3>
|  4> %base "19-59_DFT_AB"
|  5>
|  6> %scf
|  7> MaxIter 1000
|  8> end
|  9>
| 10> * xyz 0 1
| 11>   C                      7.735640             -3.628557            -5.394134
| 12>   O                      6.374040             -3.628548            -5.142410
| 13>   H                      5.933957             -4.477045            -5.105908
| 14>   H                      8.304852             -3.877057            -4.570331
| 15>   H                      7.857922             -4.475036            -6.074864
| 16>   H                      8.076524             -2.769222            -5.967372
| 17>   C                      7.981219             -0.291185            -2.307794
| 18>   O                      8.609789             0.943120             -2.501498
| 19>   H                      8.222693             1.377620             -3.223846
| 20>   H                      8.613128             -1.115822            -1.832111
| 21>   H                      6.993007             -0.231552            -1.896595
| 22>   H                      7.663907             -0.814704            -3.238859
| 23> *
| 24>
| 25> #Run DFT-D3 single point of the molecule with dimer basis set
| 26> $new_job
| 27> %base "19-59_DFT_A"
| 28> ! wB97X-D3 def2-TZVP TIGHTSCF CHELPG PMODEL
| 29>
| 30> %scf
| 31> MaxIter 1000
| 32> end
| 33>
| 34> * xyz 0 1
| 35>   C                      7.735640             -3.628557            -5.394134
| 36>   O                      6.374040             -3.628548            -5.142410
| 37>   H                      5.933957             -4.477045            -5.105908
| 38>   H                      8.304852             -3.877057            -4.570331
| 39>   H                      7.857922             -4.475036            -6.074864
| 40>   H                      8.076524             -2.769222            -5.967372
| 41>   C                    : 7.981219             -0.291185            -2.307794
| 42>   O                    : 8.609789             0.943120             -2.501498
| 43>   H                    : 8.222693             1.377620             -3.223846
| 44>   H                    : 8.613128             -1.115822            -1.832111
| 45>   H                    : 6.993007             -0.231552            -1.896595
| 46>   H                    : 7.663907             -0.814704            -3.238859
| 47> *
| 48>
| 49> #Run DFT-D3 single point of the particle with dimer basis set
| 50> $new_job
| 51> %base "19-59_DFT_B"
| 52> ! wB97X-D3 def2-TZVP TIGHTSCF CHELPG PMODEL
| 53>
| 54> %scf
| 55> MaxIter 1000
| 56> end
| 57>
| 58> * xyz 0 1
| 59>   C                    : 7.735640             -3.628557            -5.394134
| 60>   O                    : 6.374040             -3.628548            -5.142410
| 61>   H                    : 5.933957             -4.477045            -5.105908
| 62>   H                    : 8.304852             -3.877057            -4.570331
| 63>   H                    : 7.857922             -4.475036            -6.074864
| 64>   H                    : 8.076524             -2.769222            -5.967372
| 65>   C                      7.981219             -0.291185            -2.307794
| 66>   O                      8.609789             0.943120             -2.501498
| 67>   H                      8.222693             1.377620             -3.223846
| 68>   H                      8.613128             -1.115822            -1.832111
| 69>   H                      6.993007             -0.231552            -1.896595
| 70>   H                      7.663907             -0.814704            -3.238859
| 71> *
| 72>
| 73>                          ****END OF INPUT****
 Total Charge           Charge          ....    0
 Multiplicity           Mult            ....    1
 Number of Electrons    NEL             ....   36
Dispersion correction           -0.001063981
FINAL SINGLE POINT ENERGY      -231.451728763692
Dispersion correction           -0.000222511
FINAL SINGLE POINT ENERGY      -115.725242007363

CARTESIAN COORDINATES (ANGSTROEM)
---------------------------------
  C      7.735640   -3.628557   -5.394134
  O      6.374040   -3.628548   -5.142410
  H      5.933957   -4.477045   -5.105908
  H      8.304852   -3.877057   -4.570331
  H      7.857922   -4.475036   -6.074864
  H      8.076524   -2.769222   -5.967372
  C      7.981219   -0.291185   -2.307794
  O      8.609789    0.943120   -2.501498
  H      8.222693    1.377620   -3.223846
  H      8.613128   -1.115822   -1.832111
  H      6.993007   -0.231552   -1.896595
  H      7.663907   -0.814704   -3.238859

 Multiplicity           Mult            ....    1
 Number of Electrons    NEL             ....   18
 Basis Dimension        Dim             ....  172

ORBITAL ENERGIES
----------------

  NO   OCC          E(Eh)            E(eV)
   0   2.0000     -19.232676      -523.3477
   1   2.0000     -10.317715      -280.7593
   2   2.0000      -1.149505       -31.2796
   3   2.0000      -0.799464       -21.7545
   4   2.0000      -0.628596       -17.1050
   5   2.0000      -0.542102       -14.7514
   6   2.0000      -0.519502       -14.1364
   7   2.0000      -0.431269       -11.7354
   8   2.0000      -0.373944       -10.1755
   9   0.0000       0.079980         2.1764
  10   0.0000       0.119822         3.2605
  11   0.0000       0.146599         3.9891
  12   0.0000       0.163493         4.4489
  13   0.0000       0.177804         4.8383

MULLIKEN ATOMIC CHARGES
-----------------------
   0 C :    0.000306
   1 O :    0.000014
   2 H :   -0.000005
   3 H :   -0.000546
   4 H :   -0.000022
   5 H :   -0.000092
   6 C :   -0.174577
   7 O :   -0.462520
   8 H :    0.314682
   9 H :    0.124295
  10 H :    0.104804
  11 H :    0.093661
Sum of atomic charges:   -0.0000000

LOEWDIN ATOMIC CHARGES
----------------------
   0 C :   -0.002263
   1 O :   -0.000103
   2 H :   -0.000010
   3 H :   -0.000318
   4 H :   -0.000036
   5 H :   -0.000329
   6 C :   -0.412185
   7 O :   -0.044468
   8 H :    0.151910
   9 H :    0.119731
  10 H :    0.090076
  11 H :    0.097995

  Mayer bond orders larger than 0.1
B(  6-C ,  7-O ) :   1.0029 B(  6-C ,  9-H ) :   0.9703 B(  6-C , 10-H ) :   0.9688
B(  6-C , 11-H ) :   0.9802 B(  7-O ,  8-H ) :   0.9017

Dispersion correction           -0.000258608
FINAL SINGLE POINT ENERGY      -115.725282417730

DIPOLE MOMENT
-------------
                                X             Y             Z
Electronic contribution:      1.01588       1.79502      -0.01084
Nuclear contribution   :     -1.52735      -1.99197      -0.42554
                        -----------------------------------------
Total Dipole Moment    :     -0.51147      -0.19695      -0.43638
                        -----------------------------------------
Magnitude (a.u.)       :      0.70059
Magnitude (Debye)      :      1.78075

Rotational constants in cm-1:     4.511922     0.828599     0.792118
Rotational constants in MHz : 135264.005467 24840.764644 23747.106134

                             ****ORCA TERMINATED NORMALLY****
TOTAL RUN TIME: 0 days 0 hours 0 minutes 48 seconds 754 msec
