                         Program Version 4.1.2  - RELEASE  -
|  1> #Run DFT-D3 single point of the dimer
|  2> ! wB97X-D3 def2-TZVP TIGHTSCF CHELPG PMODEL PAL8
|  3>
|  4> %base "9-116_DFT_AB"
|  5>
|  6> %scf
|  7> MaxIter 1000
|  8> end
|  9>
| 10> * xyz 0 1
| 11>   C                      5.356239             0.575091             7.861730
| 12>   O                      5.092971             1.322461             6.696982
| 13>   H                      4.968646             0.716571             5.949532
| 14>   H                      5.774221             1.189268             8.691426
| 15>   H                      4.499093             0.072589             8.225889
| 16>   H                      6.158912             -0.140826            7.547524
| 17>   C                      7.234744             1.137100             3.646333
| 18>   O                      8.644821             1.312440             3.660855
| 19>   H                      8.815920             1.757779             4.445385
| 20>   H                      6.947070             0.669658             2.727372
| 21>   H                      6.962892             0.448695             4.396575
| 22>   H                      6.738247             2.099635             3.923597
| 23> *
| 24>
| 25> #Run DFT-D3 single point of the molecule with dimer basis set
| 26> $new_job
| 27> %base "9-116_DFT_A"
| 28> ! wB97X-D3 def2-TZVP TIGHTSCF CHELPG PMODEL
| 29>
| 30> %scf
| 31> MaxIter 1000
| 32> end
| 33>
| 34> * xyz 0 1
| 35>   C                      5.356239             0.575091             7.861730
| 36>   O                      5.092971             1.322461             6.696982
| 37>   H                      4.968646             0.716571             5.949532
| 38>   H                      5.774221             1.189268             8.691426
| 39>   H                      4.499093             0.072589             8.225889
| 40>   H                      6.158912             -0.140826            7.547524
| 41>   C                    : 7.234744             1.137100             3.646333
| 42>   O                    : 8.644821             1.312440             3.660855
| 43>   H                    : 8.815920             1.757779             4.445385
| 44>   H                    : 6.947070             0.669658             2.727372
| 45>   H                    : 6.962892             0.448695             4.396575
| 46>   H                    : 6.738247             2.099635             3.923597
| 47> *
| 48>
| 49> #Run DFT-D3 single point of the particle with dimer basis set
| 50> $new_job
| 51> %base "9-116_DFT_B"
| 52> ! wB97X-D3 def2-TZVP TIGHTSCF CHELPG PMODEL
| 53>
| 54> %scf
| 55> MaxIter 1000
| 56> end
| 57>
| 58> * xyz 0 1
| 59>   C                    : 5.356239             0.575091             7.861730
| 60>   O                    : 5.092971             1.322461             6.696982
| 61>   H                    : 4.968646             0.716571             5.949532
| 62>   H                    : 5.774221             1.189268             8.691426
| 63>   H                    : 4.499093             0.072589             8.225889
| 64>   H                    : 6.158912             -0.140826            7.547524
| 65>   C                      7.234744             1.137100             3.646333
| 66>   O                      8.644821             1.312440             3.660855
| 67>   H                      8.815920             1.757779             4.445385
| 68>   H                      6.947070             0.669658             2.727372
| 69>   H                      6.962892             0.448695             4.396575
| 70>   H                      6.738247             2.099635             3.923597
| 71> *
| 72>
| 73>                          ****END OF INPUT****
 Total Charge           Charge          ....    0
 Multiplicity           Mult            ....    1
 Number of Electrons    NEL             ....   36
Dispersion correction           -0.001415271
FINAL SINGLE POINT ENERGY      -231.464643726869
Dispersion correction           -0.000228374
FINAL SINGLE POINT ENERGY      -115.732733731259

CARTESIAN COORDINATES (ANGSTROEM)
---------------------------------
  C      5.356239    0.575091    7.861730
  O      5.092971    1.322461    6.696982
  H      4.968646    0.716571    5.949532
  H      5.774221    1.189268    8.691426
  H      4.499093    0.072589    8.225889
  H      6.158912   -0.140826    7.547524
  C      7.234744    1.137100    3.646333
  O      8.644821    1.312440    3.660855
  H      8.815920    1.757779    4.445385
  H      6.947070    0.669658    2.727372
  H      6.962892    0.448695    4.396575
  H      6.738247    2.099635    3.923597

 Multiplicity           Mult            ....    1
 Number of Electrons    NEL             ....   18
 Basis Dimension        Dim             ....  172

ORBITAL ENERGIES
----------------

  NO   OCC          E(Eh)            E(eV)
   0   2.0000     -19.223857      -523.1077
   1   2.0000     -10.309647      -280.5398
   2   2.0000      -1.143904       -31.1272
   3   2.0000      -0.800888       -21.7933
   4   2.0000      -0.614791       -16.7293
   5   2.0000      -0.544177       -14.8078
   6   2.0000      -0.528115       -14.3707
   7   2.0000      -0.443519       -12.0688
   8   2.0000      -0.371384       -10.1059
   9   0.0000       0.080680         2.1954
  10   0.0000       0.120455         3.2778
  11   0.0000       0.146208         3.9785
  12   0.0000       0.178631         4.8608
  13   0.0000       0.186880         5.0853

MULLIKEN ATOMIC CHARGES
-----------------------
   0 C :    0.000521
   1 O :   -0.000150
   2 H :   -0.001874
   3 H :   -0.000004
   4 H :    0.000007
   5 H :   -0.000225
   6 C :   -0.164459
   7 O :   -0.463289
   8 H :    0.302167
   9 H :    0.120654
  10 H :    0.107793
  11 H :    0.098859
Sum of atomic charges:    0.0000000

LOEWDIN ATOMIC CHARGES
----------------------
   0 C :   -0.000403
   1 O :   -0.000897
   2 H :   -0.003480
   3 H :   -0.000003
   4 H :   -0.000001
   5 H :   -0.000304
   6 C :   -0.368056
   7 O :   -0.062196
   8 H :    0.140085
   9 H :    0.105166
  10 H :    0.087872
  11 H :    0.102218

  Mayer bond orders larger than 0.1
B(  6-C ,  7-O ) :   0.9935 B(  6-C ,  9-H ) :   0.9718 B(  6-C , 10-H ) :   0.9791
B(  6-C , 11-H ) :   0.9825 B(  7-O ,  8-H ) :   0.9140

Dispersion correction           -0.000210199
FINAL SINGLE POINT ENERGY      -115.730630466804

DIPOLE MOMENT
-------------
                                X             Y             Z
Electronic contribution:      1.74674       0.16051      -0.20875
Nuclear contribution   :     -2.20128       0.02304       0.71681
                        -----------------------------------------
Total Dipole Moment    :     -0.45454       0.18356       0.50806
                        -----------------------------------------
Magnitude (a.u.)       :      0.70599
Magnitude (Debye)      :      1.79450

Rotational constants in cm-1:     4.344861     0.845569     0.804371
Rotational constants in MHz : 130255.667527 25349.529864 24114.438734

                             ****ORCA TERMINATED NORMALLY****
TOTAL RUN TIME: 0 days 0 hours 0 minutes 41 seconds 310 msec
