                         Program Version 4.1.2  - RELEASE  -
|  1> #Run DFT-D3 single point of the dimer
|  2> ! wB97X-D3 def2-TZVP TIGHTSCF CHELPG PMODEL PAL8
|  3>
|  4> %base "7-112_DFT_AB"
|  5>
|  6> %scf
|  7> MaxIter 1000
|  8> end
|  9>
| 10> * xyz 0 1
| 11>   C                      0.729532             5.280987             0.792221
| 12>   O                      0.011848             4.968392             -0.373084
| 13>   H                      -0.194236            5.859441             -0.599549
| 14>   H                      1.347677             4.466694             1.117791
| 15>   H                      1.488634             6.100130             0.576506
| 16>   H                      -0.035568            5.478909             1.575330
| 17>   C                      2.163176             6.492274             -4.981907
| 18>   O                      1.985793             5.101903             -4.804777
| 19>   H                      2.362999             4.914867             -3.969239
| 20>   H                      2.898402             6.911257             -4.360386
| 21>   H                      2.393466             6.722393             -6.010610
| 22>   H                      1.274072             6.999518             -4.632095
| 23> *
| 24>
| 25> #Run DFT-D3 single point of the molecule with dimer basis set
| 26> $new_job
| 27> %base "7-112_DFT_A"
| 28> ! wB97X-D3 def2-TZVP TIGHTSCF CHELPG PMODEL
| 29>
| 30> %scf
| 31> MaxIter 1000
| 32> end
| 33>
| 34> * xyz 0 1
| 35>   C                      0.729532             5.280987             0.792221
| 36>   O                      0.011848             4.968392             -0.373084
| 37>   H                      -0.194236            5.859441             -0.599549
| 38>   H                      1.347677             4.466694             1.117791
| 39>   H                      1.488634             6.100130             0.576506
| 40>   H                      -0.035568            5.478909             1.575330
| 41>   C                    : 2.163176             6.492274             -4.981907
| 42>   O                    : 1.985793             5.101903             -4.804777
| 43>   H                    : 2.362999             4.914867             -3.969239
| 44>   H                    : 2.898402             6.911257             -4.360386
| 45>   H                    : 2.393466             6.722393             -6.010610
| 46>   H                    : 1.274072             6.999518             -4.632095
| 47> *
| 48>
| 49> #Run DFT-D3 single point of the particle with dimer basis set
| 50> $new_job
| 51> %base "7-112_DFT_B"
| 52> ! wB97X-D3 def2-TZVP TIGHTSCF CHELPG PMODEL
| 53>
| 54> %scf
| 55> MaxIter 1000
| 56> end
| 57>
| 58> * xyz 0 1
| 59>   C                    : 0.729532             5.280987             0.792221
| 60>   O                    : 0.011848             4.968392             -0.373084
| 61>   H                    : -0.194236            5.859441             -0.599549
| 62>   H                    : 1.347677             4.466694             1.117791
| 63>   H                    : 1.488634             6.100130             0.576506
| 64>   H                    : -0.035568            5.478909             1.575330
| 65>   C                      2.163176             6.492274             -4.981907
| 66>   O                      1.985793             5.101903             -4.804777
| 67>   H                      2.362999             4.914867             -3.969239
| 68>   H                      2.898402             6.911257             -4.360386
| 69>   H                      2.393466             6.722393             -6.010610
| 70>   H                      1.274072             6.999518             -4.632095
| 71> *
| 72>
| 73>                          ****END OF INPUT****
 Total Charge           Charge          ....    0
 Multiplicity           Mult            ....    1
 Number of Electrons    NEL             ....   36
Dispersion correction           -0.000643652
FINAL SINGLE POINT ENERGY      -231.459113670806
Dispersion correction           -0.000201953
FINAL SINGLE POINT ENERGY      -115.727058415160

CARTESIAN COORDINATES (ANGSTROEM)
---------------------------------
  C      0.729532    5.280987    0.792221
  O      0.011848    4.968392   -0.373084
  H     -0.194236    5.859441   -0.599549
  H      1.347677    4.466694    1.117791
  H      1.488634    6.100130    0.576506
  H     -0.035568    5.478909    1.575330
  C      2.163176    6.492274   -4.981907
  O      1.985793    5.101903   -4.804777
  H      2.362999    4.914867   -3.969239
  H      2.898402    6.911257   -4.360386
  H      2.393466    6.722393   -6.010610
  H      1.274072    6.999518   -4.632095

 Multiplicity           Mult            ....    1
 Number of Electrons    NEL             ....   18
 Basis Dimension        Dim             ....  172

ORBITAL ENERGIES
----------------

  NO   OCC          E(Eh)            E(eV)
   0   2.0000     -19.226979      -523.1927
   1   2.0000     -10.304562      -280.4014
   2   2.0000      -1.142682       -31.0940
   3   2.0000      -0.801812       -21.8184
   4   2.0000      -0.619875       -16.8677
   5   2.0000      -0.545431       -14.8419
   6   2.0000      -0.523516       -14.2456
   7   2.0000      -0.442909       -12.0522
   8   2.0000      -0.372637       -10.1400
   9   0.0000       0.080787         2.1983
  10   0.0000       0.116766         3.1774
  11   0.0000       0.157907         4.2969
  12   0.0000       0.167389         4.5549
  13   0.0000       0.193874         5.2756

MULLIKEN ATOMIC CHARGES
-----------------------
   0 C :   -0.000029
   1 O :   -0.000003
   2 H :   -0.000044
   3 H :    0.000006
   4 H :    0.000001
   5 H :   -0.000001
   6 C :   -0.165706
   7 O :   -0.466505
   8 H :    0.309529
   9 H :    0.106257
  10 H :    0.116214
  11 H :    0.100281
Sum of atomic charges:   -0.0000000

LOEWDIN ATOMIC CHARGES
----------------------
   0 C :   -0.000016
   1 O :   -0.000025
   2 H :   -0.000034
   3 H :   -0.000000
   4 H :   -0.000002
   5 H :   -0.000001
   6 C :   -0.376463
   7 O :   -0.064562
   8 H :    0.154463
   9 H :    0.087379
  10 H :    0.103385
  11 H :    0.095875

  Mayer bond orders larger than 0.1
B(  6-C ,  7-O ) :   1.0026 B(  6-C ,  9-H ) :   0.9837 B(  6-C , 10-H ) :   0.9757
B(  6-C , 11-H ) :   0.9790 B(  7-O ,  8-H ) :   0.9084

Dispersion correction           -0.000221768
FINAL SINGLE POINT ENERGY      -115.731910115929

DIPOLE MOMENT
-------------
                                X             Y             Z
Electronic contribution:     -0.21725      -1.80859       0.03875
Nuclear contribution   :      0.55748       2.24982       0.45243
                        -----------------------------------------
Total Dipole Moment    :      0.34023       0.44123       0.49118
                        -----------------------------------------
Magnitude (a.u.)       :      0.74276
Magnitude (Debye)      :      1.88795

Rotational constants in cm-1:     4.469156     0.842162     0.810994
Rotational constants in MHz : 133981.912984 25247.373651 24313.000636

                             ****ORCA TERMINATED NORMALLY****
TOTAL RUN TIME: 0 days 0 hours 1 minutes 12 seconds 519 msec
