                         Program Version 4.1.2  - RELEASE  -
|  1> #Run DFT-D3 single point of the dimer
|  2> ! wB97X-D3 def2-TZVP TIGHTSCF CHELPG PMODEL PAL8
|  3>
|  4> %base "9-155_DFT_AB"
|  5>
|  6> %scf
|  7> MaxIter 1000
|  8> end
|  9>
| 10> * xyz 0 1
| 11>   C                      -4.001292            5.700041             11.026275
| 12>   O                      -3.086965            5.555457             9.920102
| 13>   H                      -2.367967            6.146032             10.115542
| 14>   H                      -3.679989            5.258567             11.966806
| 15>   H                      -4.174496            6.808621             11.212356
| 16>   H                      -4.976876            5.231528             10.844541
| 17>   C                      -3.634617            5.482813             6.223014
| 18>   O                      -3.845451            4.558936             7.253444
| 19>   H                      -3.837731            5.120619             8.113329
| 20>   H                      -2.854401            6.247456             6.538076
| 21>   H                      -3.288832            4.977465             5.315011
| 22>   H                      -4.539207            5.985702             5.839303
| 23> *
| 24>
| 25> #Run DFT-D3 single point of the molecule with dimer basis set
| 26> $new_job
| 27> %base "9-155_DFT_A"
| 28> ! wB97X-D3 def2-TZVP TIGHTSCF CHELPG PMODEL
| 29>
| 30> %scf
| 31> MaxIter 1000
| 32> end
| 33>
| 34> * xyz 0 1
| 35>   C                      -4.001292            5.700041             11.026275
| 36>   O                      -3.086965            5.555457             9.920102
| 37>   H                      -2.367967            6.146032             10.115542
| 38>   H                      -3.679989            5.258567             11.966806
| 39>   H                      -4.174496            6.808621             11.212356
| 40>   H                      -4.976876            5.231528             10.844541
| 41>   C                    : -3.634617            5.482813             6.223014
| 42>   O                    : -3.845451            4.558936             7.253444
| 43>   H                    : -3.837731            5.120619             8.113329
| 44>   H                    : -2.854401            6.247456             6.538076
| 45>   H                    : -3.288832            4.977465             5.315011
| 46>   H                    : -4.539207            5.985702             5.839303
| 47> *
| 48>
| 49> #Run DFT-D3 single point of the particle with dimer basis set
| 50> $new_job
| 51> %base "9-155_DFT_B"
| 52> ! wB97X-D3 def2-TZVP TIGHTSCF CHELPG PMODEL
| 53>
| 54> %scf
| 55> MaxIter 1000
| 56> end
| 57>
| 58> * xyz 0 1
| 59>   C                    : -4.001292            5.700041             11.026275
| 60>   O                    : -3.086965            5.555457             9.920102
| 61>   H                    : -2.367967            6.146032             10.115542
| 62>   H                    : -3.679989            5.258567             11.966806
| 63>   H                    : -4.174496            6.808621             11.212356
| 64>   H                    : -4.976876            5.231528             10.844541
| 65>   C                      -3.634617            5.482813             6.223014
| 66>   O                      -3.845451            4.558936             7.253444
| 67>   H                      -3.837731            5.120619             8.113329
| 68>   H                      -2.854401            6.247456             6.538076
| 69>   H                      -3.288832            4.977465             5.315011
| 70>   H                      -4.539207            5.985702             5.839303
| 71> *
| 72>
| 73>                          ****END OF INPUT****
 Total Charge           Charge          ....    0
 Multiplicity           Mult            ....    1
 Number of Electrons    NEL             ....   36
Dispersion correction           -0.001564635
FINAL SINGLE POINT ENERGY      -231.470987906934
Dispersion correction           -0.000258218
FINAL SINGLE POINT ENERGY      -115.733624678857

CARTESIAN COORDINATES (ANGSTROEM)
---------------------------------
  C     -4.001292    5.700041   11.026275
  O     -3.086965    5.555457    9.920102
  H     -2.367967    6.146032   10.115542
  H     -3.679989    5.258567   11.966806
  H     -4.174496    6.808621   11.212356
  H     -4.976876    5.231528   10.844541
  C     -3.634617    5.482813    6.223014
  O     -3.845451    4.558936    7.253444
  H     -3.837731    5.120619    8.113329
  H     -2.854401    6.247456    6.538076
  H     -3.288832    4.977465    5.315011
  H     -4.539207    5.985702    5.839303

 Multiplicity           Mult            ....    1
 Number of Electrons    NEL             ....   18
 Basis Dimension        Dim             ....  172

ORBITAL ENERGIES
----------------

  NO   OCC          E(Eh)            E(eV)
   0   2.0000     -19.239867      -523.5434
   1   2.0000     -10.316879      -280.7365
   2   2.0000      -1.132942       -30.8289
   3   2.0000      -0.785485       -21.3741
   4   2.0000      -0.603769       -16.4294
   5   2.0000      -0.542814       -14.7707
   6   2.0000      -0.526013       -14.3135
   7   2.0000      -0.431247       -11.7348
   8   2.0000      -0.371964       -10.1217
   9   0.0000       0.066007         1.7962
  10   0.0000       0.124064         3.3759
  11   0.0000       0.149416         4.0658
  12   0.0000       0.161938         4.4066
  13   0.0000       0.195410         5.3174

MULLIKEN ATOMIC CHARGES
-----------------------
   0 C :   -0.001369
   1 O :   -0.001949
   2 H :   -0.000064
   3 H :   -0.000010
   4 H :    0.000033
   5 H :   -0.000146
   6 C :   -0.170558
   7 O :   -0.456104
   8 H :    0.316406
   9 H :    0.098752
  10 H :    0.116107
  11 H :    0.098902
Sum of atomic charges:   -0.0000000

LOEWDIN ATOMIC CHARGES
----------------------
   0 C :   -0.003467
   1 O :   -0.017939
   2 H :   -0.001010
   3 H :   -0.000076
   4 H :   -0.000049
   5 H :   -0.000479
   6 C :   -0.415670
   7 O :   -0.082512
   8 H :    0.219748
   9 H :    0.102306
  10 H :    0.105661
  11 H :    0.093486

  Mayer bond orders larger than 0.1
B(  6-C ,  7-O ) :   1.0091 B(  6-C ,  9-H ) :   0.9813 B(  6-C , 10-H ) :   0.9736
B(  6-C , 11-H ) :   0.9702 B(  7-O ,  8-H ) :   0.8956

Dispersion correction           -0.000250581
FINAL SINGLE POINT ENERGY      -115.729803277200

DIPOLE MOMENT
-------------
                                X             Y             Z
Electronic contribution:     -0.32089      -1.38932       1.28814
Nuclear contribution   :      0.40849       2.05215      -1.17428
                        -----------------------------------------
Total Dipole Moment    :      0.08761       0.66283       0.11386
                        -----------------------------------------
Magnitude (a.u.)       :      0.67822
Magnitude (Debye)      :      1.72390

Rotational constants in cm-1:     4.105093     0.840087     0.800853
Rotational constants in MHz : 123067.577509 25185.174065 24008.963662

                             ****ORCA TERMINATED NORMALLY****
TOTAL RUN TIME: 0 days 0 hours 0 minutes 45 seconds 17 msec
