                         Program Version 4.1.2  - RELEASE  -
|  1> #Run DFT-D3 single point of the dimer
|  2> ! wB97X-D3 def2-TZVP TIGHTSCF CHELPG PMODEL PAL8
|  3>
|  4> %base "13-59_DFT_AB"
|  5>
|  6> %scf
|  7> MaxIter 1000
|  8> end
|  9>
| 10> * xyz 0 1
| 11>   C                      6.579677             -4.656054            2.098122
| 12>   O                      6.418017             -5.253259            3.379541
| 13>   H                      5.507121             -5.599913            3.333520
| 14>   H                      5.924402             -3.782596            1.864666
| 15>   H                      7.523478             -4.087973            1.999012
| 16>   H                      6.439044             -5.427651            1.315982
| 17>   C                      9.588185             -2.891128            0.419807
| 18>   O                      10.395657            -1.721919            0.495448
| 19>   H                      11.271674            -2.028501            0.244754
| 20>   H                      9.916124             -3.566033            1.222881
| 21>   H                      8.543671             -2.560426            0.675156
| 22>   H                      9.666766             -3.407956            -0.564267
| 23> *
| 24>
| 25> #Run DFT-D3 single point of the molecule with dimer basis set
| 26> $new_job
| 27> %base "13-59_DFT_A"
| 28> ! wB97X-D3 def2-TZVP TIGHTSCF CHELPG PMODEL
| 29>
| 30> %scf
| 31> MaxIter 1000
| 32> end
| 33>
| 34> * xyz 0 1
| 35>   C                      6.579677             -4.656054            2.098122
| 36>   O                      6.418017             -5.253259            3.379541
| 37>   H                      5.507121             -5.599913            3.333520
| 38>   H                      5.924402             -3.782596            1.864666
| 39>   H                      7.523478             -4.087973            1.999012
| 40>   H                      6.439044             -5.427651            1.315982
| 41>   C                    : 9.588185             -2.891128            0.419807
| 42>   O                    : 10.395657            -1.721919            0.495448
| 43>   H                    : 11.271674            -2.028501            0.244754
| 44>   H                    : 9.916124             -3.566033            1.222881
| 45>   H                    : 8.543671             -2.560426            0.675156
| 46>   H                    : 9.666766             -3.407956            -0.564267
| 47> *
| 48>
| 49> #Run DFT-D3 single point of the particle with dimer basis set
| 50> $new_job
| 51> %base "13-59_DFT_B"
| 52> ! wB97X-D3 def2-TZVP TIGHTSCF CHELPG PMODEL
| 53>
| 54> %scf
| 55> MaxIter 1000
| 56> end
| 57>
| 58> * xyz 0 1
| 59>   C                    : 6.579677             -4.656054            2.098122
| 60>   O                    : 6.418017             -5.253259            3.379541
| 61>   H                    : 5.507121             -5.599913            3.333520
| 62>   H                    : 5.924402             -3.782596            1.864666
| 63>   H                    : 7.523478             -4.087973            1.999012
| 64>   H                    : 6.439044             -5.427651            1.315982
| 65>   C                      9.588185             -2.891128            0.419807
| 66>   O                      10.395657            -1.721919            0.495448
| 67>   H                      11.271674            -2.028501            0.244754
| 68>   H                      9.916124             -3.566033            1.222881
| 69>   H                      8.543671             -2.560426            0.675156
| 70>   H                      9.666766             -3.407956            -0.564267
| 71> *
| 72>
| 73>                          ****END OF INPUT****
 Total Charge           Charge          ....    0
 Multiplicity           Mult            ....    1
 Number of Electrons    NEL             ....   36
Dispersion correction           -0.001358546
FINAL SINGLE POINT ENERGY      -231.464654719706
Dispersion correction           -0.000250269
FINAL SINGLE POINT ENERGY      -115.729861564224

CARTESIAN COORDINATES (ANGSTROEM)
---------------------------------
  C      6.579677   -4.656054    2.098122
  O      6.418017   -5.253259    3.379541
  H      5.507121   -5.599913    3.333520
  H      5.924402   -3.782596    1.864666
  H      7.523478   -4.087973    1.999012
  H      6.439044   -5.427651    1.315982
  C      9.588185   -2.891128    0.419807
  O     10.395657   -1.721919    0.495448
  H     11.271674   -2.028501    0.244754
  H      9.916124   -3.566033    1.222881
  H      8.543671   -2.560426    0.675156
  H      9.666766   -3.407956   -0.564267

 Multiplicity           Mult            ....    1
 Number of Electrons    NEL             ....   18
 Basis Dimension        Dim             ....  172

ORBITAL ENERGIES
----------------

  NO   OCC          E(Eh)            E(eV)
   0   2.0000     -19.229765      -523.2685
   1   2.0000     -10.319545      -280.8091
   2   2.0000      -1.135763       -30.9057
   3   2.0000      -0.787859       -21.4387
   4   2.0000      -0.607563       -16.5326
   5   2.0000      -0.541939       -14.7469
   6   2.0000      -0.519686       -14.1414
   7   2.0000      -0.438849       -11.9417
   8   2.0000      -0.372435       -10.1345
   9   0.0000       0.085722         2.3326
  10   0.0000       0.114170         3.1067
  11   0.0000       0.149489         4.0678
  12   0.0000       0.173356         4.7172
  13   0.0000       0.185740         5.0542

MULLIKEN ATOMIC CHARGES
-----------------------
   0 C :    0.003911
   1 O :   -0.000047
   2 H :    0.000001
   3 H :   -0.000502
   4 H :   -0.006713
   5 H :   -0.000141
   6 C :   -0.171536
   7 O :   -0.464764
   8 H :    0.311321
   9 H :    0.104622
  10 H :    0.120112
  11 H :    0.103737
Sum of atomic charges:   -0.0000000

LOEWDIN ATOMIC CHARGES
----------------------
   0 C :   -0.003358
   1 O :   -0.000012
   2 H :   -0.000004
   3 H :   -0.000331
   4 H :   -0.007372
   5 H :   -0.000039
   6 C :   -0.384309
   7 O :   -0.086325
   8 H :    0.168361
   9 H :    0.096785
  10 H :    0.118478
  11 H :    0.098126

  Mayer bond orders larger than 0.1
B(  6-C ,  7-O ) :   0.9966 B(  6-C ,  9-H ) :   0.9780 B(  6-C , 10-H ) :   0.9725
B(  6-C , 11-H ) :   0.9638 B(  7-O ,  8-H ) :   0.9026

Dispersion correction           -0.000227646
FINAL SINGLE POINT ENERGY      -115.734630558610

DIPOLE MOMENT
-------------
                                X             Y             Z
Electronic contribution:      0.88603       1.54209       0.04858
Nuclear contribution   :     -0.65010      -2.18087      -0.22372
                        -----------------------------------------
Total Dipole Moment    :      0.23594      -0.63878      -0.17514
                        -----------------------------------------
Magnitude (a.u.)       :      0.70312
Magnitude (Debye)      :      1.78718

Rotational constants in cm-1:     4.050999     0.834988     0.799091
Rotational constants in MHz : 121445.881845 25032.306618 23956.155920

                             ****ORCA TERMINATED NORMALLY****
TOTAL RUN TIME: 0 days 0 hours 1 minutes 11 seconds 23 msec
