                         Program Version 4.1.2  - RELEASE  -
|  1> #Run DFT-D3 single point of the dimer
|  2> ! wB97X-D3 def2-TZVP TIGHTSCF CHELPG PMODEL PAL8
|  3>
|  4> %base "7-74_DFT_AB"
|  5>
|  6> %scf
|  7> MaxIter 1000
|  8> end
|  9>
| 10> * xyz 0 1
| 11>   C                      7.285926             0.821066             2.316241
| 12>   O                      7.532912             0.471736             1.007627
| 13>   H                      8.045949             -0.406475            0.930814
| 14>   H                      7.486048             -0.087081            3.004934
| 15>   H                      7.841240             1.695538             2.765298
| 16>   H                      6.188296             0.937388             2.320612
| 17>   C                      9.005637             -2.727195            -0.447408
| 18>   O                      9.309623             -1.997520            0.738286
| 19>   H                      10.095990            -2.459331            1.103238
| 20>   H                      9.924070             -3.188769            -0.763899
| 21>   H                      8.322040             -3.520281            -0.232930
| 22>   H                      8.695189             -2.061512            -1.249719
| 23> *
| 24>
| 25> #Run DFT-D3 single point of the molecule with dimer basis set
| 26> $new_job
| 27> %base "7-74_DFT_A"
| 28> ! wB97X-D3 def2-TZVP TIGHTSCF CHELPG PMODEL
| 29>
| 30> %scf
| 31> MaxIter 1000
| 32> end
| 33>
| 34> * xyz 0 1
| 35>   C                      7.285926             0.821066             2.316241
| 36>   O                      7.532912             0.471736             1.007627
| 37>   H                      8.045949             -0.406475            0.930814
| 38>   H                      7.486048             -0.087081            3.004934
| 39>   H                      7.841240             1.695538             2.765298
| 40>   H                      6.188296             0.937388             2.320612
| 41>   C                    : 9.005637             -2.727195            -0.447408
| 42>   O                    : 9.309623             -1.997520            0.738286
| 43>   H                    : 10.095990            -2.459331            1.103238
| 44>   H                    : 9.924070             -3.188769            -0.763899
| 45>   H                    : 8.322040             -3.520281            -0.232930
| 46>   H                    : 8.695189             -2.061512            -1.249719
| 47> *
| 48>
| 49> #Run DFT-D3 single point of the particle with dimer basis set
| 50> $new_job
| 51> %base "7-74_DFT_B"
| 52> ! wB97X-D3 def2-TZVP TIGHTSCF CHELPG PMODEL
| 53>
| 54> %scf
| 55> MaxIter 1000
| 56> end
| 57>
| 58> * xyz 0 1
| 59>   C                    : 7.285926             0.821066             2.316241
| 60>   O                    : 7.532912             0.471736             1.007627
| 61>   H                    : 8.045949             -0.406475            0.930814
| 62>   H                    : 7.486048             -0.087081            3.004934
| 63>   H                    : 7.841240             1.695538             2.765298
| 64>   H                    : 6.188296             0.937388             2.320612
| 65>   C                      9.005637             -2.727195            -0.447408
| 66>   O                      9.309623             -1.997520            0.738286
| 67>   H                      10.095990            -2.459331            1.103238
| 68>   H                      9.924070             -3.188769            -0.763899
| 69>   H                      8.322040             -3.520281            -0.232930
| 70>   H                      8.695189             -2.061512            -1.249719
| 71> *
| 72>
| 73>                          ****END OF INPUT****
 Total Charge           Charge          ....    0
 Multiplicity           Mult            ....    1
 Number of Electrons    NEL             ....   36
Dispersion correction           -0.001532197
FINAL SINGLE POINT ENERGY      -231.465134292603
Dispersion correction           -0.000256815
FINAL SINGLE POINT ENERGY      -115.723691099867

CARTESIAN COORDINATES (ANGSTROEM)
---------------------------------
  C      7.285926    0.821066    2.316241
  O      7.532912    0.471736    1.007627
  H      8.045949   -0.406475    0.930814
  H      7.486048   -0.087081    3.004934
  H      7.841240    1.695538    2.765298
  H      6.188296    0.937388    2.320612
  C      9.005637   -2.727195   -0.447408
  O      9.309623   -1.997520    0.738286
  H     10.095990   -2.459331    1.103238
  H      9.924070   -3.188769   -0.763899
  H      8.322040   -3.520281   -0.232930
  H      8.695189   -2.061512   -1.249719

 Multiplicity           Mult            ....    1
 Number of Electrons    NEL             ....   18
 Basis Dimension        Dim             ....  172

ORBITAL ENERGIES
----------------

  NO   OCC          E(Eh)            E(eV)
   0   2.0000     -19.229948      -523.2735
   1   2.0000     -10.308469      -280.5077
   2   2.0000      -1.130577       -30.7646
   3   2.0000      -0.794679       -21.6243
   4   2.0000      -0.606957       -16.5161
   5   2.0000      -0.550086       -14.9686
   6   2.0000      -0.524684       -14.2774
   7   2.0000      -0.434012       -11.8101
   8   2.0000      -0.374212       -10.1828
   9   0.0000       0.098968         2.6931
  10   0.0000       0.117552         3.1988
  11   0.0000       0.155234         4.2241
  12   0.0000       0.186265         5.0685
  13   0.0000       0.202185         5.5017

MULLIKEN ATOMIC CHARGES
-----------------------
   0 C :    0.001733
   1 O :    0.000030
   2 H :   -0.008097
   3 H :   -0.002249
   4 H :   -0.000022
   5 H :   -0.000131
   6 C :   -0.164221
   7 O :   -0.466293
   8 H :    0.311301
   9 H :    0.097662
  10 H :    0.107577
  11 H :    0.122710
Sum of atomic charges:    0.0000000

LOEWDIN ATOMIC CHARGES
----------------------
   0 C :   -0.001569
   1 O :   -0.002290
   2 H :   -0.030168
   3 H :   -0.000891
   4 H :   -0.000010
   5 H :   -0.000015
   6 C :   -0.368054
   7 O :   -0.071620
   8 H :    0.182187
   9 H :    0.094147
  10 H :    0.091963
  11 H :    0.106322

  Mayer bond orders larger than 0.1
B(  6-C ,  7-O ) :   0.9943 B(  6-C ,  9-H ) :   0.9884 B(  6-C , 10-H ) :   0.9720
B(  6-C , 11-H ) :   0.9752 B(  7-O ,  8-H ) :   0.9003

Dispersion correction           -0.000220010
FINAL SINGLE POINT ENERGY      -115.732599836681

DIPOLE MOMENT
-------------
                                X             Y             Z
Electronic contribution:      0.13539       1.03210       1.41729
Nuclear contribution   :      0.26439      -1.62505      -1.68318
                        -----------------------------------------
Total Dipole Moment    :      0.39978      -0.59295      -0.26590
                        -----------------------------------------
Magnitude (a.u.)       :      0.76296
Magnitude (Debye)      :      1.93930

Rotational constants in cm-1:     4.259068     0.833670     0.803763
Rotational constants in MHz : 127683.658627 24992.802861 24096.198650

                             ****ORCA TERMINATED NORMALLY****
TOTAL RUN TIME: 0 days 0 hours 1 minutes 10 seconds 979 msec
