                         Program Version 4.1.2  - RELEASE  -
|  1> #Run DFT-D3 single point of the dimer
|  2> ! wB97X-D3 def2-TZVP TIGHTSCF CHELPG PMODEL PAL8
|  3>
|  4> %base "7-198_DFT_AB"
|  5>
|  6> %scf
|  7> MaxIter 1000
|  8> end
|  9>
| 10> * xyz 0 1
| 11>   C                      -1.063751            -8.098231            -4.243452
| 12>   O                      -2.222787            -8.313218            -5.011875
| 13>   H                      -2.807360            -8.939454            -4.540298
| 14>   H                      -0.253067            -8.872998            -4.413000
| 15>   H                      -0.578344            -7.134077            -4.487361
| 16>   H                      -1.390768            -8.202461            -3.210143
| 17>   C                      -3.442066            -5.748472            -1.650043
| 18>   O                      -4.309298            -6.326566            -2.533591
| 19>   H                      -3.866864            -7.032628            -2.977934
| 20>   H                      -3.811814            -4.730813            -1.380673
| 21>   H                      -3.443193            -6.277069            -0.667152
| 22>   H                      -2.442657            -5.646653            -2.059387
| 23> *
| 24>
| 25> #Run DFT-D3 single point of the molecule with dimer basis set
| 26> $new_job
| 27> %base "7-198_DFT_A"
| 28> ! wB97X-D3 def2-TZVP TIGHTSCF CHELPG PMODEL
| 29>
| 30> %scf
| 31> MaxIter 1000
| 32> end
| 33>
| 34> * xyz 0 1
| 35>   C                      -1.063751            -8.098231            -4.243452
| 36>   O                      -2.222787            -8.313218            -5.011875
| 37>   H                      -2.807360            -8.939454            -4.540298
| 38>   H                      -0.253067            -8.872998            -4.413000
| 39>   H                      -0.578344            -7.134077            -4.487361
| 40>   H                      -1.390768            -8.202461            -3.210143
| 41>   C                    : -3.442066            -5.748472            -1.650043
| 42>   O                    : -4.309298            -6.326566            -2.533591
| 43>   H                    : -3.866864            -7.032628            -2.977934
| 44>   H                    : -3.811814            -4.730813            -1.380673
| 45>   H                    : -3.443193            -6.277069            -0.667152
| 46>   H                    : -2.442657            -5.646653            -2.059387
| 47> *
| 48>
| 49> #Run DFT-D3 single point of the particle with dimer basis set
| 50> $new_job
| 51> %base "7-198_DFT_B"
| 52> ! wB97X-D3 def2-TZVP TIGHTSCF CHELPG PMODEL
| 53>
| 54> %scf
| 55> MaxIter 1000
| 56> end
| 57>
| 58> * xyz 0 1
| 59>   C                    : -1.063751            -8.098231            -4.243452
| 60>   O                    : -2.222787            -8.313218            -5.011875
| 61>   H                    : -2.807360            -8.939454            -4.540298
| 62>   H                    : -0.253067            -8.872998            -4.413000
| 63>   H                    : -0.578344            -7.134077            -4.487361
| 64>   H                    : -1.390768            -8.202461            -3.210143
| 65>   C                      -3.442066            -5.748472            -1.650043
| 66>   O                      -4.309298            -6.326566            -2.533591
| 67>   H                      -3.866864            -7.032628            -2.977934
| 68>   H                      -3.811814            -4.730813            -1.380673
| 69>   H                      -3.443193            -6.277069            -0.667152
| 70>   H                      -2.442657            -5.646653            -2.059387
| 71> *
| 72>
| 73>                          ****END OF INPUT****
 Total Charge           Charge          ....    0
 Multiplicity           Mult            ....    1
 Number of Electrons    NEL             ....   36
Dispersion correction           -0.001770906
FINAL SINGLE POINT ENERGY      -231.467750633245
Dispersion correction           -0.000242693
FINAL SINGLE POINT ENERGY      -115.732304827720

CARTESIAN COORDINATES (ANGSTROEM)
---------------------------------
  C     -1.063751   -8.098231   -4.243452
  O     -2.222787   -8.313218   -5.011875
  H     -2.807360   -8.939454   -4.540298
  H     -0.253067   -8.872998   -4.413000
  H     -0.578344   -7.134077   -4.487361
  H     -1.390768   -8.202461   -3.210143
  C     -3.442066   -5.748472   -1.650043
  O     -4.309298   -6.326566   -2.533591
  H     -3.866864   -7.032628   -2.977934
  H     -3.811814   -4.730813   -1.380673
  H     -3.443193   -6.277069   -0.667152
  H     -2.442657   -5.646653   -2.059387

 Multiplicity           Mult            ....    1
 Number of Electrons    NEL             ....   18
 Basis Dimension        Dim             ....  172

ORBITAL ENERGIES
----------------

  NO   OCC          E(Eh)            E(eV)
   0   2.0000     -19.229092      -523.2502
   1   2.0000     -10.312111      -280.6068
   2   2.0000      -1.155042       -31.4303
   3   2.0000      -0.793258       -21.5857
   4   2.0000      -0.621348       -16.9078
   5   2.0000      -0.548458       -14.9243
   6   2.0000      -0.531986       -14.4761
   7   2.0000      -0.428522       -11.6607
   8   2.0000      -0.370774       -10.0893
   9   0.0000       0.068801         1.8722
  10   0.0000       0.137834         3.7507
  11   0.0000       0.139966         3.8087
  12   0.0000       0.174197         4.7401
  13   0.0000       0.186358         5.0710

MULLIKEN ATOMIC CHARGES
-----------------------
   0 C :   -0.001491
   1 O :    0.000213
   2 H :   -0.000074
   3 H :   -0.000023
   4 H :   -0.000117
   5 H :   -0.000077
   6 C :   -0.156616
   7 O :   -0.457194
   8 H :    0.313541
   9 H :    0.108510
  10 H :    0.092030
  11 H :    0.101299
Sum of atomic charges:   -0.0000000

LOEWDIN ATOMIC CHARGES
----------------------
   0 C :   -0.002261
   1 O :   -0.000973
   2 H :   -0.001047
   3 H :   -0.000029
   4 H :   -0.000151
   5 H :   -0.001017
   6 C :   -0.424712
   7 O :   -0.030469
   8 H :    0.162365
   9 H :    0.110333
  10 H :    0.096038
  11 H :    0.091923

  Mayer bond orders larger than 0.1
B(  6-C ,  7-O ) :   1.0055 B(  6-C ,  9-H ) :   0.9749 B(  6-C , 10-H ) :   0.9775
B(  6-C , 11-H ) :   0.9782 B(  7-O ,  8-H ) :   0.9053

Dispersion correction           -0.000228804
FINAL SINGLE POINT ENERGY      -115.734370521560

DIPOLE MOMENT
-------------
                                X             Y             Z
Electronic contribution:     -1.18277      -0.74056      -1.23326
Nuclear contribution   :      1.78557       0.51069       1.25152
                        -----------------------------------------
Total Dipole Moment    :      0.60280      -0.22987       0.01826
                        -----------------------------------------
Magnitude (a.u.)       :      0.64540
Magnitude (Debye)      :      1.64047

Rotational constants in cm-1:     4.283026     0.874366     0.844206
Rotational constants in MHz : 128401.883350 26212.833591 25308.650512

                             ****ORCA TERMINATED NORMALLY****
TOTAL RUN TIME: 0 days 0 hours 1 minutes 10 seconds 955 msec
