                         Program Version 4.1.2  - RELEASE  -
|  1> #Run DFT-D3 single point of the dimer
|  2> ! wB97X-D3 def2-TZVP TIGHTSCF CHELPG PMODEL PAL8
|  3>
|  4> %base "4-105_DFT_AB"
|  5>
|  6> %scf
|  7> MaxIter 1000
|  8> end
|  9>
| 10> * xyz 0 1
| 11>   C                      -2.198624            9.615270             1.579089
| 12>   O                      -2.591249            8.515751             2.357670
| 13>   H                      -3.042198            8.817431             3.150511
| 14>   H                      -2.964768            10.342810            1.400862
| 15>   H                      -1.380174            10.190098            2.092665
| 16>   H                      -1.801923            9.420872             0.610234
| 17>   C                      0.194784             7.238255             3.710288
| 18>   O                      0.011243             6.120356             4.518870
| 19>   H                      -0.779949            6.265126             4.994782
| 20>   H                      -0.791740            7.650573             3.394067
| 21>   H                      0.607103             8.122009             4.203341
| 22>   H                      0.804495             6.998863             2.831685
| 23> *
| 24>
| 25> #Run DFT-D3 single point of the molecule with dimer basis set
| 26> $new_job
| 27> %base "4-105_DFT_A"
| 28> ! wB97X-D3 def2-TZVP TIGHTSCF CHELPG PMODEL
| 29>
| 30> %scf
| 31> MaxIter 1000
| 32> end
| 33>
| 34> * xyz 0 1
| 35>   C                      -2.198624            9.615270             1.579089
| 36>   O                      -2.591249            8.515751             2.357670
| 37>   H                      -3.042198            8.817431             3.150511
| 38>   H                      -2.964768            10.342810            1.400862
| 39>   H                      -1.380174            10.190098            2.092665
| 40>   H                      -1.801923            9.420872             0.610234
| 41>   C                    : 0.194784             7.238255             3.710288
| 42>   O                    : 0.011243             6.120356             4.518870
| 43>   H                    : -0.779949            6.265126             4.994782
| 44>   H                    : -0.791740            7.650573             3.394067
| 45>   H                    : 0.607103             8.122009             4.203341
| 46>   H                    : 0.804495             6.998863             2.831685
| 47> *
| 48>
| 49> #Run DFT-D3 single point of the particle with dimer basis set
| 50> $new_job
| 51> %base "4-105_DFT_B"
| 52> ! wB97X-D3 def2-TZVP TIGHTSCF CHELPG PMODEL
| 53>
| 54> %scf
| 55> MaxIter 1000
| 56> end
| 57>
| 58> * xyz 0 1
| 59>   C                    : -2.198624            9.615270             1.579089
| 60>   O                    : -2.591249            8.515751             2.357670
| 61>   H                    : -3.042198            8.817431             3.150511
| 62>   H                    : -2.964768            10.342810            1.400862
| 63>   H                    : -1.380174            10.190098            2.092665
| 64>   H                    : -1.801923            9.420872             0.610234
| 65>   C                      0.194784             7.238255             3.710288
| 66>   O                      0.011243             6.120356             4.518870
| 67>   H                      -0.779949            6.265126             4.994782
| 68>   H                      -0.791740            7.650573             3.394067
| 69>   H                      0.607103             8.122009             4.203341
| 70>   H                      0.804495             6.998863             2.831685
| 71> *
| 72>
| 73>                          ****END OF INPUT****
 Total Charge           Charge          ....    0
 Multiplicity           Mult            ....    1
 Number of Electrons    NEL             ....   36
Dispersion correction           -0.001695232
FINAL SINGLE POINT ENERGY      -231.465675928131
Dispersion correction           -0.000249903
FINAL SINGLE POINT ENERGY      -115.732335909655

CARTESIAN COORDINATES (ANGSTROEM)
---------------------------------
  C     -2.198624    9.615270    1.579089
  O     -2.591249    8.515751    2.357670
  H     -3.042198    8.817431    3.150511
  H     -2.964768   10.342810    1.400862
  H     -1.380174   10.190098    2.092665
  H     -1.801923    9.420872    0.610234
  C      0.194784    7.238255    3.710288
  O      0.011243    6.120356    4.518870
  H     -0.779949    6.265126    4.994782
  H     -0.791740    7.650573    3.394067
  H      0.607103    8.122009    4.203341
  H      0.804495    6.998863    2.831685

 Multiplicity           Mult            ....    1
 Number of Electrons    NEL             ....   18
 Basis Dimension        Dim             ....  172

ORBITAL ENERGIES
----------------

  NO   OCC          E(Eh)            E(eV)
   0   2.0000     -19.230636      -523.2922
   1   2.0000     -10.314367      -280.6682
   2   2.0000      -1.150937       -31.3186
   3   2.0000      -0.795744       -21.6533
   4   2.0000      -0.623662       -16.9707
   5   2.0000      -0.536156       -14.5895
   6   2.0000      -0.533138       -14.5074
   7   2.0000      -0.438428       -11.9302
   8   2.0000      -0.371506       -10.1092
   9   0.0000       0.078367         2.1325
  10   0.0000       0.116081         3.1587
  11   0.0000       0.155600         4.2341
  12   0.0000       0.169490         4.6121
  13   0.0000       0.188816         5.1379

MULLIKEN ATOMIC CHARGES
-----------------------
   0 C :   -0.001537
   1 O :    0.001866
   2 H :   -0.000200
   3 H :   -0.000155
   4 H :   -0.000313
   5 H :    0.000039
   6 C :   -0.140948
   7 O :   -0.458744
   8 H :    0.313421
   9 H :    0.070658
  10 H :    0.095852
  11 H :    0.120060
Sum of atomic charges:    0.0000000

LOEWDIN ATOMIC CHARGES
----------------------
   0 C :   -0.005493
   1 O :   -0.013097
   2 H :   -0.002431
   3 H :   -0.000107
   4 H :   -0.000765
   5 H :   -0.000176
   6 C :   -0.401278
   7 O :   -0.044190
   8 H :    0.156784
   9 H :    0.109045
  10 H :    0.092967
  11 H :    0.108740

  Mayer bond orders larger than 0.1
B(  6-C ,  7-O ) :   1.0099 B(  6-C ,  9-H ) :   1.0010 B(  6-C , 10-H ) :   0.9641
B(  6-C , 11-H ) :   0.9760 B(  7-O ,  8-H ) :   0.9043

Dispersion correction           -0.000232984
FINAL SINGLE POINT ENERGY      -115.733114998382

DIPOLE MOMENT
-------------
                                X             Y             Z
Electronic contribution:     -0.02283      -1.64417       1.03103
Nuclear contribution   :     -0.42729       2.15490      -1.03148
                        -----------------------------------------
Total Dipole Moment    :     -0.45012       0.51073      -0.00045
                        -----------------------------------------
Magnitude (a.u.)       :      0.68077
Magnitude (Debye)      :      1.73039

Rotational constants in cm-1:     4.352855     0.854277     0.813207
Rotational constants in MHz : 130495.300880 25610.571720 24379.343548

                             ****ORCA TERMINATED NORMALLY****
TOTAL RUN TIME: 0 days 0 hours 1 minutes 32 seconds 798 msec
