                         Program Version 4.1.2  - RELEASE  -
|  1> #Run DFT-D3 single point of the dimer
|  2> ! wB97X-D3 def2-TZVP TIGHTSCF CHELPG PMODEL PAL8
|  3>
|  4> %base "3-100_DFT_AB"
|  5>
|  6> %scf
|  7> MaxIter 1000
|  8> end
|  9>
| 10> * xyz 0 1
| 11>   C                      3.247965             -4.559031            -0.450661
| 12>   O                      3.082228             -5.100131            0.833028
| 13>   H                      3.428484             -4.516003            1.598931
| 14>   H                      2.833958             -5.230700            -1.176977
| 15>   H                      2.781872             -3.575299            -0.586808
| 16>   H                      4.333572             -4.378047            -0.637821
| 17>   C                      3.701319             -8.455646            -1.650687
| 18>   O                      4.508554             -9.094399            -2.651325
| 19>   H                      3.930834             -9.541129            -3.264870
| 20>   H                      4.285431             -7.669530            -1.134513
| 21>   H                      2.769512             -7.919549            -2.075823
| 22>   H                      3.355722             -9.139694            -0.883058
| 23> *
| 24>
| 25> #Run DFT-D3 single point of the molecule with dimer basis set
| 26> $new_job
| 27> %base "3-100_DFT_A"
| 28> ! wB97X-D3 def2-TZVP TIGHTSCF CHELPG PMODEL
| 29>
| 30> %scf
| 31> MaxIter 1000
| 32> end
| 33>
| 34> * xyz 0 1
| 35>   C                      3.247965             -4.559031            -0.450661
| 36>   O                      3.082228             -5.100131            0.833028
| 37>   H                      3.428484             -4.516003            1.598931
| 38>   H                      2.833958             -5.230700            -1.176977
| 39>   H                      2.781872             -3.575299            -0.586808
| 40>   H                      4.333572             -4.378047            -0.637821
| 41>   C                    : 3.701319             -8.455646            -1.650687
| 42>   O                    : 4.508554             -9.094399            -2.651325
| 43>   H                    : 3.930834             -9.541129            -3.264870
| 44>   H                    : 4.285431             -7.669530            -1.134513
| 45>   H                    : 2.769512             -7.919549            -2.075823
| 46>   H                    : 3.355722             -9.139694            -0.883058
| 47> *
| 48>
| 49> #Run DFT-D3 single point of the particle with dimer basis set
| 50> $new_job
| 51> %base "3-100_DFT_B"
| 52> ! wB97X-D3 def2-TZVP TIGHTSCF CHELPG PMODEL
| 53>
| 54> %scf
| 55> MaxIter 1000
| 56> end
| 57>
| 58> * xyz 0 1
| 59>   C                    : 3.247965             -4.559031            -0.450661
| 60>   O                    : 3.082228             -5.100131            0.833028
| 61>   H                    : 3.428484             -4.516003            1.598931
| 62>   H                    : 2.833958             -5.230700            -1.176977
| 63>   H                    : 2.781872             -3.575299            -0.586808
| 64>   H                    : 4.333572             -4.378047            -0.637821
| 65>   C                      3.701319             -8.455646            -1.650687
| 66>   O                      4.508554             -9.094399            -2.651325
| 67>   H                      3.930834             -9.541129            -3.264870
| 68>   H                      4.285431             -7.669530            -1.134513
| 69>   H                      2.769512             -7.919549            -2.075823
| 70>   H                      3.355722             -9.139694            -0.883058
| 71> *
| 72>
| 73>                          ****END OF INPUT****
 Total Charge           Charge          ....    0
 Multiplicity           Mult            ....    1
 Number of Electrons    NEL             ....   36
Dispersion correction           -0.001429212
FINAL SINGLE POINT ENERGY      -231.466653460727
Dispersion correction           -0.000258005
FINAL SINGLE POINT ENERGY      -115.731219916309

CARTESIAN COORDINATES (ANGSTROEM)
---------------------------------
  C      3.247965   -4.559031   -0.450661
  O      3.082228   -5.100131    0.833028
  H      3.428484   -4.516003    1.598931
  H      2.833958   -5.230700   -1.176977
  H      2.781872   -3.575299   -0.586808
  H      4.333572   -4.378047   -0.637821
  C      3.701319   -8.455646   -1.650687
  O      4.508554   -9.094399   -2.651325
  H      3.930834   -9.541129   -3.264870
  H      4.285431   -7.669530   -1.134513
  H      2.769512   -7.919549   -2.075823
  H      3.355722   -9.139694   -0.883058

 Multiplicity           Mult            ....    1
 Number of Electrons    NEL             ....   18
 Basis Dimension        Dim             ....  172

ORBITAL ENERGIES
----------------

  NO   OCC          E(Eh)            E(eV)
   0   2.0000     -19.232524      -523.3436
   1   2.0000     -10.322301      -280.8841
   2   2.0000      -1.131943       -30.8017
   3   2.0000      -0.793634       -21.5959
   4   2.0000      -0.607258       -16.5243
   5   2.0000      -0.535930       -14.5834
   6   2.0000      -0.522950       -14.2302
   7   2.0000      -0.433339       -11.7918
   8   2.0000      -0.376462       -10.2441
   9   0.0000       0.083725         2.2783
  10   0.0000       0.116532         3.1710
  11   0.0000       0.147907         4.0248
  12   0.0000       0.165594         4.5061
  13   0.0000       0.176467         4.8019

MULLIKEN ATOMIC CHARGES
-----------------------
   0 C :    0.000225
   1 O :    0.000174
   2 H :    0.000009
   3 H :   -0.002406
   4 H :   -0.000151
   5 H :   -0.000001
   6 C :   -0.171059
   7 O :   -0.472693
   8 H :    0.315315
   9 H :    0.123520
  10 H :    0.098836
  11 H :    0.108230
Sum of atomic charges:    0.0000000

LOEWDIN ATOMIC CHARGES
----------------------
   0 C :   -0.002658
   1 O :   -0.000098
   2 H :   -0.000008
   3 H :   -0.002434
   4 H :   -0.000026
   5 H :   -0.000214
   6 C :   -0.378964
   7 O :   -0.087295
   8 H :    0.163330
   9 H :    0.110976
  10 H :    0.105407
  11 H :    0.091984

  Mayer bond orders larger than 0.1
B(  6-C ,  7-O ) :   1.0041 B(  6-C ,  9-H ) :   0.9738 B(  6-C , 10-H ) :   0.9758
B(  6-C , 11-H ) :   0.9656 B(  7-O ,  8-H ) :   0.9000

Dispersion correction           -0.000273202
FINAL SINGLE POINT ENERGY      -115.734124915984

DIPOLE MOMENT
-------------
                                X             Y             Z
Electronic contribution:      1.20475      -0.85578      -1.23042
Nuclear contribution   :     -1.88674       0.82550       1.24830
                        -----------------------------------------
Total Dipole Moment    :     -0.68199      -0.03028       0.01788
                        -----------------------------------------
Magnitude (a.u.)       :      0.68289
Magnitude (Debye)      :      1.73577

Rotational constants in cm-1:     4.239589     0.800100     0.771956
Rotational constants in MHz : 127099.676719 23986.392915 23142.661638

                             ****ORCA TERMINATED NORMALLY****
TOTAL RUN TIME: 0 days 0 hours 5 minutes 58 seconds 123 msec
