                         Program Version 4.1.2  - RELEASE  -
|  1> #Run DFT-D3 single point of the dimer
|  2> ! wB97X-D3 def2-TZVP TIGHTSCF CHELPG PMODEL PAL8
|  3>
|  4> %base "22-69_DFT_AB"
|  5>
|  6> %scf
|  7> MaxIter 1000
|  8> end
|  9>
| 10> * xyz 0 1
| 11>   C                      7.094991             -5.874388            4.295036
| 12>   O                      6.607568             -5.115187            5.413430
| 13>   H                      6.014298             -4.411971            5.145993
| 14>   H                      6.600203             -5.667700            3.315345
| 15>   H                      8.165961             -5.827261            4.147364
| 16>   H                      6.868536             -6.907309            4.499651
| 17>   C                      1.290066             -7.410364            4.128499
| 18>   O                      2.493319             -6.689525            4.556099
| 19>   H                      3.045168             -7.275594            5.105146
| 20>   H                      1.490086             -8.446307            4.137986
| 21>   H                      0.552805             -7.292973            4.896232
| 22>   H                      0.879620             -7.148192            3.076627
| 23> *
| 24>
| 25> #Run DFT-D3 single point of the molecule with dimer basis set
| 26> $new_job
| 27> %base "22-69_DFT_A"
| 28> ! wB97X-D3 def2-TZVP TIGHTSCF CHELPG PMODEL
| 29>
| 30> %scf
| 31> MaxIter 1000
| 32> end
| 33>
| 34> * xyz 0 1
| 35>   C                      7.094991             -5.874388            4.295036
| 36>   O                      6.607568             -5.115187            5.413430
| 37>   H                      6.014298             -4.411971            5.145993
| 38>   H                      6.600203             -5.667700            3.315345
| 39>   H                      8.165961             -5.827261            4.147364
| 40>   H                      6.868536             -6.907309            4.499651
| 41>   C                    : 1.290066             -7.410364            4.128499
| 42>   O                    : 2.493319             -6.689525            4.556099
| 43>   H                    : 3.045168             -7.275594            5.105146
| 44>   H                    : 1.490086             -8.446307            4.137986
| 45>   H                    : 0.552805             -7.292973            4.896232
| 46>   H                    : 0.879620             -7.148192            3.076627
| 47> *
| 48>
| 49> #Run DFT-D3 single point of the particle with dimer basis set
| 50> $new_job
| 51> %base "22-69_DFT_B"
| 52> ! wB97X-D3 def2-TZVP TIGHTSCF CHELPG PMODEL
| 53>
| 54> %scf
| 55> MaxIter 1000
| 56> end
| 57>
| 58> * xyz 0 1
| 59>   C                    : 7.094991             -5.874388            4.295036
| 60>   O                    : 6.607568             -5.115187            5.413430
| 61>   H                    : 6.014298             -4.411971            5.145993
| 62>   H                    : 6.600203             -5.667700            3.315345
| 63>   H                    : 8.165961             -5.827261            4.147364
| 64>   H                    : 6.868536             -6.907309            4.499651
| 65>   C                      1.290066             -7.410364            4.128499
| 66>   O                      2.493319             -6.689525            4.556099
| 67>   H                      3.045168             -7.275594            5.105146
| 68>   H                      1.490086             -8.446307            4.137986
| 69>   H                      0.552805             -7.292973            4.896232
| 70>   H                      0.879620             -7.148192            3.076627
| 71> *
| 72>
| 73>                          ****END OF INPUT****
 Total Charge           Charge          ....    0
 Multiplicity           Mult            ....    1
 Number of Electrons    NEL             ....   36
Dispersion correction           -0.000858638
FINAL SINGLE POINT ENERGY      -231.460937626924
Dispersion correction           -0.000278292
FINAL SINGLE POINT ENERGY      -115.733063194370

CARTESIAN COORDINATES (ANGSTROEM)
---------------------------------
  C      7.094991   -5.874388    4.295036
  O      6.607568   -5.115187    5.413430
  H      6.014298   -4.411971    5.145993
  H      6.600203   -5.667700    3.315345
  H      8.165961   -5.827261    4.147364
  H      6.868536   -6.907309    4.499651
  C      1.290066   -7.410364    4.128499
  O      2.493319   -6.689525    4.556099
  H      3.045168   -7.275594    5.105146
  H      1.490086   -8.446307    4.137986
  H      0.552805   -7.292973    4.896232
  H      0.879620   -7.148192    3.076627

 Multiplicity           Mult            ....    1
 Number of Electrons    NEL             ....   18
 Basis Dimension        Dim             ....  172

ORBITAL ENERGIES
----------------

  NO   OCC          E(Eh)            E(eV)
   0   2.0000     -19.229210      -523.2534
   1   2.0000     -10.318665      -280.7851
   2   2.0000      -1.116804       -30.3898
   3   2.0000      -0.797733       -21.7074
   4   2.0000      -0.602494       -16.3947
   5   2.0000      -0.537325       -14.6214
   6   2.0000      -0.519599       -14.1390
   7   2.0000      -0.431788       -11.7495
   8   2.0000      -0.373682       -10.1684
   9   0.0000       0.085941         2.3386
  10   0.0000       0.117225         3.1899
  11   0.0000       0.145720         3.9652
  12   0.0000       0.170730         4.6458
  13   0.0000       0.194020         5.2795

MULLIKEN ATOMIC CHARGES
-----------------------
   0 C :   -0.000502
   1 O :    0.000074
   2 H :   -0.000151
   3 H :   -0.000143
   4 H :   -0.000061
   5 H :   -0.000133
   6 C :   -0.178772
   7 O :   -0.490433
   8 H :    0.316798
   9 H :    0.116115
  10 H :    0.115295
  11 H :    0.121913
Sum of atomic charges:    0.0000000

LOEWDIN ATOMIC CHARGES
----------------------
   0 C :   -0.000381
   1 O :   -0.000018
   2 H :   -0.000124
   3 H :   -0.000103
   4 H :   -0.000018
   5 H :   -0.000093
   6 C :   -0.349215
   7 O :   -0.125323
   8 H :    0.172916
   9 H :    0.088532
  10 H :    0.093240
  11 H :    0.120587

  Mayer bond orders larger than 0.1
B(  6-C ,  7-O ) :   0.9892 B(  6-C ,  9-H ) :   0.9835 B(  6-C , 10-H ) :   0.9773
B(  6-C , 11-H ) :   0.9660 B(  7-O ,  8-H ) :   0.8961

Dispersion correction           -0.000262692
FINAL SINGLE POINT ENERGY      -115.726541864547

DIPOLE MOMENT
-------------
                                X             Y             Z
Electronic contribution:      1.41863       1.04358       0.40050
Nuclear contribution   :     -1.58391      -1.77289      -0.22267
                        -----------------------------------------
Total Dipole Moment    :     -0.16529      -0.72932       0.17784
                        -----------------------------------------
Magnitude (a.u.)       :      0.76867
Magnitude (Debye)      :      1.95379

Rotational constants in cm-1:     4.319787     0.779848     0.750167
Rotational constants in MHz : 129503.953884 23379.258602 22489.432807

                             ****ORCA TERMINATED NORMALLY****
TOTAL RUN TIME: 0 days 0 hours 0 minutes 51 seconds 779 msec
