                         Program Version 4.1.2  - RELEASE  -
|  1> #Run DFT-D3 single point of the dimer
|  2> ! wB97X-D3 def2-TZVP TIGHTSCF CHELPG PMODEL PAL8
|  3>
|  4> %base "5-104_DFT_AB"
|  5>
|  6> %scf
|  7> MaxIter 1000
|  8> end
|  9>
| 10> * xyz 0 1
| 11>   C                      5.879248             6.066946             0.264854
| 12>   O                      4.644750             5.484827             0.033709
| 13>   H                      3.940731             6.087676             0.317555
| 14>   H                      5.948655             7.172369             0.120098
| 15>   H                      6.144315             5.944105             1.290748
| 16>   H                      6.708963             5.622361             -0.348714
| 17>   C                      8.147362             3.621650             -3.749684
| 18>   O                      8.053980             4.057583             -2.454928
| 19>   H                      7.472880             3.409524             -2.063040
| 20>   H                      7.820027             2.626620             -3.885421
| 21>   H                      7.487367             4.180078             -4.434288
| 22>   H                      9.216773             3.642630             -4.117676
| 23> *
| 24>
| 25> #Run DFT-D3 single point of the molecule with dimer basis set
| 26> $new_job
| 27> %base "5-104_DFT_A"
| 28> ! wB97X-D3 def2-TZVP TIGHTSCF CHELPG PMODEL
| 29>
| 30> %scf
| 31> MaxIter 1000
| 32> end
| 33>
| 34> * xyz 0 1
| 35>   C                      5.879248             6.066946             0.264854
| 36>   O                      4.644750             5.484827             0.033709
| 37>   H                      3.940731             6.087676             0.317555
| 38>   H                      5.948655             7.172369             0.120098
| 39>   H                      6.144315             5.944105             1.290748
| 40>   H                      6.708963             5.622361             -0.348714
| 41>   C                    : 8.147362             3.621650             -3.749684
| 42>   O                    : 8.053980             4.057583             -2.454928
| 43>   H                    : 7.472880             3.409524             -2.063040
| 44>   H                    : 7.820027             2.626620             -3.885421
| 45>   H                    : 7.487367             4.180078             -4.434288
| 46>   H                    : 9.216773             3.642630             -4.117676
| 47> *
| 48>
| 49> #Run DFT-D3 single point of the particle with dimer basis set
| 50> $new_job
| 51> %base "5-104_DFT_B"
| 52> ! wB97X-D3 def2-TZVP TIGHTSCF CHELPG PMODEL
| 53>
| 54> %scf
| 55> MaxIter 1000
| 56> end
| 57>
| 58> * xyz 0 1
| 59>   C                    : 5.879248             6.066946             0.264854
| 60>   O                    : 4.644750             5.484827             0.033709
| 61>   H                    : 3.940731             6.087676             0.317555
| 62>   H                    : 5.948655             7.172369             0.120098
| 63>   H                    : 6.144315             5.944105             1.290748
| 64>   H                    : 6.708963             5.622361             -0.348714
| 65>   C                      8.147362             3.621650             -3.749684
| 66>   O                      8.053980             4.057583             -2.454928
| 67>   H                      7.472880             3.409524             -2.063040
| 68>   H                      7.820027             2.626620             -3.885421
| 69>   H                      7.487367             4.180078             -4.434288
| 70>   H                      9.216773             3.642630             -4.117676
| 71> *
| 72>
| 73>                          ****END OF INPUT****
 Total Charge           Charge          ....    0
 Multiplicity           Mult            ....    1
 Number of Electrons    NEL             ....   36
Dispersion correction           -0.001064254
FINAL SINGLE POINT ENERGY      -231.464755059607
Dispersion correction           -0.000244969
FINAL SINGLE POINT ENERGY      -115.732660026813

CARTESIAN COORDINATES (ANGSTROEM)
---------------------------------
  C      5.879248    6.066946    0.264854
  O      4.644750    5.484827    0.033709
  H      3.940731    6.087676    0.317555
  H      5.948655    7.172369    0.120098
  H      6.144315    5.944105    1.290748
  H      6.708963    5.622361   -0.348714
  C      8.147362    3.621650   -3.749684
  O      8.053980    4.057583   -2.454928
  H      7.472880    3.409524   -2.063040
  H      7.820027    2.626620   -3.885421
  H      7.487367    4.180078   -4.434288
  H      9.216773    3.642630   -4.117676

 Multiplicity           Mult            ....    1
 Number of Electrons    NEL             ....   18
 Basis Dimension        Dim             ....  172

ORBITAL ENERGIES
----------------

  NO   OCC          E(Eh)            E(eV)
   0   2.0000     -19.233789      -523.3780
   1   2.0000     -10.310025      -280.5500
   2   2.0000      -1.158017       -31.5112
   3   2.0000      -0.791819       -21.5465
   4   2.0000      -0.627953       -17.0875
   5   2.0000      -0.545502       -14.8439
   6   2.0000      -0.528960       -14.3937
   7   2.0000      -0.436661       -11.8821
   8   2.0000      -0.373131       -10.1534
   9   0.0000       0.089959         2.4479
  10   0.0000       0.115979         3.1559
  11   0.0000       0.154410         4.2017
  12   0.0000       0.174030         4.7356
  13   0.0000       0.193752         5.2723

MULLIKEN ATOMIC CHARGES
-----------------------
   0 C :    0.000868
   1 O :    0.000186
   2 H :    0.000015
   3 H :   -0.000034
   4 H :   -0.000150
   5 H :   -0.006203
   6 C :   -0.165894
   7 O :   -0.444533
   8 H :    0.318796
   9 H :    0.101272
  10 H :    0.090737
  11 H :    0.104941
Sum of atomic charges:   -0.0000000

LOEWDIN ATOMIC CHARGES
----------------------
   0 C :   -0.001454
   1 O :   -0.000029
   2 H :   -0.000001
   3 H :   -0.000010
   4 H :   -0.000014
   5 H :   -0.004535
   6 C :   -0.426429
   7 O :   -0.034636
   8 H :    0.176044
   9 H :    0.086161
  10 H :    0.095099
  11 H :    0.109804

  Mayer bond orders larger than 0.1
B(  6-C ,  7-O ) :   1.0157 B(  6-C ,  9-H ) :   0.9872 B(  6-C , 10-H ) :   0.9733
B(  6-C , 11-H ) :   0.9750 B(  7-O ,  8-H ) :   0.8989

Dispersion correction           -0.000222055
FINAL SINGLE POINT ENERGY      -115.730334208117

DIPOLE MOMENT
-------------
                                X             Y             Z
Electronic contribution:     -0.03698       0.70814       1.80440
Nuclear contribution   :     -0.31128      -1.32815      -2.00805
                        -----------------------------------------
Total Dipole Moment    :     -0.34826      -0.62001      -0.20366
                        -----------------------------------------
Magnitude (a.u.)       :      0.73971
Magnitude (Debye)      :      1.88019

Rotational constants in cm-1:     4.309874     0.874608     0.844712
Rotational constants in MHz : 129206.778709 26220.086135 25323.813717

                             ****ORCA TERMINATED NORMALLY****
TOTAL RUN TIME: 0 days 0 hours 0 minutes 56 seconds 677 msec
