                         Program Version 4.1.2  - RELEASE  -
|  1> #Run DFT-D3 single point of the dimer
|  2> ! wB97X-D3 def2-TZVP TIGHTSCF CHELPG PMODEL PAL8
|  3>
|  4> %base "20-204_DFT_AB"
|  5>
|  6> %scf
|  7> MaxIter 1000
|  8> end
|  9>
| 10> * xyz 0 1
| 11>   C                      -7.108575            6.913722             -0.857616
| 12>   O                      -5.910933            6.151993             -0.758104
| 13>   H                      -6.108608            5.514156             0.021846
| 14>   H                      -8.052278            6.348833             -0.737678
| 15>   H                      -7.212517            7.592448             -0.076732
| 16>   H                      -7.252339            7.360240             -1.857203
| 17>   C                      -5.437243            2.893795             0.003744
| 18>   O                      -6.339473            3.830913             0.590663
| 19>   H                      -6.962244            3.262412             1.060430
| 20>   H                      -4.843288            2.338916             0.754672
| 21>   H                      -6.034146            2.131542             -0.547641
| 22>   H                      -4.777210            3.354782             -0.710811
| 23> *
| 24>
| 25> #Run DFT-D3 single point of the molecule with dimer basis set
| 26> $new_job
| 27> %base "20-204_DFT_A"
| 28> ! wB97X-D3 def2-TZVP TIGHTSCF CHELPG PMODEL
| 29>
| 30> %scf
| 31> MaxIter 1000
| 32> end
| 33>
| 34> * xyz 0 1
| 35>   C                      -7.108575            6.913722             -0.857616
| 36>   O                      -5.910933            6.151993             -0.758104
| 37>   H                      -6.108608            5.514156             0.021846
| 38>   H                      -8.052278            6.348833             -0.737678
| 39>   H                      -7.212517            7.592448             -0.076732
| 40>   H                      -7.252339            7.360240             -1.857203
| 41>   C                    : -5.437243            2.893795             0.003744
| 42>   O                    : -6.339473            3.830913             0.590663
| 43>   H                    : -6.962244            3.262412             1.060430
| 44>   H                    : -4.843288            2.338916             0.754672
| 45>   H                    : -6.034146            2.131542             -0.547641
| 46>   H                    : -4.777210            3.354782             -0.710811
| 47> *
| 48>
| 49> #Run DFT-D3 single point of the particle with dimer basis set
| 50> $new_job
| 51> %base "20-204_DFT_B"
| 52> ! wB97X-D3 def2-TZVP TIGHTSCF CHELPG PMODEL
| 53>
| 54> %scf
| 55> MaxIter 1000
| 56> end
| 57>
| 58> * xyz 0 1
| 59>   C                    : -7.108575            6.913722             -0.857616
| 60>   O                    : -5.910933            6.151993             -0.758104
| 61>   H                    : -6.108608            5.514156             0.021846
| 62>   H                    : -8.052278            6.348833             -0.737678
| 63>   H                    : -7.212517            7.592448             -0.076732
| 64>   H                    : -7.252339            7.360240             -1.857203
| 65>   C                      -5.437243            2.893795             0.003744
| 66>   O                      -6.339473            3.830913             0.590663
| 67>   H                      -6.962244            3.262412             1.060430
| 68>   H                      -4.843288            2.338916             0.754672
| 69>   H                      -6.034146            2.131542             -0.547641
| 70>   H                      -4.777210            3.354782             -0.710811
| 71> *
| 72>
| 73>                          ****END OF INPUT****
 Total Charge           Charge          ....    0
 Multiplicity           Mult            ....    1
 Number of Electrons    NEL             ....   36
Dispersion correction           -0.001750365
FINAL SINGLE POINT ENERGY      -231.469507252837
Dispersion correction           -0.000243016
FINAL SINGLE POINT ENERGY      -115.726240024347

CARTESIAN COORDINATES (ANGSTROEM)
---------------------------------
  C     -7.108575    6.913722   -0.857616
  O     -5.910933    6.151993   -0.758104
  H     -6.108608    5.514156    0.021846
  H     -8.052278    6.348833   -0.737678
  H     -7.212517    7.592448   -0.076732
  H     -7.252339    7.360240   -1.857203
  C     -5.437243    2.893795    0.003744
  O     -6.339473    3.830913    0.590663
  H     -6.962244    3.262412    1.060430
  H     -4.843288    2.338916    0.754672
  H     -6.034146    2.131542   -0.547641
  H     -4.777210    3.354782   -0.710811

 Multiplicity           Mult            ....    1
 Number of Electrons    NEL             ....   18
 Basis Dimension        Dim             ....  172

ORBITAL ENERGIES
----------------

  NO   OCC          E(Eh)            E(eV)
   0   2.0000     -19.233689      -523.3753
   1   2.0000     -10.316767      -280.7335
   2   2.0000      -1.135814       -30.9071
   3   2.0000      -0.793047       -21.5799
   4   2.0000      -0.607340       -16.5266
   5   2.0000      -0.537935       -14.6379
   6   2.0000      -0.530199       -14.4274
   7   2.0000      -0.441275       -12.0077
   8   2.0000      -0.373802       -10.1717
   9   0.0000       0.099257         2.7009
  10   0.0000       0.122206         3.3254
  11   0.0000       0.153303         4.1716
  12   0.0000       0.186266         5.0685
  13   0.0000       0.200347         5.4517

MULLIKEN ATOMIC CHARGES
-----------------------
   0 C :    0.002029
   1 O :    0.001466
   2 H :   -0.011253
   3 H :   -0.003054
   4 H :   -0.000542
   5 H :   -0.000055
   6 C :   -0.172655
   7 O :   -0.454855
   8 H :    0.310509
   9 H :    0.102290
  10 H :    0.099232
  11 H :    0.126888
Sum of atomic charges:    0.0000000

LOEWDIN ATOMIC CHARGES
----------------------
   0 C :   -0.003907
   1 O :   -0.006840
   2 H :   -0.053418
   3 H :   -0.001347
   4 H :   -0.000073
   5 H :   -0.000028
   6 C :   -0.374547
   7 O :   -0.034053
   8 H :    0.173629
   9 H :    0.096847
  10 H :    0.098952
  11 H :    0.104786

  Mayer bond orders larger than 0.1
B(  6-C ,  7-O ) :   0.9862 B(  6-C ,  9-H ) :   0.9694 B(  6-C , 10-H ) :   0.9802
B(  6-C , 11-H ) :   0.9758 B(  7-O ,  8-H ) :   0.9005

Dispersion correction           -0.000231024
FINAL SINGLE POINT ENERGY      -115.735247013895

DIPOLE MOMENT
-------------
                                X             Y             Z
Electronic contribution:     -0.99768       1.42542       0.69824
Nuclear contribution   :      0.97250      -2.14862      -0.65142
                        -----------------------------------------
Total Dipole Moment    :     -0.02518      -0.72319       0.04682
                        -----------------------------------------
Magnitude (a.u.)       :      0.72514
Magnitude (Debye)      :      1.84316

Rotational constants in cm-1:     4.218667     0.822877     0.791811
Rotational constants in MHz : 126472.466982 24669.227570 23737.893476

                             ****ORCA TERMINATED NORMALLY****
TOTAL RUN TIME: 0 days 0 hours 1 minutes 1 seconds 624 msec
