                         Program Version 4.1.2  - RELEASE  -
|  1> #Run DFT-D3 single point of the dimer
|  2> ! wB97X-D3 def2-TZVP TIGHTSCF CHELPG PMODEL PAL8
|  3>
|  4> %base "3-39_DFT_AB"
|  5>
|  6> %scf
|  7> MaxIter 1000
|  8> end
|  9>
| 10> * xyz 0 1
| 11>   C                      -3.289817            3.839313             -6.482746
| 12>   O                      -4.185576            4.250906             -7.462851
| 13>   H                      -4.707539            3.455339             -7.545012
| 14>   H                      -3.645948            3.191517             -5.758856
| 15>   H                      -2.405513            3.242529             -6.901142
| 16>   H                      -2.662676            4.632680             -6.020365
| 17>   C                      -4.786953            7.075287             -5.833262
| 18>   O                      -5.413585            8.261123             -5.360470
| 19>   H                      -5.604644            8.063137             -4.449744
| 20>   H                      -4.462483            6.404452             -5.019683
| 21>   H                      -5.419503            6.496374             -6.558865
| 22>   H                      -3.912728            7.235299             -6.455467
| 23> *
| 24>
| 25> #Run DFT-D3 single point of the molecule with dimer basis set
| 26> $new_job
| 27> %base "3-39_DFT_A"
| 28> ! wB97X-D3 def2-TZVP TIGHTSCF CHELPG PMODEL
| 29>
| 30> %scf
| 31> MaxIter 1000
| 32> end
| 33>
| 34> * xyz 0 1
| 35>   C                      -3.289817            3.839313             -6.482746
| 36>   O                      -4.185576            4.250906             -7.462851
| 37>   H                      -4.707539            3.455339             -7.545012
| 38>   H                      -3.645948            3.191517             -5.758856
| 39>   H                      -2.405513            3.242529             -6.901142
| 40>   H                      -2.662676            4.632680             -6.020365
| 41>   C                    : -4.786953            7.075287             -5.833262
| 42>   O                    : -5.413585            8.261123             -5.360470
| 43>   H                    : -5.604644            8.063137             -4.449744
| 44>   H                    : -4.462483            6.404452             -5.019683
| 45>   H                    : -5.419503            6.496374             -6.558865
| 46>   H                    : -3.912728            7.235299             -6.455467
| 47> *
| 48>
| 49> #Run DFT-D3 single point of the particle with dimer basis set
| 50> $new_job
| 51> %base "3-39_DFT_B"
| 52> ! wB97X-D3 def2-TZVP TIGHTSCF CHELPG PMODEL
| 53>
| 54> %scf
| 55> MaxIter 1000
| 56> end
| 57>
| 58> * xyz 0 1
| 59>   C                    : -3.289817            3.839313             -6.482746
| 60>   O                    : -4.185576            4.250906             -7.462851
| 61>   H                    : -4.707539            3.455339             -7.545012
| 62>   H                    : -3.645948            3.191517             -5.758856
| 63>   H                    : -2.405513            3.242529             -6.901142
| 64>   H                    : -2.662676            4.632680             -6.020365
| 65>   C                      -4.786953            7.075287             -5.833262
| 66>   O                      -5.413585            8.261123             -5.360470
| 67>   H                      -5.604644            8.063137             -4.449744
| 68>   H                      -4.462483            6.404452             -5.019683
| 69>   H                      -5.419503            6.496374             -6.558865
| 70>   H                      -3.912728            7.235299             -6.455467
| 71> *
| 72>
| 73>                          ****END OF INPUT****
 Total Charge           Charge          ....    0
 Multiplicity           Mult            ....    1
 Number of Electrons    NEL             ....   36
Dispersion correction           -0.001974631
FINAL SINGLE POINT ENERGY      -231.457545662582
Dispersion correction           -0.000235394
FINAL SINGLE POINT ENERGY      -115.723955822532

CARTESIAN COORDINATES (ANGSTROEM)
---------------------------------
  C     -3.289817    3.839313   -6.482746
  O     -4.185576    4.250906   -7.462851
  H     -4.707539    3.455339   -7.545012
  H     -3.645948    3.191517   -5.758856
  H     -2.405513    3.242529   -6.901142
  H     -2.662676    4.632680   -6.020365
  C     -4.786953    7.075287   -5.833262
  O     -5.413585    8.261123   -5.360470
  H     -5.604644    8.063137   -4.449744
  H     -4.462483    6.404452   -5.019683
  H     -5.419503    6.496374   -6.558865
  H     -3.912728    7.235299   -6.455467

 Multiplicity           Mult            ....    1
 Number of Electrons    NEL             ....   18
 Basis Dimension        Dim             ....  172

ORBITAL ENERGIES
----------------

  NO   OCC          E(Eh)            E(eV)
   0   2.0000     -19.235211      -523.4167
   1   2.0000     -10.317452      -280.7521
   2   2.0000      -1.140681       -31.0395
   3   2.0000      -0.795274       -21.6405
   4   2.0000      -0.612975       -16.6799
   5   2.0000      -0.535787       -14.5795
   6   2.0000      -0.527254       -14.3473
   7   2.0000      -0.442002       -12.0275
   8   2.0000      -0.373484       -10.1630
   9   0.0000       0.079289         2.1576
  10   0.0000       0.115094         3.1319
  11   0.0000       0.153517         4.1774
  12   0.0000       0.158577         4.3151
  13   0.0000       0.182914         4.9774

MULLIKEN ATOMIC CHARGES
-----------------------
   0 C :    0.000283
   1 O :    0.000109
   2 H :   -0.000230
   3 H :    0.000037
   4 H :   -0.000071
   5 H :   -0.002124
   6 C :   -0.187635
   7 O :   -0.456193
   8 H :    0.317576
   9 H :    0.107080
  10 H :    0.101438
  11 H :    0.119730
Sum of atomic charges:    0.0000000

LOEWDIN ATOMIC CHARGES
----------------------
   0 C :   -0.005208
   1 O :   -0.003348
   2 H :   -0.000380
   3 H :   -0.000140
   4 H :   -0.000037
   5 H :   -0.001955
   6 C :   -0.391249
   7 O :   -0.071873
   8 H :    0.167559
   9 H :    0.101372
  10 H :    0.103659
  11 H :    0.101599

  Mayer bond orders larger than 0.1
B(  6-C ,  7-O ) :   1.0222 B(  6-C ,  9-H ) :   0.9840 B(  6-C , 10-H ) :   0.9728
B(  6-C , 11-H ) :   0.9738 B(  7-O ,  8-H ) :   0.9027

Dispersion correction           -0.000261904
FINAL SINGLE POINT ENERGY      -115.731920866201

DIPOLE MOMENT
-------------
                                X             Y             Z
Electronic contribution:     -0.82161       1.72011       0.58986
Nuclear contribution   :      0.96335      -2.29672      -0.18628
                        -----------------------------------------
Total Dipole Moment    :      0.14174      -0.57661       0.40358
                        -----------------------------------------
Magnitude (a.u.)       :      0.71795
Magnitude (Debye)      :      1.82488

Rotational constants in cm-1:     4.359232     0.818498     0.782270
Rotational constants in MHz : 130686.493442 24537.940764 23451.875619

                             ****ORCA TERMINATED NORMALLY****
TOTAL RUN TIME: 0 days 0 hours 6 minutes 23 seconds 422 msec
