                         Program Version 4.1.2  - RELEASE  -
|  1> #Run DFT-D3 single point of the dimer
|  2> ! wB97X-D3 def2-TZVP TIGHTSCF CHELPG PMODEL PAL8
|  3>
|  4> %base "14-205_DFT_AB"
|  5>
|  6> %scf
|  7> MaxIter 1000
|  8> end
|  9>
| 10> * xyz 0 1
| 11>   C                      4.388726             9.552347             4.107769
| 12>   O                      3.658373             10.791199            3.972399
| 13>   H                      4.131844             11.185046            3.315847
| 14>   H                      5.271606             9.540053             4.751610
| 15>   H                      3.759184             8.694023             4.459924
| 16>   H                      4.778763             9.165243             3.156276
| 17>   C                      2.456449             10.624757            1.053910
| 18>   O                      3.481703             11.687801            1.032869
| 19>   H                      3.267564             12.320007            1.721146
| 20>   H                      2.683307             9.946684             1.924874
| 21>   H                      1.495384             10.964320            1.191709
| 22>   H                      2.427624             9.976466             0.149181
| 23> *
| 24>
| 25> #Run DFT-D3 single point of the molecule with dimer basis set
| 26> $new_job
| 27> %base "14-205_DFT_A"
| 28> ! wB97X-D3 def2-TZVP TIGHTSCF CHELPG PMODEL
| 29>
| 30> %scf
| 31> MaxIter 1000
| 32> end
| 33>
| 34> * xyz 0 1
| 35>   C                      4.388726             9.552347             4.107769
| 36>   O                      3.658373             10.791199            3.972399
| 37>   H                      4.131844             11.185046            3.315847
| 38>   H                      5.271606             9.540053             4.751610
| 39>   H                      3.759184             8.694023             4.459924
| 40>   H                      4.778763             9.165243             3.156276
| 41>   C                    : 2.456449             10.624757            1.053910
| 42>   O                    : 3.481703             11.687801            1.032869
| 43>   H                    : 3.267564             12.320007            1.721146
| 44>   H                    : 2.683307             9.946684             1.924874
| 45>   H                    : 1.495384             10.964320            1.191709
| 46>   H                    : 2.427624             9.976466             0.149181
| 47> *
| 48>
| 49> #Run DFT-D3 single point of the particle with dimer basis set
| 50> $new_job
| 51> %base "14-205_DFT_B"
| 52> ! wB97X-D3 def2-TZVP TIGHTSCF CHELPG PMODEL
| 53>
| 54> %scf
| 55> MaxIter 1000
| 56> end
| 57>
| 58> * xyz 0 1
| 59>   C                    : 4.388726             9.552347             4.107769
| 60>   O                    : 3.658373             10.791199            3.972399
| 61>   H                    : 4.131844             11.185046            3.315847
| 62>   H                    : 5.271606             9.540053             4.751610
| 63>   H                    : 3.759184             8.694023             4.459924
| 64>   H                    : 4.778763             9.165243             3.156276
| 65>   C                      2.456449             10.624757            1.053910
| 66>   O                      3.481703             11.687801            1.032869
| 67>   H                      3.267564             12.320007            1.721146
| 68>   H                      2.683307             9.946684             1.924874
| 69>   H                      1.495384             10.964320            1.191709
| 70>   H                      2.427624             9.976466             0.149181
| 71> *
| 72>
| 73>                          ****END OF INPUT****
 Total Charge           Charge          ....    0
 Multiplicity           Mult            ....    1
 Number of Electrons    NEL             ....   36
Dispersion correction           -0.002230329
FINAL SINGLE POINT ENERGY      -231.458623924407
Dispersion correction           -0.000264577
FINAL SINGLE POINT ENERGY      -115.726840388592

CARTESIAN COORDINATES (ANGSTROEM)
---------------------------------
  C      4.388726    9.552347    4.107769
  O      3.658373   10.791199    3.972399
  H      4.131844   11.185046    3.315847
  H      5.271606    9.540053    4.751610
  H      3.759184    8.694023    4.459924
  H      4.778763    9.165243    3.156276
  C      2.456449   10.624757    1.053910
  O      3.481703   11.687801    1.032869
  H      3.267564   12.320007    1.721146
  H      2.683307    9.946684    1.924874
  H      1.495384   10.964320    1.191709
  H      2.427624    9.976466    0.149181

 Multiplicity           Mult            ....    1
 Number of Electrons    NEL             ....   18
 Basis Dimension        Dim             ....  172

ORBITAL ENERGIES
----------------

  NO   OCC          E(Eh)            E(eV)
   0   2.0000     -19.232469      -523.3421
   1   2.0000     -10.318008      -280.7673
   2   2.0000      -1.119476       -30.4625
   3   2.0000      -0.802053       -21.8250
   4   2.0000      -0.604246       -16.4424
   5   2.0000      -0.532178       -14.4813
   6   2.0000      -0.523175       -14.2363
   7   2.0000      -0.439665       -11.9639
   8   2.0000      -0.375569       -10.2197
   9   0.0000       0.085171         2.3176
  10   0.0000       0.124477         3.3872
  11   0.0000       0.147474         4.0130
  12   0.0000       0.185505         5.0479
  13   0.0000       0.190792         5.1917

MULLIKEN ATOMIC CHARGES
-----------------------
   0 C :    0.006378
   1 O :    0.001465
   2 H :   -0.014770
   3 H :    0.000135
   4 H :   -0.001060
   5 H :    0.000007
   6 C :   -0.180246
   7 O :   -0.471293
   8 H :    0.314767
   9 H :    0.090845
  10 H :    0.125193
  11 H :    0.128578
Sum of atomic charges:   -0.0000000

LOEWDIN ATOMIC CHARGES
----------------------
   0 C :   -0.008530
   1 O :   -0.008284
   2 H :   -0.015595
   3 H :   -0.000071
   4 H :   -0.000525
   5 H :   -0.001526
   6 C :   -0.333070
   7 O :   -0.104141
   8 H :    0.164697
   9 H :    0.111442
  10 H :    0.081140
  11 H :    0.114463

  Mayer bond orders larger than 0.1
B(  6-C ,  7-O ) :   0.9941 B(  6-C ,  9-H ) :   0.9843 B(  6-C , 10-H ) :   0.9758
B(  6-C , 11-H ) :   0.9738 B(  7-O ,  8-H ) :   0.8998

Dispersion correction           -0.000271917
FINAL SINGLE POINT ENERGY      -115.728671599840

DIPOLE MOMENT
-------------
                                X             Y             Z
Electronic contribution:      1.26459       1.35769      -0.24621
Nuclear contribution   :     -1.87409      -1.40335       0.67145
                        -----------------------------------------
Total Dipole Moment    :     -0.60951      -0.04566       0.42524
                        -----------------------------------------
Magnitude (a.u.)       :      0.74458
Magnitude (Debye)      :      1.89258

Rotational constants in cm-1:     4.410352     0.766948     0.742407
Rotational constants in MHz : 132219.019917 22992.524193 22256.805819

                             ****ORCA TERMINATED NORMALLY****
TOTAL RUN TIME: 0 days 0 hours 1 minutes 9 seconds 867 msec
