                         Program Version 4.1.2  - RELEASE  -
|  1> #Run DFT-D3 single point of the dimer
|  2> ! wB97X-D3 def2-TZVP TIGHTSCF CHELPG PMODEL PAL8
|  3>
|  4> %base "20-52_DFT_AB"
|  5>
|  6> %scf
|  7> MaxIter 1000
|  8> end
|  9>
| 10> * xyz 0 1
| 11>   C                      10.369788            -1.022027            1.137112
| 12>   O                      9.385676             -0.662923            2.037067
| 13>   H                      8.915815             -1.406507            2.396030
| 14>   H                      9.951602             -1.529467            0.290434
| 15>   H                      10.979370            -0.132618            0.842871
| 16>   H                      10.919377            -1.856796            1.581003
| 17>   C                      8.857592             2.913013             0.492964
| 18>   O                      9.160017             2.336251             1.729233
| 19>   H                      9.061185             1.355895             1.790818
| 20>   H                      8.698384             2.066956             -0.234458
| 21>   H                      8.023771             3.577609             0.547842
| 22>   H                      9.634283             3.496865             0.198177
| 23> *
| 24>
| 25> #Run DFT-D3 single point of the molecule with dimer basis set
| 26> $new_job
| 27> %base "20-52_DFT_A"
| 28> ! wB97X-D3 def2-TZVP TIGHTSCF CHELPG PMODEL
| 29>
| 30> %scf
| 31> MaxIter 1000
| 32> end
| 33>
| 34> * xyz 0 1
| 35>   C                      10.369788            -1.022027            1.137112
| 36>   O                      9.385676             -0.662923            2.037067
| 37>   H                      8.915815             -1.406507            2.396030
| 38>   H                      9.951602             -1.529467            0.290434
| 39>   H                      10.979370            -0.132618            0.842871
| 40>   H                      10.919377            -1.856796            1.581003
| 41>   C                    : 8.857592             2.913013             0.492964
| 42>   O                    : 9.160017             2.336251             1.729233
| 43>   H                    : 9.061185             1.355895             1.790818
| 44>   H                    : 8.698384             2.066956             -0.234458
| 45>   H                    : 8.023771             3.577609             0.547842
| 46>   H                    : 9.634283             3.496865             0.198177
| 47> *
| 48>
| 49> #Run DFT-D3 single point of the particle with dimer basis set
| 50> $new_job
| 51> %base "20-52_DFT_B"
| 52> ! wB97X-D3 def2-TZVP TIGHTSCF CHELPG PMODEL
| 53>
| 54> %scf
| 55> MaxIter 1000
| 56> end
| 57>
| 58> * xyz 0 1
| 59>   C                    : 10.369788            -1.022027            1.137112
| 60>   O                    : 9.385676             -0.662923            2.037067
| 61>   H                    : 8.915815             -1.406507            2.396030
| 62>   H                    : 9.951602             -1.529467            0.290434
| 63>   H                    : 10.979370            -0.132618            0.842871
| 64>   H                    : 10.919377            -1.856796            1.581003
| 65>   C                      8.857592             2.913013             0.492964
| 66>   O                      9.160017             2.336251             1.729233
| 67>   H                      9.061185             1.355895             1.790818
| 68>   H                      8.698384             2.066956             -0.234458
| 69>   H                      8.023771             3.577609             0.547842
| 70>   H                      9.634283             3.496865             0.198177
| 71> *
| 72>
| 73>                          ****END OF INPUT****
 Total Charge           Charge          ....    0
 Multiplicity           Mult            ....    1
 Number of Electrons    NEL             ....   36
Dispersion correction           -0.001746249
FINAL SINGLE POINT ENERGY      -231.465288379288
Dispersion correction           -0.000216196
FINAL SINGLE POINT ENERGY      -115.730109800046

CARTESIAN COORDINATES (ANGSTROEM)
---------------------------------
  C     10.369788   -1.022027    1.137112
  O      9.385676   -0.662923    2.037067
  H      8.915815   -1.406507    2.396030
  H      9.951602   -1.529467    0.290434
  H     10.979370   -0.132618    0.842871
  H     10.919377   -1.856796    1.581003
  C      8.857592    2.913013    0.492964
  O      9.160017    2.336251    1.729233
  H      9.061185    1.355895    1.790818
  H      8.698384    2.066956   -0.234458
  H      8.023771    3.577609    0.547842
  H      9.634283    3.496865    0.198177

 Multiplicity           Mult            ....    1
 Number of Electrons    NEL             ....   18
 Basis Dimension        Dim             ....  172

ORBITAL ENERGIES
----------------

  NO   OCC          E(Eh)            E(eV)
   0   2.0000     -19.225306      -523.1472
   1   2.0000     -10.304251      -280.3929
   2   2.0000      -1.129558       -30.7368
   3   2.0000      -0.802015       -21.8239
   4   2.0000      -0.607120       -16.5206
   5   2.0000      -0.545155       -14.8344
   6   2.0000      -0.544026       -14.8037
   7   2.0000      -0.417998       -11.3743
   8   2.0000      -0.369633       -10.0582
   9   0.0000       0.068125         1.8538
  10   0.0000       0.134904         3.6709
  11   0.0000       0.145316         3.9542
  12   0.0000       0.170160         4.6303
  13   0.0000       0.187520         5.1027

MULLIKEN ATOMIC CHARGES
-----------------------
   0 C :   -0.003601
   1 O :    0.000200
   2 H :    0.000032
   3 H :    0.000210
   4 H :   -0.003306
   5 H :   -0.000331
   6 C :   -0.137145
   7 O :   -0.491152
   8 H :    0.318253
   9 H :    0.094366
  10 H :    0.104117
  11 H :    0.118356
Sum of atomic charges:   -0.0000000

LOEWDIN ATOMIC CHARGES
----------------------
   0 C :   -0.006483
   1 O :   -0.013473
   2 H :   -0.000653
   3 H :   -0.000084
   4 H :   -0.002803
   5 H :   -0.000132
   6 C :   -0.377841
   7 O :   -0.073693
   8 H :    0.191532
   9 H :    0.105735
  10 H :    0.093921
  11 H :    0.083974

  Mayer bond orders larger than 0.1
B(  6-C ,  7-O ) :   0.9893 B(  6-C ,  9-H ) :   0.9913 B(  6-C , 10-H ) :   0.9794
B(  6-C , 11-H ) :   0.9761 B(  7-O ,  8-H ) :   0.8970

Dispersion correction           -0.000239322
FINAL SINGLE POINT ENERGY      -115.726660186627

DIPOLE MOMENT
-------------
                                X             Y             Z
Electronic contribution:      0.40162      -0.51202       1.56570
Nuclear contribution   :     -0.57488       0.12997      -2.03642
                        -----------------------------------------
Total Dipole Moment    :     -0.17327      -0.38205      -0.47072
                        -----------------------------------------
Magnitude (a.u.)       :      0.63052
Magnitude (Debye)      :      1.60266

Rotational constants in cm-1:     4.457321     0.852839     0.810858
Rotational constants in MHz : 133627.112437 25567.474052 24308.911196

                             ****ORCA TERMINATED NORMALLY****
TOTAL RUN TIME: 0 days 0 hours 1 minutes 9 seconds 741 msec
