                         Program Version 4.1.2  - RELEASE  -
|  1> #Run DFT-D3 single point of the dimer
|  2> ! wB97X-D3 def2-TZVP TIGHTSCF CHELPG PMODEL PAL8
|  3>
|  4> %base "12-64_DFT_AB"
|  5>
|  6> %scf
|  7> MaxIter 1000
|  8> end
|  9>
| 10> * xyz 0 1
| 11>   C                      6.939438             8.381128             7.470866
| 12>   O                      6.725867             7.125149             6.925908
| 13>   H                      6.458362             6.563001             7.707976
| 14>   H                      6.795791             9.090185             6.659182
| 15>   H                      6.342889             8.682943             8.259780
| 16>   H                      7.982865             8.432314             7.760599
| 17>   C                      2.788778             7.113822             10.181854
| 18>   O                      3.801655             6.976364             9.220775
| 19>   H                      4.465584             6.400968             9.529224
| 20>   H                      2.109126             6.241315             10.280435
| 21>   H                      3.263922             7.233564             11.141851
| 22>   H                      2.128043             7.959936             9.959660
| 23> *
| 24>
| 25> #Run DFT-D3 single point of the molecule with dimer basis set
| 26> $new_job
| 27> %base "12-64_DFT_A"
| 28> ! wB97X-D3 def2-TZVP TIGHTSCF CHELPG PMODEL
| 29>
| 30> %scf
| 31> MaxIter 1000
| 32> end
| 33>
| 34> * xyz 0 1
| 35>   C                      6.939438             8.381128             7.470866
| 36>   O                      6.725867             7.125149             6.925908
| 37>   H                      6.458362             6.563001             7.707976
| 38>   H                      6.795791             9.090185             6.659182
| 39>   H                      6.342889             8.682943             8.259780
| 40>   H                      7.982865             8.432314             7.760599
| 41>   C                    : 2.788778             7.113822             10.181854
| 42>   O                    : 3.801655             6.976364             9.220775
| 43>   H                    : 4.465584             6.400968             9.529224
| 44>   H                    : 2.109126             6.241315             10.280435
| 45>   H                    : 3.263922             7.233564             11.141851
| 46>   H                    : 2.128043             7.959936             9.959660
| 47> *
| 48>
| 49> #Run DFT-D3 single point of the particle with dimer basis set
| 50> $new_job
| 51> %base "12-64_DFT_B"
| 52> ! wB97X-D3 def2-TZVP TIGHTSCF CHELPG PMODEL
| 53>
| 54> %scf
| 55> MaxIter 1000
| 56> end
| 57>
| 58> * xyz 0 1
| 59>   C                    : 6.939438             8.381128             7.470866
| 60>   O                    : 6.725867             7.125149             6.925908
| 61>   H                    : 6.458362             6.563001             7.707976
| 62>   H                    : 6.795791             9.090185             6.659182
| 63>   H                    : 6.342889             8.682943             8.259780
| 64>   H                    : 7.982865             8.432314             7.760599
| 65>   C                      2.788778             7.113822             10.181854
| 66>   O                      3.801655             6.976364             9.220775
| 67>   H                      4.465584             6.400968             9.529224
| 68>   H                      2.109126             6.241315             10.280435
| 69>   H                      3.263922             7.233564             11.141851
| 70>   H                      2.128043             7.959936             9.959660
| 71> *
| 72>
| 73>                          ****END OF INPUT****
 Total Charge           Charge          ....    0
 Multiplicity           Mult            ....    1
 Number of Electrons    NEL             ....   36
Dispersion correction           -0.001342015
FINAL SINGLE POINT ENERGY      -231.464051266917
Dispersion correction           -0.000215229
FINAL SINGLE POINT ENERGY      -115.729740599071

CARTESIAN COORDINATES (ANGSTROEM)
---------------------------------
  C      6.939438    8.381128    7.470866
  O      6.725867    7.125149    6.925908
  H      6.458362    6.563001    7.707976
  H      6.795791    9.090185    6.659182
  H      6.342889    8.682943    8.259780
  H      7.982865    8.432314    7.760599
  C      2.788778    7.113822   10.181854
  O      3.801655    6.976364    9.220775
  H      4.465584    6.400968    9.529224
  H      2.109126    6.241315   10.280435
  H      3.263922    7.233564   11.141851
  H      2.128043    7.959936    9.959660

 Multiplicity           Mult            ....    1
 Number of Electrons    NEL             ....   18
 Basis Dimension        Dim             ....  172

ORBITAL ENERGIES
----------------

  NO   OCC          E(Eh)            E(eV)
   0   2.0000     -19.227557      -523.2084
   1   2.0000     -10.313270      -280.6383
   2   2.0000      -1.144661       -31.1478
   3   2.0000      -0.799253       -21.7488
   4   2.0000      -0.618896       -16.8410
   5   2.0000      -0.543972       -14.8022
   6   2.0000      -0.529686       -14.4135
   7   2.0000      -0.432861       -11.7788
   8   2.0000      -0.372493       -10.1361
   9   0.0000       0.092105         2.5063
  10   0.0000       0.125330         3.4104
  11   0.0000       0.151722         4.1286
  12   0.0000       0.184621         5.0238
  13   0.0000       0.202174         5.5014

MULLIKEN ATOMIC CHARGES
-----------------------
   0 C :    0.003383
   1 O :   -0.000022
   2 H :   -0.001201
   3 H :   -0.000164
   4 H :   -0.007156
   5 H :   -0.000151
   6 C :   -0.161975
   7 O :   -0.465921
   8 H :    0.313680
   9 H :    0.095022
  10 H :    0.102432
  11 H :    0.122074
Sum of atomic charges:   -0.0000000

LOEWDIN ATOMIC CHARGES
----------------------
   0 C :   -0.002430
   1 O :   -0.000233
   2 H :   -0.001573
   3 H :   -0.000023
   4 H :   -0.003209
   5 H :   -0.000020
   6 C :   -0.389834
   7 O :   -0.051014
   8 H :    0.151450
   9 H :    0.094961
  10 H :    0.092432
  11 H :    0.109494

  Mayer bond orders larger than 0.1
B(  6-C ,  7-O ) :   0.9992 B(  6-C ,  9-H ) :   0.9676 B(  6-C , 10-H ) :   0.9879
B(  6-C , 11-H ) :   0.9743 B(  7-O ,  8-H ) :   0.9009

Dispersion correction           -0.000238967
FINAL SINGLE POINT ENERGY      -115.734535355265

DIPOLE MOMENT
-------------
                                X             Y             Z
Electronic contribution:      1.25334      -0.06205      -1.34826
Nuclear contribution   :     -1.22520      -0.25123       1.94435
                        -----------------------------------------
Total Dipole Moment    :      0.02814      -0.31329       0.59608
                        -----------------------------------------
Magnitude (a.u.)       :      0.67398
Magnitude (Debye)      :      1.71313

Rotational constants in cm-1:     4.417692     0.838872     0.807034
Rotational constants in MHz : 132439.071103 25148.735778 24194.285003

                             ****ORCA TERMINATED NORMALLY****
TOTAL RUN TIME: 0 days 0 hours 1 minutes 2 seconds 222 msec
