                         Program Version 4.1.2  - RELEASE  -
|  1> #Run DFT-D3 single point of the dimer
|  2> ! wB97X-D3 def2-TZVP TIGHTSCF CHELPG PMODEL PAL8
|  3>
|  4> %base "6-48_DFT_AB"
|  5>
|  6> %scf
|  7> MaxIter 1000
|  8> end
|  9>
| 10> * xyz 0 1
| 11>   C                      -8.291909            -9.824663            -9.417989
| 12>   O                      -7.835395            -10.309451           -10.671300
| 13>   H                      -6.842935            -10.248512           -10.710201
| 14>   H                      -8.071282            -8.713678            -9.406191
| 15>   H                      -9.310220            -9.973369            -9.239578
| 16>   H                      -7.730536            -10.313792           -8.609002
| 17>   C                      -10.750519           -6.381352            -5.604903
| 18>   O                      -10.213639           -5.480661            -4.654505
| 19>   H                      -9.521781            -5.891960            -4.244699
| 20>   H                      -10.805629           -7.369471            -5.134874
| 21>   H                      -11.775779           -6.086972            -5.966122
| 22>   H                      -10.058421           -6.485237            -6.413855
| 23> *
| 24>
| 25> #Run DFT-D3 single point of the molecule with dimer basis set
| 26> $new_job
| 27> %base "6-48_DFT_A"
| 28> ! wB97X-D3 def2-TZVP TIGHTSCF CHELPG PMODEL
| 29>
| 30> %scf
| 31> MaxIter 1000
| 32> end
| 33>
| 34> * xyz 0 1
| 35>   C                      -8.291909            -9.824663            -9.417989
| 36>   O                      -7.835395            -10.309451           -10.671300
| 37>   H                      -6.842935            -10.248512           -10.710201
| 38>   H                      -8.071282            -8.713678            -9.406191
| 39>   H                      -9.310220            -9.973369            -9.239578
| 40>   H                      -7.730536            -10.313792           -8.609002
| 41>   C                    : -10.750519           -6.381352            -5.604903
| 42>   O                    : -10.213639           -5.480661            -4.654505
| 43>   H                    : -9.521781            -5.891960            -4.244699
| 44>   H                    : -10.805629           -7.369471            -5.134874
| 45>   H                    : -11.775779           -6.086972            -5.966122
| 46>   H                    : -10.058421           -6.485237            -6.413855
| 47> *
| 48>
| 49> #Run DFT-D3 single point of the particle with dimer basis set
| 50> $new_job
| 51> %base "6-48_DFT_B"
| 52> ! wB97X-D3 def2-TZVP TIGHTSCF CHELPG PMODEL
| 53>
| 54> %scf
| 55> MaxIter 1000
| 56> end
| 57>
| 58> * xyz 0 1
| 59>   C                    : -8.291909            -9.824663            -9.417989
| 60>   O                    : -7.835395            -10.309451           -10.671300
| 61>   H                    : -6.842935            -10.248512           -10.710201
| 62>   H                    : -8.071282            -8.713678            -9.406191
| 63>   H                    : -9.310220            -9.973369            -9.239578
| 64>   H                    : -7.730536            -10.313792           -8.609002
| 65>   C                      -10.750519           -6.381352            -5.604903
| 66>   O                      -10.213639           -5.480661            -4.654505
| 67>   H                      -9.521781            -5.891960            -4.244699
| 68>   H                      -10.805629           -7.369471            -5.134874
| 69>   H                      -11.775779           -6.086972            -5.966122
| 70>   H                      -10.058421           -6.485237            -6.413855
| 71> *
| 72>
| 73>                          ****END OF INPUT****
 Total Charge           Charge          ....    0
 Multiplicity           Mult            ....    1
 Number of Electrons    NEL             ....   36
Dispersion correction           -0.000588722
FINAL SINGLE POINT ENERGY      -231.461547607702
Dispersion correction           -0.000234114
FINAL SINGLE POINT ENERGY      -115.731222566396

CARTESIAN COORDINATES (ANGSTROEM)
---------------------------------
  C     -8.291909   -9.824663   -9.417989
  O     -7.835395  -10.309451  -10.671300
  H     -6.842935  -10.248512  -10.710201
  H     -8.071282   -8.713678   -9.406191
  H     -9.310220   -9.973369   -9.239578
  H     -7.730536  -10.313792   -8.609002
  C    -10.750519   -6.381352   -5.604903
  O    -10.213639   -5.480661   -4.654505
  H     -9.521781   -5.891960   -4.244699
  H    -10.805629   -7.369471   -5.134874
  H    -11.775779   -6.086972   -5.966122
  H    -10.058421   -6.485237   -6.413855

 Multiplicity           Mult            ....    1
 Number of Electrons    NEL             ....   18
 Basis Dimension        Dim             ....  172

ORBITAL ENERGIES
----------------

  NO   OCC          E(Eh)            E(eV)
   0   2.0000     -19.221723      -523.0497
   1   2.0000     -10.315495      -280.6989
   2   2.0000      -1.147291       -31.2194
   3   2.0000      -0.798947       -21.7405
   4   2.0000      -0.617118       -16.7926
   5   2.0000      -0.544147       -14.8070
   6   2.0000      -0.529893       -14.4191
   7   2.0000      -0.434506       -11.8235
   8   2.0000      -0.372567       -10.1381
   9   0.0000       0.082690         2.2501
  10   0.0000       0.118155         3.2152
  11   0.0000       0.147315         4.0086
  12   0.0000       0.169393         4.6094
  13   0.0000       0.185424         5.0457

MULLIKEN ATOMIC CHARGES
-----------------------
   0 C :    0.000019
   1 O :   -0.000001
   2 H :   -0.000000
   3 H :   -0.000079
   4 H :   -0.000013
   5 H :   -0.000006
   6 C :   -0.159404
   7 O :   -0.464771
   8 H :    0.301456
   9 H :    0.100911
  10 H :    0.117915
  11 H :    0.103973
Sum of atomic charges:   -0.0000000

LOEWDIN ATOMIC CHARGES
----------------------
   0 C :   -0.000050
   1 O :   -0.000001
   2 H :   -0.000000
   3 H :   -0.000045
   4 H :   -0.000009
   5 H :   -0.000001
   6 C :   -0.375599
   7 O :   -0.053246
   8 H :    0.129254
   9 H :    0.095734
  10 H :    0.114984
  11 H :    0.088981

  Mayer bond orders larger than 0.1
B(  6-C ,  7-O ) :   0.9881 B(  6-C ,  9-H ) :   0.9870 B(  6-C , 10-H ) :   0.9700
B(  6-C , 11-H ) :   0.9771 B(  7-O ,  8-H ) :   0.9145

Dispersion correction           -0.000219736
FINAL SINGLE POINT ENERGY      -115.730311632920

DIPOLE MOMENT
-------------
                                X             Y             Z
Electronic contribution:      0.55267       1.28664       1.11897
Nuclear contribution   :     -0.31312      -1.93367      -1.23277
                        -----------------------------------------
Total Dipole Moment    :      0.23955      -0.64702      -0.11381
                        -----------------------------------------
Magnitude (a.u.)       :      0.69927
Magnitude (Debye)      :      1.77740

Rotational constants in cm-1:     4.343025     0.838680     0.804539
Rotational constants in MHz : 130200.620528 25142.994858 24119.483482

                             ****ORCA TERMINATED NORMALLY****
TOTAL RUN TIME: 0 days 0 hours 0 minutes 49 seconds 553 msec
