                         Program Version 4.1.2  - RELEASE  -
|  1> #Run DFT-D3 single point of the dimer
|  2> ! wB97X-D3 def2-TZVP TIGHTSCF  CHELPG PAL8
|  3>
|  4> %base "3_charges"
|  5>
|  6> %scf
|  7> MaxIter 1000
|  8> end
|  9> %output
| 10>   Print[ P_Mayer ] 1
| 11>   Print[ P_NatPop ] 1
| 12>   Print[ P_Hirshfeld ] 1
| 13>   Print[ P_Mulliken ] 1
| 14>   Print [ P_Loewdin ] 1
| 15> end
| 16>
| 17> * xyz 0 1
| 18>   C                      7.449275             5.855548             -3.125336
| 19>   O                      6.806401             6.701645             -2.174823
| 20>   H                      7.231785             6.609448             -1.354202
| 21>   H                      7.131053             5.972635             -4.191377
| 22>   H                      8.536819             6.007422             -2.936056
| 23>   H                      7.338949             4.778704             -2.898458
| 24> *
| 25>
| 26>                          ****END OF INPUT****

CARTESIAN COORDINATES (ANGSTROEM)
---------------------------------
  C      7.449275    5.855548   -3.125336
  O      6.806401    6.701645   -2.174823
  H      7.231785    6.609448   -1.354202
  H      7.131053    5.972635   -4.191377
  H      8.536819    6.007422   -2.936056
  H      7.338949    4.778704   -2.898458

 Total Charge           Charge          ....    0
 Multiplicity           Mult            ....    1
 Number of Electrons    NEL             ....   18
 Basis Dimension        Dim             ....   86

ORBITAL ENERGIES
----------------

  NO   OCC          E(Eh)            E(eV)
   0   2.0000     -19.226587      -523.1820
   1   2.0000     -10.321966      -280.8750
   2   2.0000      -1.139159       -30.9981
   3   2.0000      -0.795104       -21.6359
   4   2.0000      -0.614281       -16.7154
   5   2.0000      -0.541063       -14.7231
   6   2.0000      -0.523893       -14.2559
   7   2.0000      -0.435062       -11.8387
   8   2.0000      -0.368852       -10.0370
   9   0.0000       0.114757         3.1227
  10   0.0000       0.152437         4.1480
  11   0.0000       0.200379         5.4526
  12   0.0000       0.201825         5.4919
  13   0.0000       0.224766         6.1162

MULLIKEN ATOMIC CHARGES
-----------------------
   0 C :   -0.181816
   1 O :   -0.469571
   2 H :    0.310873
   3 H :    0.131434
   4 H :    0.106268
   5 H :    0.102811
Sum of atomic charges:   -0.0000000

LOEWDIN ATOMIC CHARGES
----------------------
   0 C :   -0.383054
   1 O :   -0.074180
   2 H :    0.147989
   3 H :    0.114716
   4 H :    0.100594
   5 H :    0.093935

  Mayer bond orders larger than 0.1
B(  0-C ,  1-O ) :   0.9875 B(  0-C ,  3-H ) :   0.9675 B(  0-C ,  4-H ) :   0.9901
B(  0-C ,  5-H ) :   0.9689 B(  1-O ,  2-H ) :   0.9044

Dispersion correction           -0.000241952
FINAL SINGLE POINT ENERGY      -115.728631990778

DIPOLE MOMENT
-------------
                                X             Y             Z
Electronic contribution:     -1.02491       1.21312       1.00456
Nuclear contribution   :      1.56172      -1.62338      -0.85497
                        -----------------------------------------
Total Dipole Moment    :      0.53682      -0.41026       0.14959
                        -----------------------------------------
Magnitude (a.u.)       :      0.69200
Magnitude (Debye)      :      1.75893

Rotational constants in cm-1:     4.294205     0.820809     0.781020
Rotational constants in MHz : 128737.032803 24607.244085 23414.404834

                             ****ORCA TERMINATED NORMALLY****
TOTAL RUN TIME: 0 days 0 hours 0 minutes 42 seconds 26 msec
