                         Program Version 4.1.2  - RELEASE  -
|  1> #Run DFT-D3 single point of the dimer
|  2> ! wB97X-D3 def2-TZVP TIGHTSCF CHELPG PMODEL PAL8
|  3>
|  4> %base "20-217_DFT_AB"
|  5>
|  6> %scf
|  7> MaxIter 1000
|  8> end
|  9>
| 10> * xyz 0 1
| 11>   C                      -6.664363            1.798460             3.947455
| 12>   O                      -7.527145            2.065606             2.932803
| 13>   H                      -7.923853            1.266214             2.581502
| 14>   H                      -5.749684            2.409529             3.868021
| 15>   H                      -7.079226            2.109862             4.910229
| 16>   H                      -6.449338            0.714370             3.869005
| 17>   C                      -9.710998            2.179214             -0.109138
| 18>   O                      -8.860415            1.325623             0.616860
| 19>   H                      -9.517758            0.705625             0.956050
| 20>   H                      -10.707104           2.107641             0.293463
| 21>   H                      -9.473880            3.273409             0.136676
| 22>   H                      -9.885433            2.028384             -1.196129
| 23> *
| 24>
| 25> #Run DFT-D3 single point of the molecule with dimer basis set
| 26> $new_job
| 27> %base "20-217_DFT_A"
| 28> ! wB97X-D3 def2-TZVP TIGHTSCF CHELPG PMODEL
| 29>
| 30> %scf
| 31> MaxIter 1000
| 32> end
| 33>
| 34> * xyz 0 1
| 35>   C                      -6.664363            1.798460             3.947455
| 36>   O                      -7.527145            2.065606             2.932803
| 37>   H                      -7.923853            1.266214             2.581502
| 38>   H                      -5.749684            2.409529             3.868021
| 39>   H                      -7.079226            2.109862             4.910229
| 40>   H                      -6.449338            0.714370             3.869005
| 41>   C                    : -9.710998            2.179214             -0.109138
| 42>   O                    : -8.860415            1.325623             0.616860
| 43>   H                    : -9.517758            0.705625             0.956050
| 44>   H                    : -10.707104           2.107641             0.293463
| 45>   H                    : -9.473880            3.273409             0.136676
| 46>   H                    : -9.885433            2.028384             -1.196129
| 47> *
| 48>
| 49> #Run DFT-D3 single point of the particle with dimer basis set
| 50> $new_job
| 51> %base "20-217_DFT_B"
| 52> ! wB97X-D3 def2-TZVP TIGHTSCF CHELPG PMODEL
| 53>
| 54> %scf
| 55> MaxIter 1000
| 56> end
| 57>
| 58> * xyz 0 1
| 59>   C                    : -6.664363            1.798460             3.947455
| 60>   O                    : -7.527145            2.065606             2.932803
| 61>   H                    : -7.923853            1.266214             2.581502
| 62>   H                    : -5.749684            2.409529             3.868021
| 63>   H                    : -7.079226            2.109862             4.910229
| 64>   H                    : -6.449338            0.714370             3.869005
| 65>   C                      -9.710998            2.179214             -0.109138
| 66>   O                      -8.860415            1.325623             0.616860
| 67>   H                      -9.517758            0.705625             0.956050
| 68>   H                      -10.707104           2.107641             0.293463
| 69>   H                      -9.473880            3.273409             0.136676
| 70>   H                      -9.885433            2.028384             -1.196129
| 71> *
| 72>
| 73>                          ****END OF INPUT****
 Total Charge           Charge          ....    0
 Multiplicity           Mult            ....    1
 Number of Electrons    NEL             ....   36
Dispersion correction           -0.001400131
FINAL SINGLE POINT ENERGY      -231.455735684967
Dispersion correction           -0.000223579
FINAL SINGLE POINT ENERGY      -115.730215587987

CARTESIAN COORDINATES (ANGSTROEM)
---------------------------------
  C     -6.664363    1.798460    3.947455
  O     -7.527145    2.065606    2.932803
  H     -7.923853    1.266214    2.581502
  H     -5.749684    2.409529    3.868021
  H     -7.079226    2.109862    4.910229
  H     -6.449338    0.714370    3.869005
  C     -9.710998    2.179214   -0.109138
  O     -8.860415    1.325623    0.616860
  H     -9.517758    0.705625    0.956050
  H    -10.707104    2.107641    0.293463
  H     -9.473880    3.273409    0.136676
  H     -9.885433    2.028384   -1.196129

 Multiplicity           Mult            ....    1
 Number of Electrons    NEL             ....   18
 Basis Dimension        Dim             ....  172

ORBITAL ENERGIES
----------------

  NO   OCC          E(Eh)            E(eV)
   0   2.0000     -19.239110      -523.5228
   1   2.0000     -10.318752      -280.7875
   2   2.0000      -1.147673       -31.2298
   3   2.0000      -0.789791       -21.4913
   4   2.0000      -0.618043       -16.8178
   5   2.0000      -0.542959       -14.7747
   6   2.0000      -0.523483       -14.2447
   7   2.0000      -0.433483       -11.7957
   8   2.0000      -0.379803       -10.3350
   9   0.0000       0.096071         2.6142
  10   0.0000       0.115360         3.1391
  11   0.0000       0.148554         4.0424
  12   0.0000       0.183344         4.9890
  13   0.0000       0.202422         5.5082

MULLIKEN ATOMIC CHARGES
-----------------------
   0 C :    0.001099
   1 O :    0.004372
   2 H :   -0.016698
   3 H :    0.000065
   4 H :   -0.000105
   5 H :    0.000233
   6 C :   -0.196035
   7 O :   -0.437262
   8 H :    0.320087
   9 H :    0.102947
  10 H :    0.112072
  11 H :    0.109226
Sum of atomic charges:   -0.0000000

LOEWDIN ATOMIC CHARGES
----------------------
   0 C :   -0.000731
   1 O :   -0.011664
   2 H :   -0.023984
   3 H :   -0.000019
   4 H :   -0.000028
   5 H :   -0.000021
   6 C :   -0.413718
   7 O :   -0.038256
   8 H :    0.182605
   9 H :    0.091798
  10 H :    0.113955
  11 H :    0.100062

  Mayer bond orders larger than 0.1
B(  6-C ,  7-O ) :   1.0118 B(  6-C ,  9-H ) :   0.9914 B(  6-C , 10-H ) :   0.9782
B(  6-C , 11-H ) :   0.9566 B(  7-O ,  8-H ) :   0.8991

Dispersion correction           -0.000246452
FINAL SINGLE POINT ENERGY      -115.726040872713

DIPOLE MOMENT
-------------
                                X             Y             Z
Electronic contribution:      1.42364      -1.18438       0.81368
Nuclear contribution   :     -2.19420       1.09985      -0.84138
                        -----------------------------------------
Total Dipole Moment    :     -0.77056      -0.08453      -0.02770
                        -----------------------------------------
Magnitude (a.u.)       :      0.77568
Magnitude (Debye)      :      1.97162

Rotational constants in cm-1:     4.249149     0.830836     0.806515
Rotational constants in MHz : 127386.282702 24907.822085 24178.726024

                             ****ORCA TERMINATED NORMALLY****
TOTAL RUN TIME: 0 days 0 hours 1 minutes 6 seconds 528 msec
