                         Program Version 4.1.2  - RELEASE  -
|  1> #Run DFT-D3 single point of the dimer
|  2> ! wB97X-D3 def2-TZVP TIGHTSCF CHELPG PMODEL PAL8
|  3>
|  4> %base "6-92_DFT_AB"
|  5>
|  6> %scf
|  7> MaxIter 1000
|  8> end
|  9>
| 10> * xyz 0 1
| 11>   C                      6.664978             3.067073             1.226311
| 12>   O                      8.059023             2.989451             1.564592
| 13>   H                      8.160365             2.945944             2.478638
| 14>   H                      6.091341             2.145018             1.217380
| 15>   H                      6.072127             3.731938             1.852075
| 16>   H                      6.459341             3.559162             0.310594
| 17>   C                      3.690297             0.549827             2.921323
| 18>   O                      2.607705             0.302662             2.086672
| 19>   H                      2.541345             1.107319             1.602346
| 20>   H                      4.694533             0.374116             2.463775
| 21>   H                      3.695042             1.642360             3.273149
| 22>   H                      3.590307             -0.085466            3.793748
| 23> *
| 24>
| 25> #Run DFT-D3 single point of the molecule with dimer basis set
| 26> $new_job
| 27> %base "6-92_DFT_A"
| 28> ! wB97X-D3 def2-TZVP TIGHTSCF CHELPG PMODEL
| 29>
| 30> %scf
| 31> MaxIter 1000
| 32> end
| 33>
| 34> * xyz 0 1
| 35>   C                      6.664978             3.067073             1.226311
| 36>   O                      8.059023             2.989451             1.564592
| 37>   H                      8.160365             2.945944             2.478638
| 38>   H                      6.091341             2.145018             1.217380
| 39>   H                      6.072127             3.731938             1.852075
| 40>   H                      6.459341             3.559162             0.310594
| 41>   C                    : 3.690297             0.549827             2.921323
| 42>   O                    : 2.607705             0.302662             2.086672
| 43>   H                    : 2.541345             1.107319             1.602346
| 44>   H                    : 4.694533             0.374116             2.463775
| 45>   H                    : 3.695042             1.642360             3.273149
| 46>   H                    : 3.590307             -0.085466            3.793748
| 47> *
| 48>
| 49> #Run DFT-D3 single point of the particle with dimer basis set
| 50> $new_job
| 51> %base "6-92_DFT_B"
| 52> ! wB97X-D3 def2-TZVP TIGHTSCF CHELPG PMODEL
| 53>
| 54> %scf
| 55> MaxIter 1000
| 56> end
| 57>
| 58> * xyz 0 1
| 59>   C                    : 6.664978             3.067073             1.226311
| 60>   O                    : 8.059023             2.989451             1.564592
| 61>   H                    : 8.160365             2.945944             2.478638
| 62>   H                    : 6.091341             2.145018             1.217380
| 63>   H                    : 6.072127             3.731938             1.852075
| 64>   H                    : 6.459341             3.559162             0.310594
| 65>   C                      3.690297             0.549827             2.921323
| 66>   O                      2.607705             0.302662             2.086672
| 67>   H                      2.541345             1.107319             1.602346
| 68>   H                      4.694533             0.374116             2.463775
| 69>   H                      3.695042             1.642360             3.273149
| 70>   H                      3.590307             -0.085466            3.793748
| 71> *
| 72>
| 73>                          ****END OF INPUT****
 Total Charge           Charge          ....    0
 Multiplicity           Mult            ....    1
 Number of Electrons    NEL             ....   36
Dispersion correction           -0.001311585
FINAL SINGLE POINT ENERGY      -231.461012658387
Dispersion correction           -0.000278732
FINAL SINGLE POINT ENERGY      -115.727822154138

CARTESIAN COORDINATES (ANGSTROEM)
---------------------------------
  C      6.664978    3.067073    1.226311
  O      8.059023    2.989451    1.564592
  H      8.160365    2.945944    2.478638
  H      6.091341    2.145018    1.217380
  H      6.072127    3.731938    1.852075
  H      6.459341    3.559162    0.310594
  C      3.690297    0.549827    2.921323
  O      2.607705    0.302662    2.086672
  H      2.541345    1.107319    1.602346
  H      4.694533    0.374116    2.463775
  H      3.695042    1.642360    3.273149
  H      3.590307   -0.085466    3.793748

 Multiplicity           Mult            ....    1
 Number of Electrons    NEL             ....   18
 Basis Dimension        Dim             ....  172

ORBITAL ENERGIES
----------------

  NO   OCC          E(Eh)            E(eV)
   0   2.0000     -19.232573      -523.3449
   1   2.0000     -10.318406      -280.7781
   2   2.0000      -1.153953       -31.4007
   3   2.0000      -0.789169       -21.4744
   4   2.0000      -0.617740       -16.8096
   5   2.0000      -0.539714       -14.6864
   6   2.0000      -0.531225       -14.4554
   7   2.0000      -0.438810       -11.9406
   8   2.0000      -0.373694       -10.1687
   9   0.0000       0.078118         2.1257
  10   0.0000       0.116757         3.1771
  11   0.0000       0.155993         4.2448
  12   0.0000       0.164277         4.4702
  13   0.0000       0.174323         4.7436

MULLIKEN ATOMIC CHARGES
-----------------------
   0 C :   -0.001150
   1 O :    0.000079
   2 H :    0.000025
   3 H :    0.001366
   4 H :   -0.000260
   5 H :   -0.000114
   6 C :   -0.175084
   7 O :   -0.448648
   8 H :    0.313673
   9 H :    0.096508
  10 H :    0.092927
  11 H :    0.120679
Sum of atomic charges:   -0.0000000

LOEWDIN ATOMIC CHARGES
----------------------
   0 C :   -0.001458
   1 O :   -0.000006
   2 H :   -0.000005
   3 H :   -0.002819
   4 H :   -0.000255
   5 H :   -0.000011
   6 C :   -0.413588
   7 O :   -0.046957
   8 H :    0.162921
   9 H :    0.096297
  10 H :    0.102386
  11 H :    0.103495

  Mayer bond orders larger than 0.1
B(  6-C ,  7-O ) :   1.0124 B(  6-C ,  9-H ) :   0.9646 B(  6-C , 10-H ) :   0.9845
B(  6-C , 11-H ) :   0.9761 B(  7-O ,  8-H ) :   0.9059

Dispersion correction           -0.000230090
FINAL SINGLE POINT ENERGY      -115.732865717713

DIPOLE MOMENT
-------------
                                X             Y             Z
Electronic contribution:     -1.49181      -0.56177      -1.09681
Nuclear contribution   :      1.82383       1.14901       1.10509
                        -----------------------------------------
Total Dipole Moment    :      0.33202       0.58724       0.00828
                        -----------------------------------------
Magnitude (a.u.)       :      0.67466
Magnitude (Debye)      :      1.71484

Rotational constants in cm-1:     4.158209     0.858206     0.824138
Rotational constants in MHz : 124659.976847 25728.371183 24707.048134

                             ****ORCA TERMINATED NORMALLY****
TOTAL RUN TIME: 0 days 0 hours 1 minutes 4 seconds 403 msec
