                         Program Version 4.1.2  - RELEASE  -
|  1> #Run DFT-D3 single point of the dimer
|  2> ! wB97X-D3 def2-TZVP TIGHTSCF CHELPG PMODEL PAL8
|  3>
|  4> %base "11-126_DFT_AB"
|  5>
|  6> %scf
|  7> MaxIter 1000
|  8> end
|  9>
| 10> * xyz 0 1
| 11>   C                      0.044626             7.336796             -2.000568
| 12>   O                      0.666804             8.379387             -2.767885
| 13>   H                      1.634866             8.354970             -2.635268
| 14>   H                      0.688306             6.433786             -1.904531
| 15>   H                      -0.210121            7.772745             -1.070785
| 16>   H                      -0.934877            7.018362             -2.489453
| 17>   C                      4.799980             6.006494             -5.167319
| 18>   O                      3.951177             6.217455             -4.023773
| 19>   H                      3.955789             5.362684             -3.580391
| 20>   H                      4.974411             6.973716             -5.687132
| 21>   H                      5.733022             5.639043             -4.789739
| 22>   H                      4.363213             5.250652             -5.814487
| 23> *
| 24>
| 25> #Run DFT-D3 single point of the molecule with dimer basis set
| 26> $new_job
| 27> %base "11-126_DFT_A"
| 28> ! wB97X-D3 def2-TZVP TIGHTSCF CHELPG PMODEL
| 29>
| 30> %scf
| 31> MaxIter 1000
| 32> end
| 33>
| 34> * xyz 0 1
| 35>   C                      0.044626             7.336796             -2.000568
| 36>   O                      0.666804             8.379387             -2.767885
| 37>   H                      1.634866             8.354970             -2.635268
| 38>   H                      0.688306             6.433786             -1.904531
| 39>   H                      -0.210121            7.772745             -1.070785
| 40>   H                      -0.934877            7.018362             -2.489453
| 41>   C                    : 4.799980             6.006494             -5.167319
| 42>   O                    : 3.951177             6.217455             -4.023773
| 43>   H                    : 3.955789             5.362684             -3.580391
| 44>   H                    : 4.974411             6.973716             -5.687132
| 45>   H                    : 5.733022             5.639043             -4.789739
| 46>   H                    : 4.363213             5.250652             -5.814487
| 47> *
| 48>
| 49> #Run DFT-D3 single point of the particle with dimer basis set
| 50> $new_job
| 51> %base "11-126_DFT_B"
| 52> ! wB97X-D3 def2-TZVP TIGHTSCF CHELPG PMODEL
| 53>
| 54> %scf
| 55> MaxIter 1000
| 56> end
| 57>
| 58> * xyz 0 1
| 59>   C                    : 0.044626             7.336796             -2.000568
| 60>   O                    : 0.666804             8.379387             -2.767885
| 61>   H                    : 1.634866             8.354970             -2.635268
| 62>   H                    : 0.688306             6.433786             -1.904531
| 63>   H                    : -0.210121            7.772745             -1.070785
| 64>   H                    : -0.934877            7.018362             -2.489453
| 65>   C                      4.799980             6.006494             -5.167319
| 66>   O                      3.951177             6.217455             -4.023773
| 67>   H                      3.955789             5.362684             -3.580391
| 68>   H                      4.974411             6.973716             -5.687132
| 69>   H                      5.733022             5.639043             -4.789739
| 70>   H                      4.363213             5.250652             -5.814487
| 71> *
| 72>
| 73>                          ****END OF INPUT****
 Total Charge           Charge          ....    0
 Multiplicity           Mult            ....    1
 Number of Electrons    NEL             ....   36
Dispersion correction           -0.000902131
FINAL SINGLE POINT ENERGY      -231.468404170368
Dispersion correction           -0.000254087
FINAL SINGLE POINT ENERGY      -115.732204360470

CARTESIAN COORDINATES (ANGSTROEM)
---------------------------------
  C      0.044626    7.336796   -2.000568
  O      0.666804    8.379387   -2.767885
  H      1.634866    8.354970   -2.635268
  H      0.688306    6.433786   -1.904531
  H     -0.210121    7.772745   -1.070785
  H     -0.934877    7.018362   -2.489453
  C      4.799980    6.006494   -5.167319
  O      3.951177    6.217455   -4.023773
  H      3.955789    5.362684   -3.580391
  H      4.974411    6.973716   -5.687132
  H      5.733022    5.639043   -4.789739
  H      4.363213    5.250652   -5.814487

 Multiplicity           Mult            ....    1
 Number of Electrons    NEL             ....   18
 Basis Dimension        Dim             ....  172

ORBITAL ENERGIES
----------------

  NO   OCC          E(Eh)            E(eV)
   0   2.0000     -19.227989      -523.2202
   1   2.0000     -10.314178      -280.6631
   2   2.0000      -1.129748       -30.7420
   3   2.0000      -0.793429       -21.5903
   4   2.0000      -0.604563       -16.4510
   5   2.0000      -0.544843       -14.8259
   6   2.0000      -0.522711       -14.2237
   7   2.0000      -0.439652       -11.9635
   8   2.0000      -0.372550       -10.1376
   9   0.0000       0.094677         2.5763
  10   0.0000       0.116577         3.1722
  11   0.0000       0.155688         4.2365
  12   0.0000       0.178614         4.8603
  13   0.0000       0.201559         5.4847

MULLIKEN ATOMIC CHARGES
-----------------------
   0 C :    0.000453
   1 O :    0.000046
   2 H :   -0.001945
   3 H :   -0.000976
   4 H :   -0.000058
   5 H :    0.000028
   6 C :   -0.168638
   7 O :   -0.472379
   8 H :    0.310336
   9 H :    0.122536
  10 H :    0.103224
  11 H :    0.107372
Sum of atomic charges:    0.0000000

LOEWDIN ATOMIC CHARGES
----------------------
   0 C :   -0.000365
   1 O :   -0.000130
   2 H :   -0.001632
   3 H :   -0.000341
   4 H :   -0.000007
   5 H :   -0.000001
   6 C :   -0.363624
   7 O :   -0.100534
   8 H :    0.168602
   9 H :    0.113529
  10 H :    0.090519
  11 H :    0.093984

  Mayer bond orders larger than 0.1
B(  6-C ,  7-O ) :   0.9851 B(  6-C ,  9-H ) :   0.9717 B(  6-C , 10-H ) :   0.9836
B(  6-C , 11-H ) :   0.9746 B(  7-O ,  8-H ) :   0.9029

Dispersion correction           -0.000217154
FINAL SINGLE POINT ENERGY      -115.734528326539

DIPOLE MOMENT
-------------
                                X             Y             Z
Electronic contribution:     -1.07153       0.43054       1.28957
Nuclear contribution   :      1.44198      -1.04936      -1.48058
                        -----------------------------------------
Total Dipole Moment    :      0.37045      -0.61882      -0.19101
                        -----------------------------------------
Magnitude (a.u.)       :      0.74610
Magnitude (Debye)      :      1.89643

Rotational constants in cm-1:     4.183552     0.823917     0.788574
Rotational constants in MHz : 125419.737642 24700.409989 23640.854732

                             ****ORCA TERMINATED NORMALLY****
TOTAL RUN TIME: 0 days 0 hours 0 minutes 59 seconds 30 msec
