                         Program Version 4.1.2  - RELEASE  -
|  1> #Run DFT-D3 single point of the dimer
|  2> ! wB97X-D3 def2-TZVP TIGHTSCF CHELPG PMODEL PAL8
|  3>
|  4> %base "3-128_DFT_AB"
|  5>
|  6> %scf
|  7> MaxIter 1000
|  8> end
|  9>
| 10> * xyz 0 1
| 11>   C                      8.849707             -4.694497            6.560075
| 12>   O                      9.612996             -3.634739            6.061189
| 13>   H                      10.178477            -3.856091            5.309947
| 14>   H                      9.444799             -5.519366            6.956617
| 15>   H                      8.068576             -4.283901            7.202279
| 16>   H                      8.338581             -5.109527            5.700484
| 17>   C                      9.576220             -0.742212            7.666860
| 18>   O                      8.146093             -0.719012            7.663289
| 19>   H                      7.819435             -1.581281            7.522280
| 20>   H                      9.963115             0.255649             7.927837
| 21>   H                      9.942370             -1.517336            8.318897
| 22>   H                      10.023273            -1.076571            6.697711
| 23> *
| 24>
| 25> #Run DFT-D3 single point of the molecule with dimer basis set
| 26> $new_job
| 27> %base "3-128_DFT_A"
| 28> ! wB97X-D3 def2-TZVP TIGHTSCF CHELPG PMODEL
| 29>
| 30> %scf
| 31> MaxIter 1000
| 32> end
| 33>
| 34> * xyz 0 1
| 35>   C                      8.849707             -4.694497            6.560075
| 36>   O                      9.612996             -3.634739            6.061189
| 37>   H                      10.178477            -3.856091            5.309947
| 38>   H                      9.444799             -5.519366            6.956617
| 39>   H                      8.068576             -4.283901            7.202279
| 40>   H                      8.338581             -5.109527            5.700484
| 41>   C                    : 9.576220             -0.742212            7.666860
| 42>   O                    : 8.146093             -0.719012            7.663289
| 43>   H                    : 7.819435             -1.581281            7.522280
| 44>   H                    : 9.963115             0.255649             7.927837
| 45>   H                    : 9.942370             -1.517336            8.318897
| 46>   H                    : 10.023273            -1.076571            6.697711
| 47> *
| 48>
| 49> #Run DFT-D3 single point of the particle with dimer basis set
| 50> $new_job
| 51> %base "3-128_DFT_B"
| 52> ! wB97X-D3 def2-TZVP TIGHTSCF CHELPG PMODEL
| 53>
| 54> %scf
| 55> MaxIter 1000
| 56> end
| 57>
| 58> * xyz 0 1
| 59>   C                    : 8.849707             -4.694497            6.560075
| 60>   O                    : 9.612996             -3.634739            6.061189
| 61>   H                    : 10.178477            -3.856091            5.309947
| 62>   H                    : 9.444799             -5.519366            6.956617
| 63>   H                    : 8.068576             -4.283901            7.202279
| 64>   H                    : 8.338581             -5.109527            5.700484
| 65>   C                      9.576220             -0.742212            7.666860
| 66>   O                      8.146093             -0.719012            7.663289
| 67>   H                      7.819435             -1.581281            7.522280
| 68>   H                      9.963115             0.255649             7.927837
| 69>   H                      9.942370             -1.517336            8.318897
| 70>   H                      10.023273            -1.076571            6.697711
| 71> *
| 72>
| 73>                          ****END OF INPUT****
 Total Charge           Charge          ....    0
 Multiplicity           Mult            ....    1
 Number of Electrons    NEL             ....   36
Dispersion correction           -0.001972212
FINAL SINGLE POINT ENERGY      -231.468438533092
Dispersion correction           -0.000232642
FINAL SINGLE POINT ENERGY      -115.732267266382

CARTESIAN COORDINATES (ANGSTROEM)
---------------------------------
  C      8.849707   -4.694497    6.560075
  O      9.612996   -3.634739    6.061189
  H     10.178477   -3.856091    5.309947
  H      9.444799   -5.519366    6.956617
  H      8.068576   -4.283901    7.202279
  H      8.338581   -5.109527    5.700484
  C      9.576220   -0.742212    7.666860
  O      8.146093   -0.719012    7.663289
  H      7.819435   -1.581281    7.522280
  H      9.963115    0.255649    7.927837
  H      9.942370   -1.517336    8.318897
  H     10.023273   -1.076571    6.697711

 Multiplicity           Mult            ....    1
 Number of Electrons    NEL             ....   18
 Basis Dimension        Dim             ....  172

ORBITAL ENERGIES
----------------

  NO   OCC          E(Eh)            E(eV)
   0   2.0000     -19.227943      -523.2189
   1   2.0000     -10.317261      -280.7470
   2   2.0000      -1.136267       -30.9194
   3   2.0000      -0.798747       -21.7350
   4   2.0000      -0.617130       -16.7930
   5   2.0000      -0.532077       -14.4786
   6   2.0000      -0.525532       -14.3004
   7   2.0000      -0.440945       -11.9987
   8   2.0000      -0.371550       -10.1104
   9   0.0000       0.069989         1.9045
  10   0.0000       0.129810         3.5323
  11   0.0000       0.139647         3.8000
  12   0.0000       0.167196         4.5496
  13   0.0000       0.195139         5.3100

MULLIKEN ATOMIC CHARGES
-----------------------
   0 C :    0.000200
   1 O :    0.000315
   2 H :   -0.000201
   3 H :   -0.000050
   4 H :   -0.001233
   5 H :    0.000005
   6 C :   -0.170768
   7 O :   -0.470082
   8 H :    0.308551
   9 H :    0.130587
  10 H :    0.107425
  11 H :    0.095251
Sum of atomic charges:    0.0000000

LOEWDIN ATOMIC CHARGES
----------------------
   0 C :   -0.001541
   1 O :   -0.004081
   2 H :   -0.000555
   3 H :   -0.000020
   4 H :   -0.001235
   5 H :   -0.000012
   6 C :   -0.370945
   7 O :   -0.072154
   8 H :    0.147776
   9 H :    0.111933
  10 H :    0.092352
  11 H :    0.098482

  Mayer bond orders larger than 0.1
B(  6-C ,  7-O ) :   0.9923 B(  6-C ,  9-H ) :   0.9724 B(  6-C , 10-H ) :   0.9789
B(  6-C , 11-H ) :   0.9731 B(  7-O ,  8-H ) :   0.9086

Dispersion correction           -0.000248689
FINAL SINGLE POINT ENERGY      -115.733610433905

DIPOLE MOMENT
-------------
                                X             Y             Z
Electronic contribution:     -1.83946       0.24283       0.08039
Nuclear contribution   :      2.21286      -0.82254      -0.15785
                        -----------------------------------------
Total Dipole Moment    :      0.37340      -0.57971      -0.07746
                        -----------------------------------------
Magnitude (a.u.)       :      0.69389
Magnitude (Debye)      :      1.76374

Rotational constants in cm-1:     4.346047     0.817956     0.779054
Rotational constants in MHz : 130291.225346 24521.704868 23355.463204

                             ****ORCA TERMINATED NORMALLY****
TOTAL RUN TIME: 0 days 0 hours 6 minutes 24 seconds 974 msec
