                         Program Version 4.1.2  - RELEASE  -
|  1> #Run DFT-D3 single point of the dimer
|  2> ! wB97X-D3 def2-TZVP TIGHTSCF CHELPG PMODEL PAL8
|  3>
|  4> %base "5-16_DFT_AB"
|  5>
|  6> %scf
|  7> MaxIter 1000
|  8> end
|  9>
| 10> * xyz 0 1
| 11>   C                      4.682052             -4.285258            7.565120
| 12>   O                      4.866444             -3.775011            6.253769
| 13>   H                      4.430609             -2.921144            6.243393
| 14>   H                      4.396078             -3.482571            8.277853
| 15>   H                      3.896837             -5.017560            7.602140
| 16>   H                      5.548066             -4.676643            7.981622
| 17>   C                      0.255841             -3.219939            6.750236
| 18>   O                      -0.231669            -2.914213            8.068768
| 19>   H                      0.176344             -2.033813            8.312058
| 20>   H                      0.410983             -2.223815            6.248797
| 21>   H                      1.273961             -3.723358            6.828161
| 22>   H                      -0.387087            -3.896676            6.146418
| 23> *
| 24>
| 25> #Run DFT-D3 single point of the molecule with dimer basis set
| 26> $new_job
| 27> %base "5-16_DFT_A"
| 28> ! wB97X-D3 def2-TZVP TIGHTSCF CHELPG PMODEL
| 29>
| 30> %scf
| 31> MaxIter 1000
| 32> end
| 33>
| 34> * xyz 0 1
| 35>   C                      4.682052             -4.285258            7.565120
| 36>   O                      4.866444             -3.775011            6.253769
| 37>   H                      4.430609             -2.921144            6.243393
| 38>   H                      4.396078             -3.482571            8.277853
| 39>   H                      3.896837             -5.017560            7.602140
| 40>   H                      5.548066             -4.676643            7.981622
| 41>   C                    : 0.255841             -3.219939            6.750236
| 42>   O                    : -0.231669            -2.914213            8.068768
| 43>   H                    : 0.176344             -2.033813            8.312058
| 44>   H                    : 0.410983             -2.223815            6.248797
| 45>   H                    : 1.273961             -3.723358            6.828161
| 46>   H                    : -0.387087            -3.896676            6.146418
| 47> *
| 48>
| 49> #Run DFT-D3 single point of the particle with dimer basis set
| 50> $new_job
| 51> %base "5-16_DFT_B"
| 52> ! wB97X-D3 def2-TZVP TIGHTSCF CHELPG PMODEL
| 53>
| 54> %scf
| 55> MaxIter 1000
| 56> end
| 57>
| 58> * xyz 0 1
| 59>   C                    : 4.682052             -4.285258            7.565120
| 60>   O                    : 4.866444             -3.775011            6.253769
| 61>   H                    : 4.430609             -2.921144            6.243393
| 62>   H                    : 4.396078             -3.482571            8.277853
| 63>   H                    : 3.896837             -5.017560            7.602140
| 64>   H                    : 5.548066             -4.676643            7.981622
| 65>   C                      0.255841             -3.219939            6.750236
| 66>   O                      -0.231669            -2.914213            8.068768
| 67>   H                      0.176344             -2.033813            8.312058
| 68>   H                      0.410983             -2.223815            6.248797
| 69>   H                      1.273961             -3.723358            6.828161
| 70>   H                      -0.387087            -3.896676            6.146418
| 71> *
| 72>
| 73>                          ****END OF INPUT****
 Total Charge           Charge          ....    0
 Multiplicity           Mult            ....    1
 Number of Electrons    NEL             ....   36
Dispersion correction           -0.001180571
FINAL SINGLE POINT ENERGY      -231.462287062732
Dispersion correction           -0.000239376
FINAL SINGLE POINT ENERGY      -115.732582712641

CARTESIAN COORDINATES (ANGSTROEM)
---------------------------------
  C      4.682052   -4.285258    7.565120
  O      4.866444   -3.775011    6.253769
  H      4.430609   -2.921144    6.243393
  H      4.396078   -3.482571    8.277853
  H      3.896837   -5.017560    7.602140
  H      5.548066   -4.676643    7.981622
  C      0.255841   -3.219939    6.750236
  O     -0.231669   -2.914213    8.068768
  H      0.176344   -2.033813    8.312058
  H      0.410983   -2.223815    6.248797
  H      1.273961   -3.723358    6.828161
  H     -0.387087   -3.896676    6.146418

 Multiplicity           Mult            ....    1
 Number of Electrons    NEL             ....   18
 Basis Dimension        Dim             ....  172

ORBITAL ENERGIES
----------------

  NO   OCC          E(Eh)            E(eV)
   0   2.0000     -19.233772      -523.3776
   1   2.0000     -10.326092      -280.9873
   2   2.0000      -1.123358       -30.5681
   3   2.0000      -0.784197       -21.3391
   4   2.0000      -0.598947       -16.2982
   5   2.0000      -0.532545       -14.4913
   6   2.0000      -0.528727       -14.3874
   7   2.0000      -0.431995       -11.7552
   8   2.0000      -0.369817       -10.0632
   9   0.0000       0.079885         2.1738
  10   0.0000       0.109850         2.9892
  11   0.0000       0.148667         4.0454
  12   0.0000       0.167431         4.5560
  13   0.0000       0.182786         4.9739

MULLIKEN ATOMIC CHARGES
-----------------------
   0 C :    0.000467
   1 O :   -0.000115
   2 H :   -0.000380
   3 H :    0.000070
   4 H :    0.000035
   5 H :    0.000102
   6 C :   -0.178409
   7 O :   -0.473945
   8 H :    0.320172
   9 H :    0.105176
  10 H :    0.102500
  11 H :    0.124327
Sum of atomic charges:    0.0000000

LOEWDIN ATOMIC CHARGES
----------------------
   0 C :   -0.001645
   1 O :   -0.000092
   2 H :   -0.000397
   3 H :   -0.000109
   4 H :   -0.000826
   5 H :   -0.000012
   6 C :   -0.383232
   7 O :   -0.117807
   8 H :    0.192400
   9 H :    0.101911
  10 H :    0.102043
  11 H :    0.107766

  Mayer bond orders larger than 0.1
B(  6-C ,  7-O ) :   0.9983 B(  6-C ,  9-H ) :   0.9889 B(  6-C , 10-H ) :   0.9687
B(  6-C , 11-H ) :   0.9675 B(  7-O ,  8-H ) :   0.8932

Dispersion correction           -0.000253006
FINAL SINGLE POINT ENERGY      -115.729196912396

DIPOLE MOMENT
-------------
                                X             Y             Z
Electronic contribution:     -0.84671       0.17735       1.64458
Nuclear contribution   :      1.27941       0.25077      -2.02277
                        -----------------------------------------
Total Dipole Moment    :      0.43270       0.42812      -0.37819
                        -----------------------------------------
Magnitude (a.u.)       :      0.71662
Magnitude (Debye)      :      1.82150

Rotational constants in cm-1:     4.013118     0.807149     0.772893
Rotational constants in MHz : 120310.241075 24197.705957 23170.761771

                             ****ORCA TERMINATED NORMALLY****
TOTAL RUN TIME: 0 days 0 hours 0 minutes 52 seconds 188 msec
