                         Program Version 4.1.2  - RELEASE  -
|  1> #Run DFT-D3 single point of the dimer
|  2> ! wB97X-D3 def2-TZVP TIGHTSCF CHELPG PMODEL PAL8
|  3>
|  4> %base "9-145_DFT_AB"
|  5>
|  6> %scf
|  7> MaxIter 1000
|  8> end
|  9>
| 10> * xyz 0 1
| 11>   C                      3.223272             -2.438549            -3.423664
| 12>   O                      3.022313             -1.536234            -2.328984
| 13>   H                      3.613779             -1.773464            -1.680100
| 14>   H                      4.288692             -2.640440            -3.533088
| 15>   H                      2.703304             -3.430729            -3.213615
| 16>   H                      2.902876             -2.032643            -4.407125
| 17>   C                      1.679776             -3.546201            0.676951
| 18>   O                      0.715683             -2.560960            0.566006
| 19>   H                      1.174141             -1.743596            0.382833
| 20>   H                      2.370658             -3.287889            1.424318
| 21>   H                      1.297961             -4.499157            0.996631
| 22>   H                      2.239425             -3.799190            -0.274607
| 23> *
| 24>
| 25> #Run DFT-D3 single point of the molecule with dimer basis set
| 26> $new_job
| 27> %base "9-145_DFT_A"
| 28> ! wB97X-D3 def2-TZVP TIGHTSCF CHELPG PMODEL
| 29>
| 30> %scf
| 31> MaxIter 1000
| 32> end
| 33>
| 34> * xyz 0 1
| 35>   C                      3.223272             -2.438549            -3.423664
| 36>   O                      3.022313             -1.536234            -2.328984
| 37>   H                      3.613779             -1.773464            -1.680100
| 38>   H                      4.288692             -2.640440            -3.533088
| 39>   H                      2.703304             -3.430729            -3.213615
| 40>   H                      2.902876             -2.032643            -4.407125
| 41>   C                    : 1.679776             -3.546201            0.676951
| 42>   O                    : 0.715683             -2.560960            0.566006
| 43>   H                    : 1.174141             -1.743596            0.382833
| 44>   H                    : 2.370658             -3.287889            1.424318
| 45>   H                    : 1.297961             -4.499157            0.996631
| 46>   H                    : 2.239425             -3.799190            -0.274607
| 47> *
| 48>
| 49> #Run DFT-D3 single point of the particle with dimer basis set
| 50> $new_job
| 51> %base "9-145_DFT_B"
| 52> ! wB97X-D3 def2-TZVP TIGHTSCF CHELPG PMODEL
| 53>
| 54> %scf
| 55> MaxIter 1000
| 56> end
| 57>
| 58> * xyz 0 1
| 59>   C                    : 3.223272             -2.438549            -3.423664
| 60>   O                    : 3.022313             -1.536234            -2.328984
| 61>   H                    : 3.613779             -1.773464            -1.680100
| 62>   H                    : 4.288692             -2.640440            -3.533088
| 63>   H                    : 2.703304             -3.430729            -3.213615
| 64>   H                    : 2.902876             -2.032643            -4.407125
| 65>   C                      1.679776             -3.546201            0.676951
| 66>   O                      0.715683             -2.560960            0.566006
| 67>   H                      1.174141             -1.743596            0.382833
| 68>   H                      2.370658             -3.287889            1.424318
| 69>   H                      1.297961             -4.499157            0.996631
| 70>   H                      2.239425             -3.799190            -0.274607
| 71> *
| 72>
| 73>                          ****END OF INPUT****
 Total Charge           Charge          ....    0
 Multiplicity           Mult            ....    1
 Number of Electrons    NEL             ....   36
Dispersion correction           -0.001613176
FINAL SINGLE POINT ENERGY      -231.465596430872
Dispersion correction           -0.000247424
FINAL SINGLE POINT ENERGY      -115.731580630143

CARTESIAN COORDINATES (ANGSTROEM)
---------------------------------
  C      3.223272   -2.438549   -3.423664
  O      3.022313   -1.536234   -2.328984
  H      3.613779   -1.773464   -1.680100
  H      4.288692   -2.640440   -3.533088
  H      2.703304   -3.430729   -3.213615
  H      2.902876   -2.032643   -4.407125
  C      1.679776   -3.546201    0.676951
  O      0.715683   -2.560960    0.566006
  H      1.174141   -1.743596    0.382833
  H      2.370658   -3.287889    1.424318
  H      1.297961   -4.499157    0.996631
  H      2.239425   -3.799190   -0.274607

 Multiplicity           Mult            ....    1
 Number of Electrons    NEL             ....   18
 Basis Dimension        Dim             ....  172

ORBITAL ENERGIES
----------------

  NO   OCC          E(Eh)            E(eV)
   0   2.0000     -19.232413      -523.3406
   1   2.0000     -10.306982      -280.4672
   2   2.0000      -1.149035       -31.2668
   3   2.0000      -0.798465       -21.7273
   4   2.0000      -0.618096       -16.8192
   5   2.0000      -0.547307       -14.8930
   6   2.0000      -0.534307       -14.5392
   7   2.0000      -0.430145       -11.7048
   8   2.0000      -0.374368       -10.1871
   9   0.0000       0.077972         2.1217
  10   0.0000       0.121397         3.3034
  11   0.0000       0.153460         4.1759
  12   0.0000       0.173654         4.7254
  13   0.0000       0.186416         5.0726

MULLIKEN ATOMIC CHARGES
-----------------------
   0 C :    0.000036
   1 O :   -0.000037
   2 H :   -0.000107
   3 H :   -0.000044
   4 H :    0.000339
   5 H :   -0.000014
   6 C :   -0.169000
   7 O :   -0.460959
   8 H :    0.317179
   9 H :    0.106949
  10 H :    0.115156
  11 H :    0.090501
Sum of atomic charges:    0.0000000

LOEWDIN ATOMIC CHARGES
----------------------
   0 C :   -0.001206
   1 O :   -0.000797
   2 H :   -0.001232
   3 H :   -0.000013
   4 H :   -0.000758
   5 H :   -0.000011
   6 C :   -0.410952
   7 O :   -0.046441
   8 H :    0.170796
   9 H :    0.086404
  10 H :    0.104172
  11 H :    0.100037

  Mayer bond orders larger than 0.1
B(  6-C ,  7-O ) :   1.0086 B(  6-C ,  9-H ) :   0.9863 B(  6-C , 10-H ) :   0.9740
B(  6-C , 11-H ) :   0.9704 B(  7-O ,  8-H ) :   0.8987

Dispersion correction           -0.000231744
FINAL SINGLE POINT ENERGY      -115.732451567950

DIPOLE MOMENT
-------------
                                X             Y             Z
Electronic contribution:     -1.45024       1.27870      -0.09843
Nuclear contribution   :      2.09696      -1.13804       0.06065
                        -----------------------------------------
Total Dipole Moment    :      0.64671       0.14066      -0.03778
                        -----------------------------------------
Magnitude (a.u.)       :      0.66291
Magnitude (Debye)      :      1.68498

Rotational constants in cm-1:     4.482342     0.851573     0.827358
Rotational constants in MHz : 134377.226919 25529.505066 24803.575501

                             ****ORCA TERMINATED NORMALLY****
TOTAL RUN TIME: 0 days 0 hours 0 minutes 42 seconds 337 msec
