                         Program Version 4.1.2  - RELEASE  -
|  1> #Run DFT-D3 single point of the dimer
|  2> ! wB97X-D3 def2-TZVP TIGHTSCF CHELPG PMODEL PAL8
|  3>
|  4> %base "16-112_DFT_AB"
|  5>
|  6> %scf
|  7> MaxIter 1000
|  8> end
|  9>
| 10> * xyz 0 1
| 11>   C                      -6.170275            7.304904             2.945659
| 12>   O                      -6.004982            5.919241             2.961373
| 13>   H                      -5.177506            5.678358             2.626186
| 14>   H                      -5.361011            7.815695             3.442207
| 15>   H                      -6.204885            7.631160             1.917815
| 16>   H                      -7.083981            7.553979             3.478656
| 17>   C                      -4.355825            3.684646             -0.788535
| 18>   O                      -3.446795            3.823115             0.278876
| 19>   H                      -2.672503            4.139131             -0.019758
| 20>   H                      -4.056790            2.832902             -1.405011
| 21>   H                      -5.318373            3.372870             -0.422924
| 22>   H                      -4.425202            4.594607             -1.357747
| 23> *
| 24>
| 25> #Run DFT-D3 single point of the molecule with dimer basis set
| 26> $new_job
| 27> %base "16-112_DFT_A"
| 28> ! wB97X-D3 def2-TZVP TIGHTSCF CHELPG PMODEL
| 29>
| 30> %scf
| 31> MaxIter 1000
| 32> end
| 33>
| 34> * xyz 0 1
| 35>   C                      -6.170275            7.304904             2.945659
| 36>   O                      -6.004982            5.919241             2.961373
| 37>   H                      -5.177506            5.678358             2.626186
| 38>   H                      -5.361011            7.815695             3.442207
| 39>   H                      -6.204885            7.631160             1.917815
| 40>   H                      -7.083981            7.553979             3.478656
| 41>   C                    : -4.355825            3.684646             -0.788535
| 42>   O                    : -3.446795            3.823115             0.278876
| 43>   H                    : -2.672503            4.139131             -0.019758
| 44>   H                    : -4.056790            2.832902             -1.405011
| 45>   H                    : -5.318373            3.372870             -0.422924
| 46>   H                    : -4.425202            4.594607             -1.357747
| 47> *
| 48>
| 49> #Run DFT-D3 single point of the particle with dimer basis set
| 50> $new_job
| 51> %base "16-112_DFT_B"
| 52> ! wB97X-D3 def2-TZVP TIGHTSCF CHELPG PMODEL
| 53>
| 54> %scf
| 55> MaxIter 1000
| 56> end
| 57>
| 58> * xyz 0 1
| 59>   C                    : -6.170275            7.304904             2.945659
| 60>   O                    : -6.004982            5.919241             2.961373
| 61>   H                    : -5.177506            5.678358             2.626186
| 62>   H                    : -5.361011            7.815695             3.442207
| 63>   H                    : -6.204885            7.631160             1.917815
| 64>   H                    : -7.083981            7.553979             3.478656
| 65>   C                      -4.355825            3.684646             -0.788535
| 66>   O                      -3.446795            3.823115             0.278876
| 67>   H                      -2.672503            4.139131             -0.019758
| 68>   H                      -4.056790            2.832902             -1.405011
| 69>   H                      -5.318373            3.372870             -0.422924
| 70>   H                      -4.425202            4.594607             -1.357747
| 71> *
| 72>
| 73>                          ****END OF INPUT****
 Total Charge           Charge          ....    0
 Multiplicity           Mult            ....    1
 Number of Electrons    NEL             ....   36
Dispersion correction           -0.000889893
FINAL SINGLE POINT ENERGY      -231.467207635333
Dispersion correction           -0.000219311
FINAL SINGLE POINT ENERGY      -115.735144264568

CARTESIAN COORDINATES (ANGSTROEM)
---------------------------------
  C     -6.170275    7.304904    2.945659
  O     -6.004982    5.919241    2.961373
  H     -5.177506    5.678358    2.626186
  H     -5.361011    7.815695    3.442207
  H     -6.204885    7.631160    1.917815
  H     -7.083981    7.553979    3.478656
  C     -4.355825    3.684646   -0.788535
  O     -3.446795    3.823115    0.278876
  H     -2.672503    4.139131   -0.019758
  H     -4.056790    2.832902   -1.405011
  H     -5.318373    3.372870   -0.422924
  H     -4.425202    4.594607   -1.357747

 Multiplicity           Mult            ....    1
 Number of Electrons    NEL             ....   18
 Basis Dimension        Dim             ....  172

ORBITAL ENERGIES
----------------

  NO   OCC          E(Eh)            E(eV)
   0   2.0000     -19.220454      -523.0151
   1   2.0000     -10.309345      -280.5315
   2   2.0000      -1.150902       -31.3176
   3   2.0000      -0.806413       -21.9436
   4   2.0000      -0.618084       -16.8189
   5   2.0000      -0.551235       -14.9999
   6   2.0000      -0.531368       -14.4593
   7   2.0000      -0.432689       -11.7741
   8   2.0000      -0.374686       -10.1957
   9   0.0000       0.092447         2.5156
  10   0.0000       0.122688         3.3385
  11   0.0000       0.160047         4.3551
  12   0.0000       0.176776         4.8103
  13   0.0000       0.199250         5.4219

MULLIKEN ATOMIC CHARGES
-----------------------
   0 C :    0.000199
   1 O :    0.000357
   2 H :   -0.003250
   3 H :    0.000001
   4 H :   -0.000036
   5 H :   -0.000004
   6 C :   -0.154462
   7 O :   -0.461384
   8 H :    0.295242
   9 H :    0.101060
  10 H :    0.116169
  11 H :    0.106107
Sum of atomic charges:    0.0000000

LOEWDIN ATOMIC CHARGES
----------------------
   0 C :   -0.000032
   1 O :   -0.000067
   2 H :   -0.002201
   3 H :   -0.000001
   4 H :   -0.000003
   5 H :   -0.000001
   6 C :   -0.373878
   7 O :   -0.035725
   8 H :    0.116704
   9 H :    0.096706
  10 H :    0.105530
  11 H :    0.092968

  Mayer bond orders larger than 0.1
B(  6-C ,  7-O ) :   0.9863 B(  6-C ,  9-H ) :   0.9791 B(  6-C , 10-H ) :   0.9755
B(  6-C , 11-H ) :   0.9788 B(  7-O ,  8-H ) :   0.9192

Dispersion correction           -0.000223615
FINAL SINGLE POINT ENERGY      -115.730099930615

DIPOLE MOMENT
-------------
                                X             Y             Z
Electronic contribution:      1.05226       0.23650       1.39732
Nuclear contribution   :     -0.91756      -0.09374      -2.03423
                        -----------------------------------------
Total Dipole Moment    :      0.13470       0.14275      -0.63691
                        -----------------------------------------
Magnitude (a.u.)       :      0.66647
Magnitude (Debye)      :      1.69402

Rotational constants in cm-1:     4.499474     0.840250     0.816743
Rotational constants in MHz : 134890.847775 25190.066893 24485.345183

                             ****ORCA TERMINATED NORMALLY****
TOTAL RUN TIME: 0 days 0 hours 0 minutes 49 seconds 833 msec
