                         Program Version 4.1.2  - RELEASE  -
|  1> #Run DFT-D3 single point of the dimer
|  2> ! wB97X-D3 def2-TZVP TIGHTSCF CHELPG PMODEL PAL8
|  3>
|  4> %base "14-35_DFT_AB"
|  5>
|  6> %scf
|  7> MaxIter 1000
|  8> end
|  9>
| 10> * xyz 0 1
| 11>   C                      -0.612086            2.931693             -2.166030
| 12>   O                      -1.917891            3.394526             -2.096503
| 13>   H                      -2.283379            3.362468             -1.200627
| 14>   H                      -0.456620            1.838111             -2.061463
| 15>   H                      -0.083063            3.269453             -3.069938
| 16>   H                      -0.006313            3.238354             -1.311755
| 17>   C                      0.864074             -0.186070            -5.966287
| 18>   O                      1.037888             0.478722             -7.171851
| 19>   H                      1.971567             0.439262             -7.331044
| 20>   H                      1.203016             0.394362             -5.112619
| 21>   H                      -0.235655            -0.221451            -5.806584
| 22>   H                      1.194174             -1.183852            -6.068807
| 23> *
| 24>
| 25> #Run DFT-D3 single point of the molecule with dimer basis set
| 26> $new_job
| 27> %base "14-35_DFT_A"
| 28> ! wB97X-D3 def2-TZVP TIGHTSCF CHELPG PMODEL
| 29>
| 30> %scf
| 31> MaxIter 1000
| 32> end
| 33>
| 34> * xyz 0 1
| 35>   C                      -0.612086            2.931693             -2.166030
| 36>   O                      -1.917891            3.394526             -2.096503
| 37>   H                      -2.283379            3.362468             -1.200627
| 38>   H                      -0.456620            1.838111             -2.061463
| 39>   H                      -0.083063            3.269453             -3.069938
| 40>   H                      -0.006313            3.238354             -1.311755
| 41>   C                    : 0.864074             -0.186070            -5.966287
| 42>   O                    : 1.037888             0.478722             -7.171851
| 43>   H                    : 1.971567             0.439262             -7.331044
| 44>   H                    : 1.203016             0.394362             -5.112619
| 45>   H                    : -0.235655            -0.221451            -5.806584
| 46>   H                    : 1.194174             -1.183852            -6.068807
| 47> *
| 48>
| 49> #Run DFT-D3 single point of the particle with dimer basis set
| 50> $new_job
| 51> %base "14-35_DFT_B"
| 52> ! wB97X-D3 def2-TZVP TIGHTSCF CHELPG PMODEL
| 53>
| 54> %scf
| 55> MaxIter 1000
| 56> end
| 57>
| 58> * xyz 0 1
| 59>   C                    : -0.612086            2.931693             -2.166030
| 60>   O                    : -1.917891            3.394526             -2.096503
| 61>   H                    : -2.283379            3.362468             -1.200627
| 62>   H                    : -0.456620            1.838111             -2.061463
| 63>   H                    : -0.083063            3.269453             -3.069938
| 64>   H                    : -0.006313            3.238354             -1.311755
| 65>   C                      0.864074             -0.186070            -5.966287
| 66>   O                      1.037888             0.478722             -7.171851
| 67>   H                      1.971567             0.439262             -7.331044
| 68>   H                      1.203016             0.394362             -5.112619
| 69>   H                      -0.235655            -0.221451            -5.806584
| 70>   H                      1.194174             -1.183852            -6.068807
| 71> *
| 72>
| 73>                          ****END OF INPUT****
 Total Charge           Charge          ....    0
 Multiplicity           Mult            ....    1
 Number of Electrons    NEL             ....   36
Dispersion correction           -0.000752134
FINAL SINGLE POINT ENERGY      -231.464153435336
Dispersion correction           -0.000258881
FINAL SINGLE POINT ENERGY      -115.732066613936

CARTESIAN COORDINATES (ANGSTROEM)
---------------------------------
  C     -0.612086    2.931693   -2.166030
  O     -1.917891    3.394526   -2.096503
  H     -2.283379    3.362468   -1.200627
  H     -0.456620    1.838111   -2.061463
  H     -0.083063    3.269453   -3.069938
  H     -0.006313    3.238354   -1.311755
  C      0.864074   -0.186070   -5.966287
  O      1.037888    0.478722   -7.171851
  H      1.971567    0.439262   -7.331044
  H      1.203016    0.394362   -5.112619
  H     -0.235655   -0.221451   -5.806584
  H      1.194174   -1.183852   -6.068807

 Multiplicity           Mult            ....    1
 Number of Electrons    NEL             ....   18
 Basis Dimension        Dim             ....  172

ORBITAL ENERGIES
----------------

  NO   OCC          E(Eh)            E(eV)
   0   2.0000     -19.227286      -523.2010
   1   2.0000     -10.305977      -280.4399
   2   2.0000      -1.148580       -31.2544
   3   2.0000      -0.794874       -21.6296
   4   2.0000      -0.611933       -16.6515
   5   2.0000      -0.562530       -15.3072
   6   2.0000      -0.523426       -14.2431
   7   2.0000      -0.427401       -11.6302
   8   2.0000      -0.376165       -10.2360
   9   0.0000       0.083935         2.2840
  10   0.0000       0.118399         3.2218
  11   0.0000       0.146753         3.9934
  12   0.0000       0.172274         4.6878
  13   0.0000       0.192611         5.2412

MULLIKEN ATOMIC CHARGES
-----------------------
   0 C :   -0.000075
   1 O :   -0.000000
   2 H :   -0.000000
   3 H :   -0.000144
   4 H :    0.000142
   5 H :    0.000004
   6 C :   -0.159673
   7 O :   -0.463838
   8 H :    0.309073
   9 H :    0.099482
  10 H :    0.109353
  11 H :    0.105677
Sum of atomic charges:   -0.0000000

LOEWDIN ATOMIC CHARGES
----------------------
   0 C :   -0.000168
   1 O :   -0.000002
   2 H :   -0.000000
   3 H :   -0.000115
   4 H :   -0.000054
   5 H :   -0.000000
   6 C :   -0.405133
   7 O :   -0.053572
   8 H :    0.162855
   9 H :    0.093841
  10 H :    0.113867
  11 H :    0.088482

  Mayer bond orders larger than 0.1
B(  6-C ,  7-O ) :   1.0038 B(  6-C ,  9-H ) :   0.9735 B(  6-C , 10-H ) :   0.9758
B(  6-C , 11-H ) :   0.9822 B(  7-O ,  8-H ) :   0.9061

Dispersion correction           -0.000210111
FINAL SINGLE POINT ENERGY      -115.731952115021

DIPOLE MOMENT
-------------
                                X             Y             Z
Electronic contribution:      0.27399       0.81688      -1.52493
Nuclear contribution   :      0.23035      -1.09928       1.87798
                        -----------------------------------------
Total Dipole Moment    :      0.50434      -0.28240       0.35305
                        -----------------------------------------
Magnitude (a.u.)       :      0.67731
Magnitude (Debye)      :      1.72159

Rotational constants in cm-1:     4.286358     0.866738     0.843340
Rotational constants in MHz : 128501.772528 25984.163236 25282.693952

                             ****ORCA TERMINATED NORMALLY****
TOTAL RUN TIME: 0 days 0 hours 1 minutes 6 seconds 394 msec
