                         Program Version 4.1.2  - RELEASE  -
|  1> #Run DFT-D3 single point of the dimer
|  2> ! wB97X-D3 def2-TZVP TIGHTSCF CHELPG PMODEL PAL8
|  3>
|  4> %base "9-65_DFT_AB"
|  5>
|  6> %scf
|  7> MaxIter 1000
|  8> end
|  9>
| 10> * xyz 0 1
| 11>   C                      8.125646             0.140868             0.205538
| 12>   O                      9.020085             0.985751             0.913121
| 13>   H                      8.829592             1.132982             1.835882
| 14>   H                      7.075105             0.521568             0.141395
| 15>   H                      8.639908             -0.057721            -0.755773
| 16>   H                      8.148752             -0.882839            0.640323
| 17>   C                      4.357055             -0.921012            0.508239
| 18>   O                      4.768038             -2.020735            -0.250055
| 19>   H                      5.388173             -2.572599            0.225571
| 20>   H                      3.704529             -1.196182            1.324755
| 21>   H                      5.206016             -0.304580            0.819030
| 22>   H                      3.826832             -0.204135            -0.156533
| 23> *
| 24>
| 25> #Run DFT-D3 single point of the molecule with dimer basis set
| 26> $new_job
| 27> %base "9-65_DFT_A"
| 28> ! wB97X-D3 def2-TZVP TIGHTSCF CHELPG PMODEL
| 29>
| 30> %scf
| 31> MaxIter 1000
| 32> end
| 33>
| 34> * xyz 0 1
| 35>   C                      8.125646             0.140868             0.205538
| 36>   O                      9.020085             0.985751             0.913121
| 37>   H                      8.829592             1.132982             1.835882
| 38>   H                      7.075105             0.521568             0.141395
| 39>   H                      8.639908             -0.057721            -0.755773
| 40>   H                      8.148752             -0.882839            0.640323
| 41>   C                    : 4.357055             -0.921012            0.508239
| 42>   O                    : 4.768038             -2.020735            -0.250055
| 43>   H                    : 5.388173             -2.572599            0.225571
| 44>   H                    : 3.704529             -1.196182            1.324755
| 45>   H                    : 5.206016             -0.304580            0.819030
| 46>   H                    : 3.826832             -0.204135            -0.156533
| 47> *
| 48>
| 49> #Run DFT-D3 single point of the particle with dimer basis set
| 50> $new_job
| 51> %base "9-65_DFT_B"
| 52> ! wB97X-D3 def2-TZVP TIGHTSCF CHELPG PMODEL
| 53>
| 54> %scf
| 55> MaxIter 1000
| 56> end
| 57>
| 58> * xyz 0 1
| 59>   C                    : 8.125646             0.140868             0.205538
| 60>   O                    : 9.020085             0.985751             0.913121
| 61>   H                    : 8.829592             1.132982             1.835882
| 62>   H                    : 7.075105             0.521568             0.141395
| 63>   H                    : 8.639908             -0.057721            -0.755773
| 64>   H                    : 8.148752             -0.882839            0.640323
| 65>   C                      4.357055             -0.921012            0.508239
| 66>   O                      4.768038             -2.020735            -0.250055
| 67>   H                      5.388173             -2.572599            0.225571
| 68>   H                      3.704529             -1.196182            1.324755
| 69>   H                      5.206016             -0.304580            0.819030
| 70>   H                      3.826832             -0.204135            -0.156533
| 71> *
| 72>
| 73>                          ****END OF INPUT****
 Total Charge           Charge          ....    0
 Multiplicity           Mult            ....    1
 Number of Electrons    NEL             ....   36
Dispersion correction           -0.001620103
FINAL SINGLE POINT ENERGY      -231.467382264609
Dispersion correction           -0.000272531
FINAL SINGLE POINT ENERGY      -115.731745274297

CARTESIAN COORDINATES (ANGSTROEM)
---------------------------------
  C      8.125646    0.140868    0.205538
  O      9.020085    0.985751    0.913121
  H      8.829592    1.132982    1.835882
  H      7.075105    0.521568    0.141395
  H      8.639908   -0.057721   -0.755773
  H      8.148752   -0.882839    0.640323
  C      4.357055   -0.921012    0.508239
  O      4.768038   -2.020735   -0.250055
  H      5.388173   -2.572599    0.225571
  H      3.704529   -1.196182    1.324755
  H      5.206016   -0.304580    0.819030
  H      3.826832   -0.204135   -0.156533

 Multiplicity           Mult            ....    1
 Number of Electrons    NEL             ....   18
 Basis Dimension        Dim             ....  172

ORBITAL ENERGIES
----------------

  NO   OCC          E(Eh)            E(eV)
   0   2.0000     -19.228424      -523.2320
   1   2.0000     -10.312010      -280.6041
   2   2.0000      -1.139143       -30.9976
   3   2.0000      -0.797021       -21.6881
   4   2.0000      -0.612582       -16.6692
   5   2.0000      -0.552682       -15.0392
   6   2.0000      -0.524364       -14.2687
   7   2.0000      -0.421523       -11.4702
   8   2.0000      -0.376018       -10.2320
   9   0.0000       0.080959         2.2030
  10   0.0000       0.125466         3.4141
  11   0.0000       0.152907         4.1608
  12   0.0000       0.167815         4.5665
  13   0.0000       0.197770         5.3816

MULLIKEN ATOMIC CHARGES
-----------------------
   0 C :   -0.001005
   1 O :    0.000103
   2 H :    0.000024
   3 H :    0.003394
   4 H :    0.000097
   5 H :   -0.001270
   6 C :   -0.153860
   7 O :   -0.480739
   8 H :    0.316123
   9 H :    0.110527
  10 H :    0.092573
  11 H :    0.114033
Sum of atomic charges:   -0.0000000

LOEWDIN ATOMIC CHARGES
----------------------
   0 C :   -0.004954
   1 O :   -0.000032
   2 H :   -0.000012
   3 H :   -0.006114
   4 H :   -0.000038
   5 H :   -0.000626
   6 C :   -0.395205
   7 O :   -0.063679
   8 H :    0.165976
   9 H :    0.092153
  10 H :    0.098335
  11 H :    0.114195

  Mayer bond orders larger than 0.1
B(  6-C ,  7-O ) :   0.9982 B(  6-C ,  9-H ) :   0.9772 B(  6-C , 10-H ) :   0.9763
B(  6-C , 11-H ) :   0.9736 B(  7-O ,  8-H ) :   0.8966

Dispersion correction           -0.000245963
FINAL SINGLE POINT ENERGY      -115.735302858872

DIPOLE MOMENT
-------------
                                X             Y             Z
Electronic contribution:      0.43691      -1.47698      -0.96757
Nuclear contribution   :     -0.19548       1.56607       1.56269
                        -----------------------------------------
Total Dipole Moment    :      0.24144       0.08909       0.59511
                        -----------------------------------------
Magnitude (a.u.)       :      0.64838
Magnitude (Debye)      :      1.64804

Rotational constants in cm-1:     4.361802     0.835968     0.816020
Rotational constants in MHz : 130763.520301 25061.690214 24463.666355

                             ****ORCA TERMINATED NORMALLY****
TOTAL RUN TIME: 0 days 0 hours 0 minutes 43 seconds 478 msec
