                         Program Version 4.1.2  - RELEASE  -
|  1> #Run DFT-D3 single point of the dimer
|  2> ! wB97X-D3 def2-TZVP TIGHTSCF CHELPG PMODEL PAL8
|  3>
|  4> %base "15-159_DFT_AB"
|  5>
|  6> %scf
|  7> MaxIter 1000
|  8> end
|  9>
| 10> * xyz 0 1
| 11>   C                      -6.181417            4.486553             9.135316
| 12>   O                      -6.207112            3.427450             8.243800
| 13>   H                      -6.841590            3.548929             7.511015
| 14>   H                      -5.713710            5.329035             8.707369
| 15>   H                      -7.179472            4.846988             9.405488
| 16>   H                      -5.829679            4.273217             10.121663
| 17>   C                      -5.632659            5.085313             3.590567
| 18>   O                      -5.862079            5.490800             4.879194
| 19>   H                      -6.522953            4.845330             5.158301
| 20>   H                      -5.175815            4.020753             3.644523
| 21>   H                      -6.566947            4.897796             3.005638
| 22>   H                      -5.058881            5.782737             3.034811
| 23> *
| 24>
| 25> #Run DFT-D3 single point of the molecule with dimer basis set
| 26> $new_job
| 27> %base "15-159_DFT_A"
| 28> ! wB97X-D3 def2-TZVP TIGHTSCF CHELPG PMODEL
| 29>
| 30> %scf
| 31> MaxIter 1000
| 32> end
| 33>
| 34> * xyz 0 1
| 35>   C                      -6.181417            4.486553             9.135316
| 36>   O                      -6.207112            3.427450             8.243800
| 37>   H                      -6.841590            3.548929             7.511015
| 38>   H                      -5.713710            5.329035             8.707369
| 39>   H                      -7.179472            4.846988             9.405488
| 40>   H                      -5.829679            4.273217             10.121663
| 41>   C                    : -5.632659            5.085313             3.590567
| 42>   O                    : -5.862079            5.490800             4.879194
| 43>   H                    : -6.522953            4.845330             5.158301
| 44>   H                    : -5.175815            4.020753             3.644523
| 45>   H                    : -6.566947            4.897796             3.005638
| 46>   H                    : -5.058881            5.782737             3.034811
| 47> *
| 48>
| 49> #Run DFT-D3 single point of the particle with dimer basis set
| 50> $new_job
| 51> %base "15-159_DFT_B"
| 52> ! wB97X-D3 def2-TZVP TIGHTSCF CHELPG PMODEL
| 53>
| 54> %scf
| 55> MaxIter 1000
| 56> end
| 57>
| 58> * xyz 0 1
| 59>   C                    : -6.181417            4.486553             9.135316
| 60>   O                    : -6.207112            3.427450             8.243800
| 61>   H                    : -6.841590            3.548929             7.511015
| 62>   H                    : -5.713710            5.329035             8.707369
| 63>   H                    : -7.179472            4.846988             9.405488
| 64>   H                    : -5.829679            4.273217             10.121663
| 65>   C                      -5.632659            5.085313             3.590567
| 66>   O                      -5.862079            5.490800             4.879194
| 67>   H                      -6.522953            4.845330             5.158301
| 68>   H                      -5.175815            4.020753             3.644523
| 69>   H                      -6.566947            4.897796             3.005638
| 70>   H                      -5.058881            5.782737             3.034811
| 71> *
| 72>
| 73>                          ****END OF INPUT****
 Total Charge           Charge          ....    0
 Multiplicity           Mult            ....    1
 Number of Electrons    NEL             ....   36
Dispersion correction           -0.001106678
FINAL SINGLE POINT ENERGY      -231.456507317382
Dispersion correction           -0.000239288
FINAL SINGLE POINT ENERGY      -115.729318979880

CARTESIAN COORDINATES (ANGSTROEM)
---------------------------------
  C     -6.181417    4.486553    9.135316
  O     -6.207112    3.427450    8.243800
  H     -6.841590    3.548929    7.511015
  H     -5.713710    5.329035    8.707369
  H     -7.179472    4.846988    9.405488
  H     -5.829679    4.273217   10.121663
  C     -5.632659    5.085313    3.590567
  O     -5.862079    5.490800    4.879194
  H     -6.522953    4.845330    5.158301
  H     -5.175815    4.020753    3.644523
  H     -6.566947    4.897796    3.005638
  H     -5.058881    5.782737    3.034811

 Multiplicity           Mult            ....    1
 Number of Electrons    NEL             ....   18
 Basis Dimension        Dim             ....  172

ORBITAL ENERGIES
----------------

  NO   OCC          E(Eh)            E(eV)
   0   2.0000     -19.234418      -523.3951
   1   2.0000     -10.316323      -280.7214
   2   2.0000      -1.157069       -31.4855
   3   2.0000      -0.786983       -21.4149
   4   2.0000      -0.620791       -16.8926
   5   2.0000      -0.547143       -14.8885
   6   2.0000      -0.529284       -14.4025
   7   2.0000      -0.443431       -12.0664
   8   2.0000      -0.365648        -9.9498
   9   0.0000       0.081252         2.2110
  10   0.0000       0.116893         3.1808
  11   0.0000       0.153154         4.1675
  12   0.0000       0.183365         4.9896
  13   0.0000       0.191937         5.2229

MULLIKEN ATOMIC CHARGES
-----------------------
   0 C :    0.000531
   1 O :   -0.000166
   2 H :   -0.001026
   3 H :   -0.001086
   4 H :   -0.000016
   5 H :   -0.000024
   6 C :   -0.182643
   7 O :   -0.444978
   8 H :    0.320122
   9 H :    0.088974
  10 H :    0.096782
  11 H :    0.123531
Sum of atomic charges:   -0.0000000

LOEWDIN ATOMIC CHARGES
----------------------
   0 C :   -0.000406
   1 O :   -0.000248
   2 H :   -0.001647
   3 H :   -0.000403
   4 H :   -0.000003
   5 H :   -0.000005
   6 C :   -0.430103
   7 O :   -0.043697
   8 H :    0.182399
   9 H :    0.101491
  10 H :    0.094366
  11 H :    0.098256

  Mayer bond orders larger than 0.1
B(  6-C ,  7-O ) :   1.0054 B(  6-C ,  9-H ) :   0.9797 B(  6-C , 10-H ) :   0.9754
B(  6-C , 11-H ) :   0.9720 B(  7-O ,  8-H ) :   0.8977

Dispersion correction           -0.000204258
FINAL SINGLE POINT ENERGY      -115.728084884397

DIPOLE MOMENT
-------------
                                X             Y             Z
Electronic contribution:     -0.12007       0.90646       1.72304
Nuclear contribution   :     -0.22259      -1.40812      -2.01080
                        -----------------------------------------
Total Dipole Moment    :     -0.34267      -0.50166      -0.28776
                        -----------------------------------------
Magnitude (a.u.)       :      0.67223
Magnitude (Debye)      :      1.70866

Rotational constants in cm-1:     4.114847     0.883455     0.842464
Rotational constants in MHz : 123359.997719 26485.306202 25256.434106

                             ****ORCA TERMINATED NORMALLY****
TOTAL RUN TIME: 0 days 0 hours 0 minutes 59 seconds 955 msec
