                         Program Version 4.1.2  - RELEASE  -
|  1> #Run DFT-D3 single point of the dimer
|  2> ! wB97X-D3 def2-TZVP TIGHTSCF CHELPG PMODEL PAL8
|  3>
|  4> %base "8-161_DFT_AB"
|  5>
|  6> %scf
|  7> MaxIter 1000
|  8> end
|  9>
| 10> * xyz 0 1
| 11>   C                      -6.920567            0.452519             -9.738635
| 12>   O                      -6.666961            1.375209             -8.650126
| 13>   H                      -5.783965            1.631873             -8.535064
| 14>   H                      -7.922376            0.489124             -10.091410
| 15>   H                      -6.326372            0.705669             -10.608614
| 16>   H                      -6.741449            -0.574719            -9.428028
| 17>   C                      -8.366601            4.584721             -9.133559
| 18>   O                      -7.867684            4.409381             -7.887099
| 19>   H                      -7.312609            3.624490             -7.887407
| 20>   H                      -8.578950            5.536906             -9.423540
| 21>   H                      -7.674801            4.326302             -9.915099
| 22>   H                      -9.268637            4.006692             -9.423970
| 23> *
| 24>
| 25> #Run DFT-D3 single point of the molecule with dimer basis set
| 26> $new_job
| 27> %base "8-161_DFT_A"
| 28> ! wB97X-D3 def2-TZVP TIGHTSCF CHELPG PMODEL
| 29>
| 30> %scf
| 31> MaxIter 1000
| 32> end
| 33>
| 34> * xyz 0 1
| 35>   C                      -6.920567            0.452519             -9.738635
| 36>   O                      -6.666961            1.375209             -8.650126
| 37>   H                      -5.783965            1.631873             -8.535064
| 38>   H                      -7.922376            0.489124             -10.091410
| 39>   H                      -6.326372            0.705669             -10.608614
| 40>   H                      -6.741449            -0.574719            -9.428028
| 41>   C                    : -8.366601            4.584721             -9.133559
| 42>   O                    : -7.867684            4.409381             -7.887099
| 43>   H                    : -7.312609            3.624490             -7.887407
| 44>   H                    : -8.578950            5.536906             -9.423540
| 45>   H                    : -7.674801            4.326302             -9.915099
| 46>   H                    : -9.268637            4.006692             -9.423970
| 47> *
| 48>
| 49> #Run DFT-D3 single point of the particle with dimer basis set
| 50> $new_job
| 51> %base "8-161_DFT_B"
| 52> ! wB97X-D3 def2-TZVP TIGHTSCF CHELPG PMODEL
| 53>
| 54> %scf
| 55> MaxIter 1000
| 56> end
| 57>
| 58> * xyz 0 1
| 59>   C                    : -6.920567            0.452519             -9.738635
| 60>   O                    : -6.666961            1.375209             -8.650126
| 61>   H                    : -5.783965            1.631873             -8.535064
| 62>   H                    : -7.922376            0.489124             -10.091410
| 63>   H                    : -6.326372            0.705669             -10.608614
| 64>   H                    : -6.741449            -0.574719            -9.428028
| 65>   C                      -8.366601            4.584721             -9.133559
| 66>   O                      -7.867684            4.409381             -7.887099
| 67>   H                      -7.312609            3.624490             -7.887407
| 68>   H                      -8.578950            5.536906             -9.423540
| 69>   H                      -7.674801            4.326302             -9.915099
| 70>   H                      -9.268637            4.006692             -9.423970
| 71> *
| 72>
| 73>                          ****END OF INPUT****
 Total Charge           Charge          ....    0
 Multiplicity           Mult            ....    1
 Number of Electrons    NEL             ....   36
Dispersion correction           -0.001705022
FINAL SINGLE POINT ENERGY      -231.462259684353
Dispersion correction           -0.000269320
FINAL SINGLE POINT ENERGY      -115.731818940451

CARTESIAN COORDINATES (ANGSTROEM)
---------------------------------
  C     -6.920567    0.452519   -9.738635
  O     -6.666961    1.375209   -8.650126
  H     -5.783965    1.631873   -8.535064
  H     -7.922376    0.489124  -10.091410
  H     -6.326372    0.705669  -10.608614
  H     -6.741449   -0.574719   -9.428028
  C     -8.366601    4.584721   -9.133559
  O     -7.867684    4.409381   -7.887099
  H     -7.312609    3.624490   -7.887407
  H     -8.578950    5.536906   -9.423540
  H     -7.674801    4.326302   -9.915099
  H     -9.268637    4.006692   -9.423970

 Multiplicity           Mult            ....    1
 Number of Electrons    NEL             ....   18
 Basis Dimension        Dim             ....  172

ORBITAL ENERGIES
----------------

  NO   OCC          E(Eh)            E(eV)
   0   2.0000     -19.235555      -523.4261
   1   2.0000     -10.298726      -280.2426
   2   2.0000      -1.157574       -31.4992
   3   2.0000      -0.805581       -21.9210
   4   2.0000      -0.630618       -17.1600
   5   2.0000      -0.547612       -14.9013
   6   2.0000      -0.539366       -14.6769
   7   2.0000      -0.427939       -11.6448
   8   2.0000      -0.373363       -10.1597
   9   0.0000       0.067866         1.8467
  10   0.0000       0.124909         3.3989
  11   0.0000       0.143465         3.9039
  12   0.0000       0.176340         4.7985
  13   0.0000       0.192030         5.2254

MULLIKEN ATOMIC CHARGES
-----------------------
   0 C :    0.000058
   1 O :   -0.001146
   2 H :   -0.000557
   3 H :   -0.000134
   4 H :   -0.000122
   5 H :    0.000009
   6 C :   -0.160583
   7 O :   -0.457476
   8 H :    0.321258
   9 H :    0.119467
  10 H :    0.095349
  11 H :    0.083876
Sum of atomic charges:   -0.0000000

LOEWDIN ATOMIC CHARGES
----------------------
   0 C :   -0.000697
   1 O :   -0.004945
   2 H :   -0.001262
   3 H :   -0.000081
   4 H :   -0.000053
   5 H :   -0.000008
   6 C :   -0.433383
   7 O :   -0.019027
   8 H :    0.180263
   9 H :    0.089353
  10 H :    0.093853
  11 H :    0.095985

  Mayer bond orders larger than 0.1
B(  6-C ,  7-O ) :   1.0144 B(  6-C ,  9-H ) :   0.9754 B(  6-C , 10-H ) :   0.9865
B(  6-C , 11-H ) :   0.9754 B(  7-O ,  8-H ) :   0.9012

Dispersion correction           -0.000233606
FINAL SINGLE POINT ENERGY      -115.725231585265

DIPOLE MOMENT
-------------
                                X             Y             Z
Electronic contribution:      0.62610      -0.04324       1.95193
Nuclear contribution   :     -0.41363      -0.36494      -2.42126
                        -----------------------------------------
Total Dipole Moment    :      0.21247      -0.40819      -0.46933
                        -----------------------------------------
Magnitude (a.u.)       :      0.65729
Magnitude (Debye)      :      1.67070

Rotational constants in cm-1:     4.775309     0.870971     0.846887
Rotational constants in MHz : 143160.168354 26111.042922 25389.026406

                             ****ORCA TERMINATED NORMALLY****
TOTAL RUN TIME: 0 days 0 hours 0 minutes 45 seconds 398 msec
