                         Program Version 4.1.2  - RELEASE  -
|  1> #Run DFT-D3 single point of the dimer
|  2> ! wB97X-D3 def2-TZVP TIGHTSCF CHELPG PMODEL PAL8
|  3>
|  4> %base "9-113_DFT_AB"
|  5>
|  6> %scf
|  7> MaxIter 1000
|  8> end
|  9>
| 10> * xyz 0 1
| 11>   C                      -5.982742            -6.095501            1.316982
| 12>   O                      -6.760569            -4.916011            1.577320
| 13>   H                      -6.135223            -4.206989            1.780978
| 14>   H                      -5.438071            -6.346295            2.215708
| 15>   H                      -6.528076            -6.986041            1.068226
| 16>   H                      -5.230619            -5.928635            0.561390
| 17>   C                      -6.653174            -7.874248            5.237978
| 18>   O                      -7.979225            -8.104155            4.854656
| 19>   H                      -8.288477            -7.238012            4.502890
| 20>   H                      -6.537435            -6.841876            5.437256
| 21>   H                      -6.311721            -8.503935            6.057070
| 22>   H                      -5.908444            -7.974290            4.460605
| 23> *
| 24>
| 25> #Run DFT-D3 single point of the molecule with dimer basis set
| 26> $new_job
| 27> %base "9-113_DFT_A"
| 28> ! wB97X-D3 def2-TZVP TIGHTSCF CHELPG PMODEL
| 29>
| 30> %scf
| 31> MaxIter 1000
| 32> end
| 33>
| 34> * xyz 0 1
| 35>   C                      -5.982742            -6.095501            1.316982
| 36>   O                      -6.760569            -4.916011            1.577320
| 37>   H                      -6.135223            -4.206989            1.780978
| 38>   H                      -5.438071            -6.346295            2.215708
| 39>   H                      -6.528076            -6.986041            1.068226
| 40>   H                      -5.230619            -5.928635            0.561390
| 41>   C                    : -6.653174            -7.874248            5.237978
| 42>   O                    : -7.979225            -8.104155            4.854656
| 43>   H                    : -8.288477            -7.238012            4.502890
| 44>   H                    : -6.537435            -6.841876            5.437256
| 45>   H                    : -6.311721            -8.503935            6.057070
| 46>   H                    : -5.908444            -7.974290            4.460605
| 47> *
| 48>
| 49> #Run DFT-D3 single point of the particle with dimer basis set
| 50> $new_job
| 51> %base "9-113_DFT_B"
| 52> ! wB97X-D3 def2-TZVP TIGHTSCF CHELPG PMODEL
| 53>
| 54> %scf
| 55> MaxIter 1000
| 56> end
| 57>
| 58> * xyz 0 1
| 59>   C                    : -5.982742            -6.095501            1.316982
| 60>   O                    : -6.760569            -4.916011            1.577320
| 61>   H                    : -6.135223            -4.206989            1.780978
| 62>   H                    : -5.438071            -6.346295            2.215708
| 63>   H                    : -6.528076            -6.986041            1.068226
| 64>   H                    : -5.230619            -5.928635            0.561390
| 65>   C                      -6.653174            -7.874248            5.237978
| 66>   O                      -7.979225            -8.104155            4.854656
| 67>   H                      -8.288477            -7.238012            4.502890
| 68>   H                      -6.537435            -6.841876            5.437256
| 69>   H                      -6.311721            -8.503935            6.057070
| 70>   H                      -5.908444            -7.974290            4.460605
| 71> *
| 72>
| 73>                          ****END OF INPUT****
 Total Charge           Charge          ....    0
 Multiplicity           Mult            ....    1
 Number of Electrons    NEL             ....   36
Dispersion correction           -0.001317529
FINAL SINGLE POINT ENERGY      -231.464227798337
Dispersion correction           -0.000237401
FINAL SINGLE POINT ENERGY      -115.733048759568

CARTESIAN COORDINATES (ANGSTROEM)
---------------------------------
  C     -5.982742   -6.095501    1.316982
  O     -6.760569   -4.916011    1.577320
  H     -6.135223   -4.206989    1.780978
  H     -5.438071   -6.346295    2.215708
  H     -6.528076   -6.986041    1.068226
  H     -5.230619   -5.928635    0.561390
  C     -6.653174   -7.874248    5.237978
  O     -7.979225   -8.104155    4.854656
  H     -8.288477   -7.238012    4.502890
  H     -6.537435   -6.841876    5.437256
  H     -6.311721   -8.503935    6.057070
  H     -5.908444   -7.974290    4.460605

 Multiplicity           Mult            ....    1
 Number of Electrons    NEL             ....   18
 Basis Dimension        Dim             ....  172

ORBITAL ENERGIES
----------------

  NO   OCC          E(Eh)            E(eV)
   0   2.0000     -19.234547      -523.3986
   1   2.0000     -10.305730      -280.4332
   2   2.0000      -1.139577       -31.0095
   3   2.0000      -0.797161       -21.6919
   4   2.0000      -0.619008       -16.8441
   5   2.0000      -0.537988       -14.6394
   6   2.0000      -0.531801       -14.4710
   7   2.0000      -0.440239       -11.9795
   8   2.0000      -0.369768       -10.0619
   9   0.0000       0.075637         2.0582
  10   0.0000       0.117279         3.1913
  11   0.0000       0.150299         4.0898
  12   0.0000       0.159121         4.3299
  13   0.0000       0.196343         5.3428

MULLIKEN ATOMIC CHARGES
-----------------------
   0 C :    0.000925
   1 O :    0.000022
   2 H :   -0.000018
   3 H :   -0.001846
   4 H :   -0.000123
   5 H :    0.000094
   6 C :   -0.167287
   7 O :   -0.466055
   8 H :    0.319204
   9 H :    0.098620
  10 H :    0.121468
  11 H :    0.094996
Sum of atomic charges:   -0.0000000

LOEWDIN ATOMIC CHARGES
----------------------
   0 C :   -0.000917
   1 O :   -0.000025
   2 H :   -0.000004
   3 H :   -0.001544
   4 H :   -0.000128
   5 H :   -0.000020
   6 C :   -0.398622
   7 O :   -0.074355
   8 H :    0.188874
   9 H :    0.089885
  10 H :    0.106000
  11 H :    0.090855

  Mayer bond orders larger than 0.1
B(  6-C ,  7-O ) :   1.0114 B(  6-C ,  9-H ) :   0.9955 B(  6-C , 10-H ) :   0.9748
B(  6-C , 11-H ) :   0.9697 B(  7-O ,  8-H ) :   0.8965

Dispersion correction           -0.000228342
FINAL SINGLE POINT ENERGY      -115.729364174622

DIPOLE MOMENT
-------------
                                X             Y             Z
Electronic contribution:     -1.80042      -0.54404      -0.37741
Nuclear contribution   :      2.11968       1.19865       0.31044
                        -----------------------------------------
Total Dipole Moment    :      0.31926       0.65461      -0.06697
                        -----------------------------------------
Magnitude (a.u.)       :      0.73139
Magnitude (Debye)      :      1.85904

Rotational constants in cm-1:     4.446767     0.852078     0.806352
Rotational constants in MHz : 133310.710025 25544.661200 24173.817041

                             ****ORCA TERMINATED NORMALLY****
TOTAL RUN TIME: 0 days 0 hours 0 minutes 40 seconds 871 msec
