                         Program Version 4.1.2  - RELEASE  -
|  1> #Run DFT-D3 single point of the dimer
|  2> ! wB97X-D3 def2-TZVP TIGHTSCF CHELPG PMODEL PAL8
|  3>
|  4> %base "5-118_DFT_AB"
|  5>
|  6> %scf
|  7> MaxIter 1000
|  8> end
|  9>
| 10> * xyz 0 1
| 11>   C                      -9.545944            -1.925808            -2.997380
| 12>   O                      -9.264013            -3.170088            -3.475293
| 13>   H                      -8.769437            -3.667740            -2.835042
| 14>   H                      -8.792932            -1.236500            -3.249073
| 15>   H                      -10.372462           -1.460632            -3.328128
| 16>   H                      -9.761016            -1.989993            -1.908970
| 17>   C                      -7.477111            -4.456450            -6.946488
| 18>   O                      -7.988286            -4.822817            -5.665183
| 19>   H                      -7.892709            -4.108142            -5.012299
| 20>   H                      -6.388501            -4.259669            -7.003349
| 21>   H                      -7.612256            -5.270702            -7.671501
| 22>   H                      -7.996882            -3.590406            -7.298455
| 23> *
| 24>
| 25> #Run DFT-D3 single point of the molecule with dimer basis set
| 26> $new_job
| 27> %base "5-118_DFT_A"
| 28> ! wB97X-D3 def2-TZVP TIGHTSCF CHELPG PMODEL
| 29>
| 30> %scf
| 31> MaxIter 1000
| 32> end
| 33>
| 34> * xyz 0 1
| 35>   C                      -9.545944            -1.925808            -2.997380
| 36>   O                      -9.264013            -3.170088            -3.475293
| 37>   H                      -8.769437            -3.667740            -2.835042
| 38>   H                      -8.792932            -1.236500            -3.249073
| 39>   H                      -10.372462           -1.460632            -3.328128
| 40>   H                      -9.761016            -1.989993            -1.908970
| 41>   C                    : -7.477111            -4.456450            -6.946488
| 42>   O                    : -7.988286            -4.822817            -5.665183
| 43>   H                    : -7.892709            -4.108142            -5.012299
| 44>   H                    : -6.388501            -4.259669            -7.003349
| 45>   H                    : -7.612256            -5.270702            -7.671501
| 46>   H                    : -7.996882            -3.590406            -7.298455
| 47> *
| 48>
| 49> #Run DFT-D3 single point of the particle with dimer basis set
| 50> $new_job
| 51> %base "5-118_DFT_B"
| 52> ! wB97X-D3 def2-TZVP TIGHTSCF CHELPG PMODEL
| 53>
| 54> %scf
| 55> MaxIter 1000
| 56> end
| 57>
| 58> * xyz 0 1
| 59>   C                    : -9.545944            -1.925808            -2.997380
| 60>   O                    : -9.264013            -3.170088            -3.475293
| 61>   H                    : -8.769437            -3.667740            -2.835042
| 62>   H                    : -8.792932            -1.236500            -3.249073
| 63>   H                    : -10.372462           -1.460632            -3.328128
| 64>   H                    : -9.761016            -1.989993            -1.908970
| 65>   C                      -7.477111            -4.456450            -6.946488
| 66>   O                      -7.988286            -4.822817            -5.665183
| 67>   H                      -7.892709            -4.108142            -5.012299
| 68>   H                      -6.388501            -4.259669            -7.003349
| 69>   H                      -7.612256            -5.270702            -7.671501
| 70>   H                      -7.996882            -3.590406            -7.298455
| 71> *
| 72>
| 73>                          ****END OF INPUT****
 Total Charge           Charge          ....    0
 Multiplicity           Mult            ....    1
 Number of Electrons    NEL             ....   36
Dispersion correction           -0.001329249
FINAL SINGLE POINT ENERGY      -231.460237432261
Dispersion correction           -0.000216202
FINAL SINGLE POINT ENERGY      -115.722557056857

CARTESIAN COORDINATES (ANGSTROEM)
---------------------------------
  C     -9.545944   -1.925808   -2.997380
  O     -9.264013   -3.170088   -3.475293
  H     -8.769437   -3.667740   -2.835042
  H     -8.792932   -1.236500   -3.249073
  H    -10.372462   -1.460632   -3.328128
  H     -9.761016   -1.989993   -1.908970
  C     -7.477111   -4.456450   -6.946488
  O     -7.988286   -4.822817   -5.665183
  H     -7.892709   -4.108142   -5.012299
  H     -6.388501   -4.259669   -7.003349
  H     -7.612256   -5.270702   -7.671501
  H     -7.996882   -3.590406   -7.298455

 Multiplicity           Mult            ....    1
 Number of Electrons    NEL             ....   18
 Basis Dimension        Dim             ....  172

ORBITAL ENERGIES
----------------

  NO   OCC          E(Eh)            E(eV)
   0   2.0000     -19.231393      -523.3128
   1   2.0000     -10.313758      -280.6516
   2   2.0000      -1.127431       -30.6789
   3   2.0000      -0.798275       -21.7222
   4   2.0000      -0.608512       -16.5584
   5   2.0000      -0.543725       -14.7955
   6   2.0000      -0.522672       -14.2226
   7   2.0000      -0.428515       -11.6605
   8   2.0000      -0.374755       -10.1976
   9   0.0000       0.075019         2.0414
  10   0.0000       0.127180         3.4607
  11   0.0000       0.145681         3.9642
  12   0.0000       0.179271         4.8782
  13   0.0000       0.197310         5.3691

MULLIKEN ATOMIC CHARGES
-----------------------
   0 C :   -0.001855
   1 O :   -0.001482
   2 H :   -0.000181
   3 H :    0.000102
   4 H :    0.000083
   5 H :   -0.000001
   6 C :   -0.159820
   7 O :   -0.480241
   8 H :    0.315523
   9 H :    0.100416
  10 H :    0.121666
  11 H :    0.105790
Sum of atomic charges:   -0.0000000

LOEWDIN ATOMIC CHARGES
----------------------
   0 C :   -0.001266
   1 O :   -0.009399
   2 H :   -0.001848
   3 H :   -0.000085
   4 H :   -0.000023
   5 H :   -0.000031
   6 C :   -0.375931
   7 O :   -0.086079
   8 H :    0.176993
   9 H :    0.096354
  10 H :    0.110802
  11 H :    0.090514

  Mayer bond orders larger than 0.1
B(  6-C ,  7-O ) :   0.9992 B(  6-C ,  9-H ) :   0.9722 B(  6-C , 10-H ) :   0.9721
B(  6-C , 11-H ) :   0.9801 B(  7-O ,  8-H ) :   0.8951

Dispersion correction           -0.000264708
FINAL SINGLE POINT ENERGY      -115.734710351918

DIPOLE MOMENT
-------------
                                X             Y             Z
Electronic contribution:     -0.70175      -0.57191       1.60417
Nuclear contribution   :      0.96887       1.17301      -1.73538
                        -----------------------------------------
Total Dipole Moment    :      0.26713       0.60111      -0.13121
                        -----------------------------------------
Magnitude (a.u.)       :      0.67075
Magnitude (Debye)      :      1.70490

Rotational constants in cm-1:     4.419683     0.806505     0.780379
Rotational constants in MHz : 132498.767316 24178.416525 23395.178363

                             ****ORCA TERMINATED NORMALLY****
TOTAL RUN TIME: 0 days 0 hours 1 minutes 3 seconds 678 msec
