                         Program Version 4.1.2  - RELEASE  -
|  1> #Run DFT-D3 single point of the dimer
|  2> ! wB97X-D3 def2-TZVP TIGHTSCF CHELPG PMODEL PAL8
|  3>
|  4> %base "8-96_DFT_AB"
|  5>
|  6> %scf
|  7> MaxIter 1000
|  8> end
|  9>
| 10> * xyz 0 1
| 11>   C                      -4.288569            -3.454093            4.046615
| 12>   O                      -4.072984            -3.445141            5.450072
| 13>   H                      -3.608082            -2.611545            5.566733
| 14>   H                      -3.328369            -3.735090            3.527382
| 15>   H                      -4.996269            -4.232074            3.685555
| 16>   H                      -4.566862            -2.490800            3.649591
| 17>   C                      -3.416509            0.561746             6.178986
| 18>   O                      -3.117772            -0.768218            6.360640
| 19>   H                      -2.176057            -0.872464            6.246538
| 20>   H                      -2.936048            1.057146             5.309851
| 21>   H                      -4.524831            0.648276             6.120792
| 22>   H                      -3.135367            1.118385             7.059823
| 23> *
| 24>
| 25> #Run DFT-D3 single point of the molecule with dimer basis set
| 26> $new_job
| 27> %base "8-96_DFT_A"
| 28> ! wB97X-D3 def2-TZVP TIGHTSCF CHELPG PMODEL
| 29>
| 30> %scf
| 31> MaxIter 1000
| 32> end
| 33>
| 34> * xyz 0 1
| 35>   C                      -4.288569            -3.454093            4.046615
| 36>   O                      -4.072984            -3.445141            5.450072
| 37>   H                      -3.608082            -2.611545            5.566733
| 38>   H                      -3.328369            -3.735090            3.527382
| 39>   H                      -4.996269            -4.232074            3.685555
| 40>   H                      -4.566862            -2.490800            3.649591
| 41>   C                    : -3.416509            0.561746             6.178986
| 42>   O                    : -3.117772            -0.768218            6.360640
| 43>   H                    : -2.176057            -0.872464            6.246538
| 44>   H                    : -2.936048            1.057146             5.309851
| 45>   H                    : -4.524831            0.648276             6.120792
| 46>   H                    : -3.135367            1.118385             7.059823
| 47> *
| 48>
| 49> #Run DFT-D3 single point of the particle with dimer basis set
| 50> $new_job
| 51> %base "8-96_DFT_B"
| 52> ! wB97X-D3 def2-TZVP TIGHTSCF CHELPG PMODEL
| 53>
| 54> %scf
| 55> MaxIter 1000
| 56> end
| 57>
| 58> * xyz 0 1
| 59>   C                    : -4.288569            -3.454093            4.046615
| 60>   O                    : -4.072984            -3.445141            5.450072
| 61>   H                    : -3.608082            -2.611545            5.566733
| 62>   H                    : -3.328369            -3.735090            3.527382
| 63>   H                    : -4.996269            -4.232074            3.685555
| 64>   H                    : -4.566862            -2.490800            3.649591
| 65>   C                      -3.416509            0.561746             6.178986
| 66>   O                      -3.117772            -0.768218            6.360640
| 67>   H                      -2.176057            -0.872464            6.246538
| 68>   H                      -2.936048            1.057146             5.309851
| 69>   H                      -4.524831            0.648276             6.120792
| 70>   H                      -3.135367            1.118385             7.059823
| 71> *
| 72>
| 73>                          ****END OF INPUT****
 Total Charge           Charge          ....    0
 Multiplicity           Mult            ....    1
 Number of Electrons    NEL             ....   36
Dispersion correction           -0.001537938
FINAL SINGLE POINT ENERGY      -231.473640963546
Dispersion correction           -0.000235322
FINAL SINGLE POINT ENERGY      -115.732646477974

CARTESIAN COORDINATES (ANGSTROEM)
---------------------------------
  C     -4.288569   -3.454093    4.046615
  O     -4.072984   -3.445141    5.450072
  H     -3.608082   -2.611545    5.566733
  H     -3.328369   -3.735090    3.527382
  H     -4.996269   -4.232074    3.685555
  H     -4.566862   -2.490800    3.649591
  C     -3.416509    0.561746    6.178986
  O     -3.117772   -0.768218    6.360640
  H     -2.176057   -0.872464    6.246538
  H     -2.936048    1.057146    5.309851
  H     -4.524831    0.648276    6.120792
  H     -3.135367    1.118385    7.059823

 Multiplicity           Mult            ....    1
 Number of Electrons    NEL             ....   18
 Basis Dimension        Dim             ....  172

ORBITAL ENERGIES
----------------

  NO   OCC          E(Eh)            E(eV)
   0   2.0000     -19.231283      -523.3098
   1   2.0000     -10.311230      -280.5828
   2   2.0000      -1.151437       -31.3322
   3   2.0000      -0.793305       -21.5869
   4   2.0000      -0.620849       -16.8942
   5   2.0000      -0.544710       -14.8223
   6   2.0000      -0.529986       -14.4217
   7   2.0000      -0.434210       -11.8155
   8   2.0000      -0.371144       -10.0993
   9   0.0000       0.095627         2.6021
  10   0.0000       0.124028         3.3750
  11   0.0000       0.155060         4.2194
  12   0.0000       0.189197         5.1483
  13   0.0000       0.202794         5.5183

MULLIKEN ATOMIC CHARGES
-----------------------
   0 C :    0.000204
   1 O :    0.002127
   2 H :   -0.014404
   3 H :   -0.000127
   4 H :   -0.000222
   5 H :   -0.001008
   6 C :   -0.156836
   7 O :   -0.454395
   8 H :    0.314660
   9 H :    0.096238
  10 H :    0.115545
  11 H :    0.098219
Sum of atomic charges:    0.0000000

LOEWDIN ATOMIC CHARGES
----------------------
   0 C :   -0.002581
   1 O :   -0.003977
   2 H :   -0.033644
   3 H :   -0.000059
   4 H :   -0.000053
   5 H :   -0.000614
   6 C :   -0.417796
   7 O :   -0.011932
   8 H :    0.170758
   9 H :    0.095560
  10 H :    0.113362
  11 H :    0.090976

  Mayer bond orders larger than 0.1
B(  6-C ,  7-O ) :   0.9941 B(  6-C ,  9-H ) :   0.9725 B(  6-C , 10-H ) :   0.9780
B(  6-C , 11-H ) :   0.9751 B(  7-O ,  8-H ) :   0.8972

Dispersion correction           -0.000226281
FINAL SINGLE POINT ENERGY      -115.735135572689

DIPOLE MOMENT
-------------
                                X             Y             Z
Electronic contribution:      0.31770      -1.80627       0.19683
Nuclear contribution   :      0.17500       2.23988      -0.32177
                        -----------------------------------------
Total Dipole Moment    :      0.49270       0.43362      -0.12494
                        -----------------------------------------
Magnitude (a.u.)       :      0.66812
Magnitude (Debye)      :      1.69823

Rotational constants in cm-1:     4.275296     0.872511     0.833419
Rotational constants in MHz : 128170.138051 26157.236417 24985.262500

                             ****ORCA TERMINATED NORMALLY****
TOTAL RUN TIME: 0 days 0 hours 0 minutes 37 seconds 976 msec
