                         Program Version 4.1.2  - RELEASE  -
|  1> #Run DFT-D3 single point of the dimer
|  2> ! wB97X-D3 def2-TZVP TIGHTSCF CHELPG PMODEL PAL8
|  3>
|  4> %base "16-194_DFT_AB"
|  5>
|  6> %scf
|  7> MaxIter 1000
|  8> end
|  9>
| 10> * xyz 0 1
| 11>   C                      -4.469938            -8.227316            9.093711
| 12>   O                      -3.499628            -7.291823            9.435527
| 13>   H                      -3.079934            -7.780762            10.109165
| 14>   H                      -5.140449            -8.320095            9.937499
| 15>   H                      -5.088052            -7.965560            8.212629
| 16>   H                      -4.129362            -9.236390            8.853069
| 17>   C                      -2.431092            -4.504879            7.282156
| 18>   O                      -3.638135            -5.168511            7.354368
| 19>   H                      -3.732444            -5.661305            8.171016
| 20>   H                      -2.234461            -3.994415            8.186708
| 21>   H                      -1.660578            -5.252944            7.091493
| 22>   H                      -2.378089            -3.642329            6.586630
| 23> *
| 24>
| 25> #Run DFT-D3 single point of the molecule with dimer basis set
| 26> $new_job
| 27> %base "16-194_DFT_A"
| 28> ! wB97X-D3 def2-TZVP TIGHTSCF CHELPG PMODEL
| 29>
| 30> %scf
| 31> MaxIter 1000
| 32> end
| 33>
| 34> * xyz 0 1
| 35>   C                      -4.469938            -8.227316            9.093711
| 36>   O                      -3.499628            -7.291823            9.435527
| 37>   H                      -3.079934            -7.780762            10.109165
| 38>   H                      -5.140449            -8.320095            9.937499
| 39>   H                      -5.088052            -7.965560            8.212629
| 40>   H                      -4.129362            -9.236390            8.853069
| 41>   C                    : -2.431092            -4.504879            7.282156
| 42>   O                    : -3.638135            -5.168511            7.354368
| 43>   H                    : -3.732444            -5.661305            8.171016
| 44>   H                    : -2.234461            -3.994415            8.186708
| 45>   H                    : -1.660578            -5.252944            7.091493
| 46>   H                    : -2.378089            -3.642329            6.586630
| 47> *
| 48>
| 49> #Run DFT-D3 single point of the particle with dimer basis set
| 50> $new_job
| 51> %base "16-194_DFT_B"
| 52> ! wB97X-D3 def2-TZVP TIGHTSCF CHELPG PMODEL
| 53>
| 54> %scf
| 55> MaxIter 1000
| 56> end
| 57>
| 58> * xyz 0 1
| 59>   C                    : -4.469938            -8.227316            9.093711
| 60>   O                    : -3.499628            -7.291823            9.435527
| 61>   H                    : -3.079934            -7.780762            10.109165
| 62>   H                    : -5.140449            -8.320095            9.937499
| 63>   H                    : -5.088052            -7.965560            8.212629
| 64>   H                    : -4.129362            -9.236390            8.853069
| 65>   C                      -2.431092            -4.504879            7.282156
| 66>   O                      -3.638135            -5.168511            7.354368
| 67>   H                      -3.732444            -5.661305            8.171016
| 68>   H                      -2.234461            -3.994415            8.186708
| 69>   H                      -1.660578            -5.252944            7.091493
| 70>   H                      -2.378089            -3.642329            6.586630
| 71> *
| 72>
| 73>                          ****END OF INPUT****
 Total Charge           Charge          ....    0
 Multiplicity           Mult            ....    1
 Number of Electrons    NEL             ....   36
Dispersion correction           -0.001600864
FINAL SINGLE POINT ENERGY      -231.466222763026
Dispersion correction           -0.000210604
FINAL SINGLE POINT ENERGY      -115.729530963918

CARTESIAN COORDINATES (ANGSTROEM)
---------------------------------
  C     -4.469938   -8.227316    9.093711
  O     -3.499628   -7.291823    9.435527
  H     -3.079934   -7.780762   10.109165
  H     -5.140449   -8.320095    9.937499
  H     -5.088052   -7.965560    8.212629
  H     -4.129362   -9.236390    8.853069
  C     -2.431092   -4.504879    7.282156
  O     -3.638135   -5.168511    7.354368
  H     -3.732444   -5.661305    8.171016
  H     -2.234461   -3.994415    8.186708
  H     -1.660578   -5.252944    7.091493
  H     -2.378089   -3.642329    6.586630

 Multiplicity           Mult            ....    1
 Number of Electrons    NEL             ....   18
 Basis Dimension        Dim             ....  172

ORBITAL ENERGIES
----------------

  NO   OCC          E(Eh)            E(eV)
   0   2.0000     -19.227194      -523.1985
   1   2.0000     -10.307845      -280.4907
   2   2.0000      -1.144682       -31.1484
   3   2.0000      -0.798563       -21.7300
   4   2.0000      -0.618631       -16.8338
   5   2.0000      -0.556921       -15.1546
   6   2.0000      -0.529481       -14.4079
   7   2.0000      -0.419144       -11.4055
   8   2.0000      -0.372249       -10.1294
   9   0.0000       0.073337         1.9956
  10   0.0000       0.131159         3.5690
  11   0.0000       0.154837         4.2133
  12   0.0000       0.168125         4.5749
  13   0.0000       0.191517         5.2114

MULLIKEN ATOMIC CHARGES
-----------------------
   0 C :   -0.003785
   1 O :   -0.002598
   2 H :   -0.000163
   3 H :    0.000006
   4 H :   -0.001185
   5 H :    0.000315
   6 C :   -0.150600
   7 O :   -0.475390
   8 H :    0.319507
   9 H :    0.100965
  10 H :    0.098710
  11 H :    0.114216
Sum of atomic charges:   -0.0000000

LOEWDIN ATOMIC CHARGES
----------------------
   0 C :   -0.005301
   1 O :   -0.014382
   2 H :   -0.000587
   3 H :   -0.000095
   4 H :   -0.001271
   5 H :   -0.000056
   6 C :   -0.407227
   7 O :   -0.044555
   8 H :    0.177053
   9 H :    0.088057
  10 H :    0.095905
  11 H :    0.112460

  Mayer bond orders larger than 0.1
B(  6-C ,  7-O ) :   0.9936 B(  6-C ,  9-H ) :   0.9859 B(  6-C , 10-H ) :   0.9815
B(  6-C , 11-H ) :   0.9677 B(  7-O ,  8-H ) :   0.8965

Dispersion correction           -0.000223801
FINAL SINGLE POINT ENERGY      -115.729894856068

DIPOLE MOMENT
-------------
                                X             Y             Z
Electronic contribution:     -1.61361      -0.82219      -0.08403
Nuclear contribution   :      2.02230       0.80296       0.60884
                        -----------------------------------------
Total Dipole Moment    :      0.40869      -0.01923       0.52481
                        -----------------------------------------
Magnitude (a.u.)       :      0.66545
Magnitude (Debye)      :      1.69143

Rotational constants in cm-1:     4.469543     0.855101     0.833315
Rotational constants in MHz : 133993.518105 25635.272243 24982.143279

                             ****ORCA TERMINATED NORMALLY****
TOTAL RUN TIME: 0 days 0 hours 1 minutes 4 seconds 17 msec
