                         Program Version 4.1.2  - RELEASE  -
|  1> #Run DFT-D3 single point of the dimer
|  2> ! wB97X-D3 def2-TZVP TIGHTSCF CHELPG PMODEL PAL8
|  3>
|  4> %base "20-61_DFT_AB"
|  5>
|  6> %scf
|  7> MaxIter 1000
|  8> end
|  9>
| 10> * xyz 0 1
| 11>   C                      6.774995             -8.324252            -6.953877
| 12>   O                      7.881105             -8.521997            -6.079112
| 13>   H                      7.517149             -8.829247            -5.213137
| 14>   H                      6.347906             -9.271718            -7.258913
| 15>   H                      6.000089             -7.780573            -6.407686
| 16>   H                      7.153695             -7.866640            -7.863631
| 17>   C                      5.541731             -4.886957            -5.406933
| 18>   O                      4.165482             -5.073330            -5.385723
| 19>   H                      3.821081             -4.420379            -4.785705
| 20>   H                      5.878551             -3.987001            -5.917667
| 21>   H                      5.869458             -4.938224            -4.330917
| 22>   H                      6.037423             -5.674924            -5.972519
| 23> *
| 24>
| 25> #Run DFT-D3 single point of the molecule with dimer basis set
| 26> $new_job
| 27> %base "20-61_DFT_A"
| 28> ! wB97X-D3 def2-TZVP TIGHTSCF CHELPG PMODEL
| 29>
| 30> %scf
| 31> MaxIter 1000
| 32> end
| 33>
| 34> * xyz 0 1
| 35>   C                      6.774995             -8.324252            -6.953877
| 36>   O                      7.881105             -8.521997            -6.079112
| 37>   H                      7.517149             -8.829247            -5.213137
| 38>   H                      6.347906             -9.271718            -7.258913
| 39>   H                      6.000089             -7.780573            -6.407686
| 40>   H                      7.153695             -7.866640            -7.863631
| 41>   C                    : 5.541731             -4.886957            -5.406933
| 42>   O                    : 4.165482             -5.073330            -5.385723
| 43>   H                    : 3.821081             -4.420379            -4.785705
| 44>   H                    : 5.878551             -3.987001            -5.917667
| 45>   H                    : 5.869458             -4.938224            -4.330917
| 46>   H                    : 6.037423             -5.674924            -5.972519
| 47> *
| 48>
| 49> #Run DFT-D3 single point of the particle with dimer basis set
| 50> $new_job
| 51> %base "20-61_DFT_B"
| 52> ! wB97X-D3 def2-TZVP TIGHTSCF CHELPG PMODEL
| 53>
| 54> %scf
| 55> MaxIter 1000
| 56> end
| 57>
| 58> * xyz 0 1
| 59>   C                    : 6.774995             -8.324252            -6.953877
| 60>   O                    : 7.881105             -8.521997            -6.079112
| 61>   H                    : 7.517149             -8.829247            -5.213137
| 62>   H                    : 6.347906             -9.271718            -7.258913
| 63>   H                    : 6.000089             -7.780573            -6.407686
| 64>   H                    : 7.153695             -7.866640            -7.863631
| 65>   C                      5.541731             -4.886957            -5.406933
| 66>   O                      4.165482             -5.073330            -5.385723
| 67>   H                      3.821081             -4.420379            -4.785705
| 68>   H                      5.878551             -3.987001            -5.917667
| 69>   H                      5.869458             -4.938224            -4.330917
| 70>   H                      6.037423             -5.674924            -5.972519
| 71> *
| 72>
| 73>                          ****END OF INPUT****
 Total Charge           Charge          ....    0
 Multiplicity           Mult            ....    1
 Number of Electrons    NEL             ....   36
Dispersion correction           -0.001429264
FINAL SINGLE POINT ENERGY      -231.468605896167
Dispersion correction           -0.000226969
FINAL SINGLE POINT ENERGY      -115.734287267228

CARTESIAN COORDINATES (ANGSTROEM)
---------------------------------
  C      6.774995   -8.324252   -6.953877
  O      7.881105   -8.521997   -6.079112
  H      7.517149   -8.829247   -5.213137
  H      6.347906   -9.271718   -7.258913
  H      6.000089   -7.780573   -6.407686
  H      7.153695   -7.866640   -7.863631
  C      5.541731   -4.886957   -5.406933
  O      4.165482   -5.073330   -5.385723
  H      3.821081   -4.420379   -4.785705
  H      5.878551   -3.987001   -5.917667
  H      5.869458   -4.938224   -4.330917
  H      6.037423   -5.674924   -5.972519

 Multiplicity           Mult            ....    1
 Number of Electrons    NEL             ....   18
 Basis Dimension        Dim             ....  172

ORBITAL ENERGIES
----------------

  NO   OCC          E(Eh)            E(eV)
   0   2.0000     -19.229217      -523.2536
   1   2.0000     -10.312883      -280.6278
   2   2.0000      -1.147434       -31.2233
   3   2.0000      -0.792921       -21.5765
   4   2.0000      -0.611972       -16.6526
   5   2.0000      -0.552092       -15.0232
   6   2.0000      -0.529960       -14.4209
   7   2.0000      -0.428905       -11.6711
   8   2.0000      -0.372686       -10.1413
   9   0.0000       0.090365         2.4589
  10   0.0000       0.117724         3.2034
  11   0.0000       0.161164         4.3855
  12   0.0000       0.165405         4.5009
  13   0.0000       0.196481         5.3465

MULLIKEN ATOMIC CHARGES
-----------------------
   0 C :   -0.002682
   1 O :    0.000031
   2 H :   -0.000040
   3 H :    0.000221
   4 H :    0.005853
   5 H :   -0.000562
   6 C :   -0.163515
   7 O :   -0.461110
   8 H :    0.314087
   9 H :    0.099602
  10 H :    0.095472
  11 H :    0.112644
Sum of atomic charges:   -0.0000000

LOEWDIN ATOMIC CHARGES
----------------------
   0 C :   -0.006374
   1 O :   -0.000059
   2 H :   -0.000071
   3 H :   -0.000050
   4 H :   -0.005318
   5 H :   -0.000334
   6 C :   -0.405075
   7 O :   -0.054386
   8 H :    0.166696
   9 H :    0.091364
  10 H :    0.102557
  11 H :    0.111049

  Mayer bond orders larger than 0.1
B(  6-C ,  7-O ) :   1.0123 B(  6-C ,  9-H ) :   0.9698 B(  6-C , 10-H ) :   0.9920
B(  6-C , 11-H ) :   0.9761 B(  7-O ,  8-H ) :   0.9013

Dispersion correction           -0.000222989
FINAL SINGLE POINT ENERGY      -115.733323454684

DIPOLE MOMENT
-------------
                                X             Y             Z
Electronic contribution:     -1.81131      -0.31243      -0.11921
Nuclear contribution   :      2.10925       0.78005       0.46936
                        -----------------------------------------
Total Dipole Moment    :      0.29793       0.46761       0.35015
                        -----------------------------------------
Magnitude (a.u.)       :      0.65577
Magnitude (Debye)      :      1.66683

Rotational constants in cm-1:     4.254128     0.856526     0.828720
Rotational constants in MHz : 127535.543000 25678.012952 24844.403098

                             ****ORCA TERMINATED NORMALLY****
TOTAL RUN TIME: 0 days 0 hours 1 minutes 5 seconds 751 msec
