                         Program Version 4.1.2  - RELEASE  -
|  1> #Run DFT-D3 single point of the dimer
|  2> ! wB97X-D3 def2-TZVP TIGHTSCF CHELPG PMODEL PAL8
|  3>
|  4> %base "6-205_DFT_AB"
|  5>
|  6> %scf
|  7> MaxIter 1000
|  8> end
|  9>
| 10> * xyz 0 1
| 11>   C                      10.895019            6.531657             -6.355594
| 12>   O                      9.685644             5.754134             -6.415221
| 13>   H                      9.301084             5.789789             -7.336204
| 14>   H                      10.717590            7.557502             -5.882452
| 15>   H                      11.654161            5.986355             -5.825441
| 16>   H                      11.412275            6.696927             -7.304675
| 17>   C                      10.496813            2.291172             -6.767728
| 18>   O                      9.821353             2.781170             -5.605187
| 19>   H                      9.984331             3.730434             -5.581937
| 20>   H                      10.211771            1.257417             -6.891050
| 21>   H                      10.150173            2.744717             -7.698629
| 22>   H                      11.557747            2.318200             -6.612343
| 23> *
| 24>
| 25> #Run DFT-D3 single point of the molecule with dimer basis set
| 26> $new_job
| 27> %base "6-205_DFT_A"
| 28> ! wB97X-D3 def2-TZVP TIGHTSCF CHELPG PMODEL
| 29>
| 30> %scf
| 31> MaxIter 1000
| 32> end
| 33>
| 34> * xyz 0 1
| 35>   C                      10.895019            6.531657             -6.355594
| 36>   O                      9.685644             5.754134             -6.415221
| 37>   H                      9.301084             5.789789             -7.336204
| 38>   H                      10.717590            7.557502             -5.882452
| 39>   H                      11.654161            5.986355             -5.825441
| 40>   H                      11.412275            6.696927             -7.304675
| 41>   C                    : 10.496813            2.291172             -6.767728
| 42>   O                    : 9.821353             2.781170             -5.605187
| 43>   H                    : 9.984331             3.730434             -5.581937
| 44>   H                    : 10.211771            1.257417             -6.891050
| 45>   H                    : 10.150173            2.744717             -7.698629
| 46>   H                    : 11.557747            2.318200             -6.612343
| 47> *
| 48>
| 49> #Run DFT-D3 single point of the particle with dimer basis set
| 50> $new_job
| 51> %base "6-205_DFT_B"
| 52> ! wB97X-D3 def2-TZVP TIGHTSCF CHELPG PMODEL
| 53>
| 54> %scf
| 55> MaxIter 1000
| 56> end
| 57>
| 58> * xyz 0 1
| 59>   C                    : 10.895019            6.531657             -6.355594
| 60>   O                    : 9.685644             5.754134             -6.415221
| 61>   H                    : 9.301084             5.789789             -7.336204
| 62>   H                    : 10.717590            7.557502             -5.882452
| 63>   H                    : 11.654161            5.986355             -5.825441
| 64>   H                    : 11.412275            6.696927             -7.304675
| 65>   C                      10.496813            2.291172             -6.767728
| 66>   O                      9.821353             2.781170             -5.605187
| 67>   H                      9.984331             3.730434             -5.581937
| 68>   H                      10.211771            1.257417             -6.891050
| 69>   H                      10.150173            2.744717             -7.698629
| 70>   H                      11.557747            2.318200             -6.612343
| 71> *
| 72>
| 73>                          ****END OF INPUT****
 Total Charge           Charge          ....    0
 Multiplicity           Mult            ....    1
 Number of Electrons    NEL             ....   36
Dispersion correction           -0.001909340
FINAL SINGLE POINT ENERGY      -231.472855915405
Dispersion correction           -0.000284439
FINAL SINGLE POINT ENERGY      -115.730918007094

CARTESIAN COORDINATES (ANGSTROEM)
---------------------------------
  C     10.895019    6.531657   -6.355594
  O      9.685644    5.754134   -6.415221
  H      9.301084    5.789789   -7.336204
  H     10.717590    7.557502   -5.882452
  H     11.654161    5.986355   -5.825441
  H     11.412275    6.696927   -7.304675
  C     10.496813    2.291172   -6.767728
  O      9.821353    2.781170   -5.605187
  H      9.984331    3.730434   -5.581937
  H     10.211771    1.257417   -6.891050
  H     10.150173    2.744717   -7.698629
  H     11.557747    2.318200   -6.612343

 Multiplicity           Mult            ....    1
 Number of Electrons    NEL             ....   18
 Basis Dimension        Dim             ....  172

ORBITAL ENERGIES
----------------

  NO   OCC          E(Eh)            E(eV)
   0   2.0000     -19.230341      -523.2842
   1   2.0000     -10.309617      -280.5389
   2   2.0000      -1.130953       -30.7748
   3   2.0000      -0.798473       -21.7276
   4   2.0000      -0.603394       -16.4192
   5   2.0000      -0.552307       -15.0290
   6   2.0000      -0.521251       -14.1840
   7   2.0000      -0.432819       -11.7776
   8   2.0000      -0.377563       -10.2740
   9   0.0000       0.068377         1.8606
  10   0.0000       0.135998         3.7007
  11   0.0000       0.150683         4.1003
  12   0.0000       0.155158         4.2221
  13   0.0000       0.192165         5.2291

MULLIKEN ATOMIC CHARGES
-----------------------
   0 C :   -0.000558
   1 O :   -0.002888
   2 H :   -0.000312
   3 H :   -0.000011
   4 H :   -0.000779
   5 H :   -0.000115
   6 C :   -0.171977
   7 O :   -0.472456
   8 H :    0.310840
   9 H :    0.119760
  10 H :    0.105186
  11 H :    0.113309
Sum of atomic charges:   -0.0000000

LOEWDIN ATOMIC CHARGES
----------------------
   0 C :   -0.002851
   1 O :   -0.010214
   2 H :   -0.000914
   3 H :   -0.000041
   4 H :   -0.000763
   5 H :   -0.000033
   6 C :   -0.371333
   7 O :   -0.082556
   8 H :    0.170850
   9 H :    0.107372
  10 H :    0.096779
  11 H :    0.093704

  Mayer bond orders larger than 0.1
B(  6-C ,  7-O ) :   0.9945 B(  6-C ,  9-H ) :   0.9761 B(  6-C , 10-H ) :   0.9719
B(  6-C , 11-H ) :   0.9788 B(  7-O ,  8-H ) :   0.9097

Dispersion correction           -0.000239182
FINAL SINGLE POINT ENERGY      -115.735606658338

DIPOLE MOMENT
-------------
                                X             Y             Z
Electronic contribution:     -0.82851       0.55121       1.47395
Nuclear contribution   :      1.19244      -0.18824      -1.93453
                        -----------------------------------------
Total Dipole Moment    :      0.36393       0.36297      -0.46058
                        -----------------------------------------
Magnitude (a.u.)       :      0.69016
Magnitude (Debye)      :      1.75425

Rotational constants in cm-1:     4.335390     0.816196     0.796516
Rotational constants in MHz : 129971.722899 24468.931021 23878.942527

                             ****ORCA TERMINATED NORMALLY****
TOTAL RUN TIME: 0 days 0 hours 1 minutes 6 seconds 486 msec
