                         Program Version 4.1.2  - RELEASE  -
|  1> #Run DFT-D3 single point of the dimer
|  2> ! wB97X-D3 def2-TZVP TIGHTSCF CHELPG PMODEL PAL8
|  3>
|  4> %base "9-184_DFT_AB"
|  5>
|  6> %scf
|  7> MaxIter 1000
|  8> end
|  9>
| 10> * xyz 0 1
| 11>   C                      6.804729             -0.704950            -7.887372
| 12>   O                      6.880612             -0.780466            -6.510407
| 13>   H                      5.998405             -0.399202            -6.234697
| 14>   H                      6.714294             0.342901             -8.198048
| 15>   H                      7.732238             -1.110725            -8.347667
| 16>   H                      5.955156             -1.278324            -8.377200
| 17>   C                      5.959884             -4.077590            -6.042048
| 18>   O                      7.105478             -3.615457            -5.359312
| 19>   H                      7.306904             -2.756552            -5.688698
| 20>   H                      5.968676             -5.167919            -6.067084
| 21>   H                      4.999125             -3.813058            -5.600575
| 22>   H                      6.027515             -3.788967            -7.029227
| 23> *
| 24>
| 25> #Run DFT-D3 single point of the molecule with dimer basis set
| 26> $new_job
| 27> %base "9-184_DFT_A"
| 28> ! wB97X-D3 def2-TZVP TIGHTSCF CHELPG PMODEL
| 29>
| 30> %scf
| 31> MaxIter 1000
| 32> end
| 33>
| 34> * xyz 0 1
| 35>   C                      6.804729             -0.704950            -7.887372
| 36>   O                      6.880612             -0.780466            -6.510407
| 37>   H                      5.998405             -0.399202            -6.234697
| 38>   H                      6.714294             0.342901             -8.198048
| 39>   H                      7.732238             -1.110725            -8.347667
| 40>   H                      5.955156             -1.278324            -8.377200
| 41>   C                    : 5.959884             -4.077590            -6.042048
| 42>   O                    : 7.105478             -3.615457            -5.359312
| 43>   H                    : 7.306904             -2.756552            -5.688698
| 44>   H                    : 5.968676             -5.167919            -6.067084
| 45>   H                    : 4.999125             -3.813058            -5.600575
| 46>   H                    : 6.027515             -3.788967            -7.029227
| 47> *
| 48>
| 49> #Run DFT-D3 single point of the particle with dimer basis set
| 50> $new_job
| 51> %base "9-184_DFT_B"
| 52> ! wB97X-D3 def2-TZVP TIGHTSCF CHELPG PMODEL
| 53>
| 54> %scf
| 55> MaxIter 1000
| 56> end
| 57>
| 58> * xyz 0 1
| 59>   C                    : 6.804729             -0.704950            -7.887372
| 60>   O                    : 6.880612             -0.780466            -6.510407
| 61>   H                    : 5.998405             -0.399202            -6.234697
| 62>   H                    : 6.714294             0.342901             -8.198048
| 63>   H                    : 7.732238             -1.110725            -8.347667
| 64>   H                    : 5.955156             -1.278324            -8.377200
| 65>   C                      5.959884             -4.077590            -6.042048
| 66>   O                      7.105478             -3.615457            -5.359312
| 67>   H                      7.306904             -2.756552            -5.688698
| 68>   H                      5.968676             -5.167919            -6.067084
| 69>   H                      4.999125             -3.813058            -5.600575
| 70>   H                      6.027515             -3.788967            -7.029227
| 71> *
| 72>
| 73>                          ****END OF INPUT****
 Total Charge           Charge          ....    0
 Multiplicity           Mult            ....    1
 Number of Electrons    NEL             ....   36
Dispersion correction           -0.002086038
FINAL SINGLE POINT ENERGY      -231.472541665429
Dispersion correction           -0.000228364
FINAL SINGLE POINT ENERGY      -115.732619319516

CARTESIAN COORDINATES (ANGSTROEM)
---------------------------------
  C      6.804729   -0.704950   -7.887372
  O      6.880612   -0.780466   -6.510407
  H      5.998405   -0.399202   -6.234697
  H      6.714294    0.342901   -8.198048
  H      7.732238   -1.110725   -8.347667
  H      5.955156   -1.278324   -8.377200
  C      5.959884   -4.077590   -6.042048
  O      7.105478   -3.615457   -5.359312
  H      7.306904   -2.756552   -5.688698
  H      5.968676   -5.167919   -6.067084
  H      4.999125   -3.813058   -5.600575
  H      6.027515   -3.788967   -7.029227

 Multiplicity           Mult            ....    1
 Number of Electrons    NEL             ....   18
 Basis Dimension        Dim             ....  172

ORBITAL ENERGIES
----------------

  NO   OCC          E(Eh)            E(eV)
   0   2.0000     -19.228664      -523.2386
   1   2.0000     -10.305069      -280.4152
   2   2.0000      -1.140986       -31.0478
   3   2.0000      -0.803025       -21.8514
   4   2.0000      -0.615775       -16.7561
   5   2.0000      -0.550238       -14.9727
   6   2.0000      -0.527935       -14.3659
   7   2.0000      -0.432942       -11.7810
   8   2.0000      -0.376713       -10.2509
   9   0.0000       0.068462         1.8629
  10   0.0000       0.139402         3.7933
  11   0.0000       0.149032         4.0554
  12   0.0000       0.156706         4.2642
  13   0.0000       0.194057         5.2806

MULLIKEN ATOMIC CHARGES
-----------------------
   0 C :   -0.001852
   1 O :   -0.002277
   2 H :   -0.000226
   3 H :    0.000005
   4 H :    0.000143
   5 H :   -0.000397
   6 C :   -0.162736
   7 O :   -0.471487
   8 H :    0.311152
   9 H :    0.117376
  10 H :    0.098777
  11 H :    0.111523
Sum of atomic charges:   -0.0000000

LOEWDIN ATOMIC CHARGES
----------------------
   0 C :   -0.003987
   1 O :   -0.010676
   2 H :   -0.000907
   3 H :   -0.000061
   4 H :   -0.000212
   5 H :   -0.001003
   6 C :   -0.374733
   7 O :   -0.057043
   8 H :    0.159517
   9 H :    0.108503
  10 H :    0.095564
  11 H :    0.085039

  Mayer bond orders larger than 0.1
B(  6-C ,  7-O ) :   0.9961 B(  6-C ,  9-H ) :   0.9772 B(  6-C , 10-H ) :   0.9735
B(  6-C , 11-H ) :   0.9860 B(  7-O ,  8-H ) :   0.9126

Dispersion correction           -0.000234290
FINAL SINGLE POINT ENERGY      -115.732605088787

DIPOLE MOMENT
-------------
                                X             Y             Z
Electronic contribution:      1.44193       0.57165       0.93797
Nuclear contribution   :     -1.75886      -0.22001      -1.45243
                        -----------------------------------------
Total Dipole Moment    :     -0.31693       0.35163      -0.51445
                        -----------------------------------------
Magnitude (a.u.)       :      0.69911
Magnitude (Debye)      :      1.77700

Rotational constants in cm-1:     4.530717     0.834221     0.810614
Rotational constants in MHz : 135827.479100 25009.303787 24301.593002

                             ****ORCA TERMINATED NORMALLY****
TOTAL RUN TIME: 0 days 0 hours 0 minutes 46 seconds 631 msec
