                         Program Version 4.1.2  - RELEASE  -
|  1> #Run DFT-D3 single point of the dimer
|  2> ! wB97X-D3 def2-TZVP TIGHTSCF CHELPG PMODEL PAL8
|  3>
|  4> %base "1-88_DFT_AB"
|  5>
|  6> %scf
|  7> MaxIter 1000
|  8> end
|  9>
| 10> * xyz 0 1
| 11>   C                      -7.546642            5.310844             -2.485952
| 12>   O                      -6.537382            4.702897             -1.704250
| 13>   H                      -6.634103            3.799627             -2.072274
| 14>   H                      -7.343214            5.297082             -3.570693
| 15>   H                      -8.497672            4.889586             -2.433377
| 16>   H                      -7.670592            6.410111             -2.234567
| 17>   C                      -5.483037            7.300299             -1.008413
| 18>   O                      -5.819396            8.662700             -0.637939
| 19>   H                      -6.117906            9.242234             -1.359859
| 20>   H                      -4.475292            7.022951             -0.745541
| 21>   H                      -6.112279            6.623709             -0.355056
| 22>   H                      -5.780481            6.976767             -2.064381
| 23> *
| 24>
| 25> #Run DFT-D3 single point of the molecule with dimer basis set
| 26> $new_job
| 27> %base "1-88_DFT_A"
| 28> ! wB97X-D3 def2-TZVP TIGHTSCF CHELPG PMODEL
| 29>
| 30> %scf
| 31> MaxIter 1000
| 32> end
| 33>
| 34> * xyz 0 1
| 35>   C                      -7.546642            5.310844             -2.485952
| 36>   O                      -6.537382            4.702897             -1.704250
| 37>   H                      -6.634103            3.799627             -2.072274
| 38>   H                      -7.343214            5.297082             -3.570693
| 39>   H                      -8.497672            4.889586             -2.433377
| 40>   H                      -7.670592            6.410111             -2.234567
| 41>   C                    : -5.483037            7.300299             -1.008413
| 42>   O                    : -5.819396            8.662700             -0.637939
| 43>   H                    : -6.117906            9.242234             -1.359859
| 44>   H                    : -4.475292            7.022951             -0.745541
| 45>   H                    : -6.112279            6.623709             -0.355056
| 46>   H                    : -5.780481            6.976767             -2.064381
| 47> *
| 48>
| 49> #Run DFT-D3 single point of the particle with dimer basis set
| 50> $new_job
| 51> %base "1-88_DFT_B"
| 52> ! wB97X-D3 def2-TZVP TIGHTSCF CHELPG PMODEL
| 53>
| 54> %scf
| 55> MaxIter 1000
| 56> end
| 57>
| 58> * xyz 0 1
| 59>   C                    : -7.546642            5.310844             -2.485952
| 60>   O                    : -6.537382            4.702897             -1.704250
| 61>   H                    : -6.634103            3.799627             -2.072274
| 62>   H                    : -7.343214            5.297082             -3.570693
| 63>   H                    : -8.497672            4.889586             -2.433377
| 64>   H                    : -7.670592            6.410111             -2.234567
| 65>   C                      -5.483037            7.300299             -1.008413
| 66>   O                      -5.819396            8.662700             -0.637939
| 67>   H                      -6.117906            9.242234             -1.359859
| 68>   H                      -4.475292            7.022951             -0.745541
| 69>   H                      -6.112279            6.623709             -0.355056
| 70>   H                      -5.780481            6.976767             -2.064381
| 71> *
| 72>
| 73>                          ****END OF INPUT****
 Total Charge           Charge          ....    0
 Multiplicity           Mult            ....    1
 Number of Electrons    NEL             ....   36
Dispersion correction           -0.002067050
FINAL SINGLE POINT ENERGY      -231.453720758244
Dispersion correction           -0.000227655
FINAL SINGLE POINT ENERGY      -115.728229176910

CARTESIAN COORDINATES (ANGSTROEM)
---------------------------------
  C     -7.546642    5.310844   -2.485952
  O     -6.537382    4.702897   -1.704250
  H     -6.634103    3.799627   -2.072274
  H     -7.343214    5.297082   -3.570693
  H     -8.497672    4.889586   -2.433377
  H     -7.670592    6.410111   -2.234567
  C     -5.483037    7.300299   -1.008413
  O     -5.819396    8.662700   -0.637939
  H     -6.117906    9.242234   -1.359859
  H     -4.475292    7.022951   -0.745541
  H     -6.112279    6.623709   -0.355056
  H     -5.780481    6.976767   -2.064381

 Multiplicity           Mult            ....    1
 Number of Electrons    NEL             ....   18
 Basis Dimension        Dim             ....  172

ORBITAL ENERGIES
----------------

  NO   OCC          E(Eh)            E(eV)
   0   2.0000     -19.230667      -523.2931
   1   2.0000     -10.325549      -280.9725
   2   2.0000      -1.118632       -30.4395
   3   2.0000      -0.795846       -21.6561
   4   2.0000      -0.603811       -16.4305
   5   2.0000      -0.536805       -14.6072
   6   2.0000      -0.515361       -14.0237
   7   2.0000      -0.427344       -11.6286
   8   2.0000      -0.371582       -10.1113
   9   0.0000       0.081828         2.2266
  10   0.0000       0.113422         3.0864
  11   0.0000       0.157694         4.2911
  12   0.0000       0.170847         4.6490
  13   0.0000       0.173547         4.7224

MULLIKEN ATOMIC CHARGES
-----------------------
   0 C :   -0.008337
   1 O :   -0.002569
   2 H :   -0.000551
   3 H :   -0.000134
   4 H :    0.000092
   5 H :    0.005446
   6 C :   -0.147046
   7 O :   -0.498897
   8 H :    0.323000
   9 H :    0.120901
  10 H :    0.105735
  11 H :    0.102360
Sum of atomic charges:   -0.0000000

LOEWDIN ATOMIC CHARGES
----------------------
   0 C :   -0.026055
   1 O :   -0.014549
   2 H :   -0.000539
   3 H :   -0.000920
   4 H :   -0.000302
   5 H :   -0.009850
   6 C :   -0.349099
   7 O :   -0.109253
   8 H :    0.172334
   9 H :    0.097135
  10 H :    0.117447
  11 H :    0.123650

  Mayer bond orders larger than 0.1
B(  6-C ,  7-O ) :   0.9985 B(  6-C ,  9-H ) :   0.9667 B(  6-C , 10-H ) :   0.9798
B(  6-C , 11-H ) :   0.9761 B(  7-O ,  8-H ) :   0.8910

Dispersion correction           -0.000304026
FINAL SINGLE POINT ENERGY      -115.727890955548

DIPOLE MOMENT
-------------
                                X             Y             Z
Electronic contribution:     -0.23383       1.80537       0.47172
Nuclear contribution   :      0.17384      -1.99811      -1.09404
                        -----------------------------------------
Total Dipole Moment    :     -0.06000      -0.19274      -0.62232
                        -----------------------------------------
Magnitude (a.u.)       :      0.65424
Magnitude (Debye)      :      1.66296

Rotational constants in cm-1:     4.297438     0.779001     0.748672
Rotational constants in MHz : 128833.939557 23353.873089 22444.608139

                             ****ORCA TERMINATED NORMALLY****
TOTAL RUN TIME: 0 days 0 hours 5 minutes 55 seconds 267 msec
