                         Program Version 4.1.2  - RELEASE  -
|  1> #Run DFT-D3 single point of the dimer
|  2> ! wB97X-D3 def2-TZVP TIGHTSCF CHELPG PMODEL PAL8
|  3>
|  4> %base "5-74_DFT_AB"
|  5>
|  6> %scf
|  7> MaxIter 1000
|  8> end
|  9>
| 10> * xyz 0 1
| 11>   C                      0.496941             1.392049             5.026981
| 12>   O                      -0.494197            0.337308             5.082726
| 13>   H                      -0.689183            0.394878             4.127763
| 14>   H                      1.282604             1.248695             5.776744
| 15>   H                      1.032644             1.416140             4.066925
| 16>   H                      -0.013328            2.353019             5.225455
| 17>   C                      0.281343             5.425971             7.271081
| 18>   O                      -0.571326            5.965919             8.264859
| 19>   H                      -1.411455            5.583989             8.297878
| 20>   H                      0.226441             4.318300             7.176412
| 21>   H                      0.161979             5.849751             6.212081
| 22>   H                      1.319846             5.539177             7.514093
| 23> *
| 24>
| 25> #Run DFT-D3 single point of the molecule with dimer basis set
| 26> $new_job
| 27> %base "5-74_DFT_A"
| 28> ! wB97X-D3 def2-TZVP TIGHTSCF CHELPG PMODEL
| 29>
| 30> %scf
| 31> MaxIter 1000
| 32> end
| 33>
| 34> * xyz 0 1
| 35>   C                      0.496941             1.392049             5.026981
| 36>   O                      -0.494197            0.337308             5.082726
| 37>   H                      -0.689183            0.394878             4.127763
| 38>   H                      1.282604             1.248695             5.776744
| 39>   H                      1.032644             1.416140             4.066925
| 40>   H                      -0.013328            2.353019             5.225455
| 41>   C                    : 0.281343             5.425971             7.271081
| 42>   O                    : -0.571326            5.965919             8.264859
| 43>   H                    : -1.411455            5.583989             8.297878
| 44>   H                    : 0.226441             4.318300             7.176412
| 45>   H                    : 0.161979             5.849751             6.212081
| 46>   H                    : 1.319846             5.539177             7.514093
| 47> *
| 48>
| 49> #Run DFT-D3 single point of the particle with dimer basis set
| 50> $new_job
| 51> %base "5-74_DFT_B"
| 52> ! wB97X-D3 def2-TZVP TIGHTSCF CHELPG PMODEL
| 53>
| 54> %scf
| 55> MaxIter 1000
| 56> end
| 57>
| 58> * xyz 0 1
| 59>   C                    : 0.496941             1.392049             5.026981
| 60>   O                    : -0.494197            0.337308             5.082726
| 61>   H                    : -0.689183            0.394878             4.127763
| 62>   H                    : 1.282604             1.248695             5.776744
| 63>   H                    : 1.032644             1.416140             4.066925
| 64>   H                    : -0.013328            2.353019             5.225455
| 65>   C                      0.281343             5.425971             7.271081
| 66>   O                      -0.571326            5.965919             8.264859
| 67>   H                      -1.411455            5.583989             8.297878
| 68>   H                      0.226441             4.318300             7.176412
| 69>   H                      0.161979             5.849751             6.212081
| 70>   H                      1.319846             5.539177             7.514093
| 71> *
| 72>
| 73>                          ****END OF INPUT****
 Total Charge           Charge          ....    0
 Multiplicity           Mult            ....    1
 Number of Electrons    NEL             ....   36
Dispersion correction           -0.001042038
FINAL SINGLE POINT ENERGY      -231.459602901642
Dispersion correction           -0.000226452
FINAL SINGLE POINT ENERGY      -115.728781847219

CARTESIAN COORDINATES (ANGSTROEM)
---------------------------------
  C      0.496941    1.392049    5.026981
  O     -0.494197    0.337308    5.082726
  H     -0.689183    0.394878    4.127763
  H      1.282604    1.248695    5.776744
  H      1.032644    1.416140    4.066925
  H     -0.013328    2.353019    5.225455
  C      0.281343    5.425971    7.271081
  O     -0.571326    5.965919    8.264859
  H     -1.411455    5.583989    8.297878
  H      0.226441    4.318300    7.176412
  H      0.161979    5.849751    6.212081
  H      1.319846    5.539177    7.514093

 Multiplicity           Mult            ....    1
 Number of Electrons    NEL             ....   18
 Basis Dimension        Dim             ....  172

ORBITAL ENERGIES
----------------

  NO   OCC          E(Eh)            E(eV)
   0   2.0000     -19.229973      -523.2742
   1   2.0000     -10.320367      -280.8315
   2   2.0000      -1.140897       -31.0454
   3   2.0000      -0.802241       -21.8301
   4   2.0000      -0.619615       -16.8606
   5   2.0000      -0.534645       -14.5484
   6   2.0000      -0.527638       -14.3578
   7   2.0000      -0.425665       -11.5829
   8   2.0000      -0.377616       -10.2755
   9   0.0000       0.083033         2.2594
  10   0.0000       0.122326         3.3287
  11   0.0000       0.142159         3.8684
  12   0.0000       0.170270         4.6333
  13   0.0000       0.186068         5.0632

MULLIKEN ATOMIC CHARGES
-----------------------
   0 C :    0.000628
   1 O :   -0.000017
   2 H :   -0.000010
   3 H :   -0.000177
   4 H :   -0.000055
   5 H :   -0.001507
   6 C :   -0.164823
   7 O :   -0.475395
   8 H :    0.314093
   9 H :    0.104845
  10 H :    0.098343
  11 H :    0.124073
Sum of atomic charges:    0.0000000

LOEWDIN ATOMIC CHARGES
----------------------
   0 C :   -0.001180
   1 O :   -0.000007
   2 H :   -0.000002
   3 H :   -0.000143
   4 H :   -0.000006
   5 H :   -0.001910
   6 C :   -0.390976
   7 O :   -0.056031
   8 H :    0.144012
   9 H :    0.099677
  10 H :    0.103550
  11 H :    0.103017

  Mayer bond orders larger than 0.1
B(  6-C ,  7-O ) :   1.0056 B(  6-C ,  9-H ) :   0.9784 B(  6-C , 10-H ) :   0.9701
B(  6-C , 11-H ) :   0.9709 B(  7-O ,  8-H ) :   0.9019

Dispersion correction           -0.000287705
FINAL SINGLE POINT ENERGY      -115.730318890874

DIPOLE MOMENT
-------------
                                X             Y             Z
Electronic contribution:     -1.10632       0.84975       1.41302
Nuclear contribution   :      0.91226      -1.34599      -1.75956
                        -----------------------------------------
Total Dipole Moment    :     -0.19406      -0.49623      -0.34654
                        -----------------------------------------
Magnitude (a.u.)       :      0.63561
Magnitude (Debye)      :      1.61559

Rotational constants in cm-1:     4.510947     0.798858     0.785475
Rotational constants in MHz : 135234.792391 23949.148792 23547.947062

                             ****ORCA TERMINATED NORMALLY****
TOTAL RUN TIME: 0 days 0 hours 1 minutes 4 seconds 68 msec
