                         Program Version 4.1.2  - RELEASE  -
|  1> #Run DFT-D3 single point of the dimer
|  2> ! wB97X-D3 def2-TZVP TIGHTSCF CHELPG PMODEL PAL8
|  3>
|  4> %base "22-35_DFT_AB"
|  5>
|  6> %scf
|  7> MaxIter 1000
|  8> end
|  9>
| 10> * xyz 0 1
| 11>   C                      -7.103731            6.653923             -1.669574
| 12>   O                      -6.894566            5.210805             -1.789627
| 13>   H                      -7.334692            4.689197             -1.072243
| 14>   H                      -8.194465            6.918869             -1.815733
| 15>   H                      -6.801057            7.072376             -0.661411
| 16>   H                      -6.560077            7.160748             -2.438667
| 17>   C                      -5.629599            2.838499             -4.257140
| 18>   O                      -6.149862            4.151956             -4.511084
| 19>   H                      -6.244268            4.592923             -3.678162
| 20>   H                      -4.527856            2.807374             -4.087594
| 21>   H                      -5.985739            2.538664             -3.276288
| 22>   H                      -5.935220            2.070424             -4.993791
| 23> *
| 24>
| 25> #Run DFT-D3 single point of the molecule with dimer basis set
| 26> $new_job
| 27> %base "22-35_DFT_A"
| 28> ! wB97X-D3 def2-TZVP TIGHTSCF CHELPG PMODEL
| 29>
| 30> %scf
| 31> MaxIter 1000
| 32> end
| 33>
| 34> * xyz 0 1
| 35>   C                      -7.103731            6.653923             -1.669574
| 36>   O                      -6.894566            5.210805             -1.789627
| 37>   H                      -7.334692            4.689197             -1.072243
| 38>   H                      -8.194465            6.918869             -1.815733
| 39>   H                      -6.801057            7.072376             -0.661411
| 40>   H                      -6.560077            7.160748             -2.438667
| 41>   C                    : -5.629599            2.838499             -4.257140
| 42>   O                    : -6.149862            4.151956             -4.511084
| 43>   H                    : -6.244268            4.592923             -3.678162
| 44>   H                    : -4.527856            2.807374             -4.087594
| 45>   H                    : -5.985739            2.538664             -3.276288
| 46>   H                    : -5.935220            2.070424             -4.993791
| 47> *
| 48>
| 49> #Run DFT-D3 single point of the particle with dimer basis set
| 50> $new_job
| 51> %base "22-35_DFT_B"
| 52> ! wB97X-D3 def2-TZVP TIGHTSCF CHELPG PMODEL
| 53>
| 54> %scf
| 55> MaxIter 1000
| 56> end
| 57>
| 58> * xyz 0 1
| 59>   C                    : -7.103731            6.653923             -1.669574
| 60>   O                    : -6.894566            5.210805             -1.789627
| 61>   H                    : -7.334692            4.689197             -1.072243
| 62>   H                    : -8.194465            6.918869             -1.815733
| 63>   H                    : -6.801057            7.072376             -0.661411
| 64>   H                    : -6.560077            7.160748             -2.438667
| 65>   C                      -5.629599            2.838499             -4.257140
| 66>   O                      -6.149862            4.151956             -4.511084
| 67>   H                      -6.244268            4.592923             -3.678162
| 68>   H                      -4.527856            2.807374             -4.087594
| 69>   H                      -5.985739            2.538664             -3.276288
| 70>   H                      -5.935220            2.070424             -4.993791
| 71> *
| 72>
| 73>                          ****END OF INPUT****
 Total Charge           Charge          ....    0
 Multiplicity           Mult            ....    1
 Number of Electrons    NEL             ....   36
Dispersion correction           -0.001697920
FINAL SINGLE POINT ENERGY      -231.471981592606
Dispersion correction           -0.000295650
FINAL SINGLE POINT ENERGY      -115.731943623216

CARTESIAN COORDINATES (ANGSTROEM)
---------------------------------
  C     -7.103731    6.653923   -1.669574
  O     -6.894566    5.210805   -1.789627
  H     -7.334692    4.689197   -1.072243
  H     -8.194465    6.918869   -1.815733
  H     -6.801057    7.072376   -0.661411
  H     -6.560077    7.160748   -2.438667
  C     -5.629599    2.838499   -4.257140
  O     -6.149862    4.151956   -4.511084
  H     -6.244268    4.592923   -3.678162
  H     -4.527856    2.807374   -4.087594
  H     -5.985739    2.538664   -3.276288
  H     -5.935220    2.070424   -4.993791

 Multiplicity           Mult            ....    1
 Number of Electrons    NEL             ....   18
 Basis Dimension        Dim             ....  172

ORBITAL ENERGIES
----------------

  NO   OCC          E(Eh)            E(eV)
   0   2.0000     -19.230554      -523.2900
   1   2.0000     -10.319267      -280.8015
   2   2.0000      -1.133648       -30.8481
   3   2.0000      -0.796294       -21.6683
   4   2.0000      -0.612842       -16.6763
   5   2.0000      -0.533819       -14.5259
   6   2.0000      -0.527898       -14.3648
   7   2.0000      -0.435728       -11.8568
   8   2.0000      -0.373534       -10.1644
   9   0.0000       0.069543         1.8924
  10   0.0000       0.126156         3.4329
  11   0.0000       0.149528         4.0689
  12   0.0000       0.161356         4.3907
  13   0.0000       0.197083         5.3629

MULLIKEN ATOMIC CHARGES
-----------------------
   0 C :   -0.001328
   1 O :   -0.002351
   2 H :    0.000008
   3 H :    0.000082
   4 H :    0.000063
   5 H :   -0.000372
   6 C :   -0.171318
   7 O :   -0.469793
   8 H :    0.312460
   9 H :    0.102958
  10 H :    0.101103
  11 H :    0.128489
Sum of atomic charges:    0.0000000

LOEWDIN ATOMIC CHARGES
----------------------
   0 C :   -0.002713
   1 O :   -0.013082
   2 H :   -0.000662
   3 H :   -0.000049
   4 H :   -0.000037
   5 H :   -0.000496
   6 C :   -0.372418
   7 O :   -0.078250
   8 H :    0.164620
   9 H :    0.098666
  10 H :    0.093836
  11 H :    0.110585

  Mayer bond orders larger than 0.1
B(  6-C ,  7-O ) :   0.9937 B(  6-C ,  9-H ) :   0.9694 B(  6-C , 10-H ) :   0.9875
B(  6-C , 11-H ) :   0.9691 B(  7-O ,  8-H ) :   0.9096

Dispersion correction           -0.000253103
FINAL SINGLE POINT ENERGY      -115.731851487663

DIPOLE MOMENT
-------------
                                X             Y             Z
Electronic contribution:     -0.69677       1.64808      -0.62474
Nuclear contribution   :      0.82782      -1.91421       1.28765
                        -----------------------------------------
Total Dipole Moment    :      0.13105      -0.26612       0.66290
                        -----------------------------------------
Magnitude (a.u.)       :      0.72625
Magnitude (Debye)      :      1.84598

Rotational constants in cm-1:     4.330843     0.807911     0.775137
Rotational constants in MHz : 129835.421795 24220.557943 23238.010963

                             ****ORCA TERMINATED NORMALLY****
TOTAL RUN TIME: 0 days 0 hours 0 minutes 57 seconds 634 msec
