                         Program Version 4.1.2  - RELEASE  -
|  1> #Run DFT geometry optimization
|  2> ! wB97X-D3 def2-TZVP TIGHTSCF Grid5 FinalGrid6 Opt CHELPG PAL4
|  3>
|  4> %base "4_geo_opt"
|  5> %geom MaxIter 500
|  6> end
|  7>
|  8> %geom
|  9>   Constraints
| 10>     { B 2 1 C }
| 11>   end
| 12> end
| 13>
| 14>
| 15> * xyz 0 1
| 16>   C                    3.011268             -1.180975            0.598540
| 17>   O                    4.394633             -1.128128            0.874356
| 18>   H                    4.772235             -0.378944            0.412445
| 19>   H                    2.806395             -1.319043            -0.469301
| 20>   H                    2.611593             -2.040343            1.135947
| 21>   H                    2.484718             -0.284569            0.945707
| 22> *
| 23>
| 24>                          ****END OF INPUT****
 Total Charge           Charge          ....    0
 Multiplicity           Mult            ....    1
 Number of Electrons    NEL             ....   18
Dispersion correction           -0.000239287
FINAL SINGLE POINT ENERGY      -115.738051307954
Dispersion correction            ... done
                    ***********************HURRAY********************

CARTESIAN COORDINATES (ANGSTROEM)
---------------------------------
  C      3.011320   -1.181006    0.598571
  O      4.394657   -1.128113    0.874336
  H      4.772220   -0.378905    0.412432
  H      2.806405   -1.319051   -0.469270
  H      2.611493   -2.040331    1.135921
  H      2.484747   -0.284595    0.945704

 Multiplicity           Mult            ....    1
 Number of Electrons    NEL             ....   18
 Basis Dimension        Dim             ....   86

ORBITAL ENERGIES
----------------

  NO   OCC          E(Eh)            E(eV)
   0   2.0000     -19.228101      -523.2232
   1   2.0000     -10.315107      -280.6883
   2   2.0000      -1.136771       -30.9331
   3   2.0000      -0.795324       -21.6419
   4   2.0000      -0.611574       -16.6418
   5   2.0000      -0.541767       -14.7422
   6   2.0000      -0.526330       -14.3222
   7   2.0000      -0.433784       -11.8039
   8   2.0000      -0.373597       -10.1661
   9   0.0000       0.116621         3.1734
  10   0.0000       0.156667         4.2631
  11   0.0000       0.202577         5.5124
  12   0.0000       0.205117         5.5815
  13   0.0000       0.226364         6.1597

MULLIKEN ATOMIC CHARGES
-----------------------
   0 C :   -0.150852
   1 O :   -0.477663
   2 H :    0.313044
   3 H :    0.098622
   4 H :    0.118225
   5 H :    0.098625
Sum of atomic charges:   -0.0000000

LOEWDIN ATOMIC CHARGES
----------------------
   0 C :   -0.385215
   1 O :   -0.076174
   2 H :    0.165918
   3 H :    0.093394
   4 H :    0.108685
   5 H :    0.093392

  Mayer bond orders larger than 0.1
B(  0-C ,  1-O ) :   0.9987 B(  0-C ,  3-H ) :   0.9755 B(  0-C ,  4-H ) :   0.9749
B(  0-C ,  5-H ) :   0.9755 B(  1-O ,  2-H ) :   0.9002

Dispersion correction           -0.000239283
FINAL SINGLE POINT ENERGY      -115.738051323568

DIPOLE MOMENT
-------------
                                X             Y             Z
Electronic contribution:      1.75603      -0.02835       0.41989
Nuclear contribution   :     -2.06578       0.47598      -0.81754
                        -----------------------------------------
Total Dipole Moment    :     -0.30975       0.44763      -0.39765
                        -----------------------------------------
Magnitude (a.u.)       :      0.67412
Magnitude (Debye)      :      1.71347

Rotational constants in cm-1:     4.292654     0.833812     0.804909
Rotational constants in MHz : 128690.519982 24997.043558 24130.564653

                             ****ORCA TERMINATED NORMALLY****
TOTAL RUN TIME: 0 days 0 hours 0 minutes 36 seconds 318 msec
