                         Program Version 4.1.2  - RELEASE  -
|  1> #Run DFT-D3 single point of the dimer
|  2> ! wB97X-D3 def2-TZVP TIGHTSCF CHELPG PMODEL PAL8
|  3>
|  4> %base "21-37_DFT_AB"
|  5>
|  6> %scf
|  7> MaxIter 1000
|  8> end
|  9>
| 10> * xyz 0 1
| 11>   C                      2.453454             1.166860             -5.874115
| 12>   O                      3.686145             1.240109             -5.184784
| 13>   H                      3.920853             2.166736             -5.242162
| 14>   H                      1.624176             1.779049             -5.362332
| 15>   H                      2.542419             1.779453             -6.767790
| 16>   H                      2.112095             0.179773             -6.170195
| 17>   C                      6.116449             -2.829464            -5.620753
| 18>   O                      6.255045             -2.353373            -6.959713
| 19>   H                      7.130615             -2.363186            -7.284429
| 20>   H                      7.038531             -3.072071            -5.237766
| 21>   H                      5.737454             -2.054060            -4.932750
| 22>   H                      5.437193             -3.696490            -5.586526
| 23> *
| 24>
| 25> #Run DFT-D3 single point of the molecule with dimer basis set
| 26> $new_job
| 27> %base "21-37_DFT_A"
| 28> ! wB97X-D3 def2-TZVP TIGHTSCF CHELPG PMODEL
| 29>
| 30> %scf
| 31> MaxIter 1000
| 32> end
| 33>
| 34> * xyz 0 1
| 35>   C                      2.453454             1.166860             -5.874115
| 36>   O                      3.686145             1.240109             -5.184784
| 37>   H                      3.920853             2.166736             -5.242162
| 38>   H                      1.624176             1.779049             -5.362332
| 39>   H                      2.542419             1.779453             -6.767790
| 40>   H                      2.112095             0.179773             -6.170195
| 41>   C                    : 6.116449             -2.829464            -5.620753
| 42>   O                    : 6.255045             -2.353373            -6.959713
| 43>   H                    : 7.130615             -2.363186            -7.284429
| 44>   H                    : 7.038531             -3.072071            -5.237766
| 45>   H                    : 5.737454             -2.054060            -4.932750
| 46>   H                    : 5.437193             -3.696490            -5.586526
| 47> *
| 48>
| 49> #Run DFT-D3 single point of the particle with dimer basis set
| 50> $new_job
| 51> %base "21-37_DFT_B"
| 52> ! wB97X-D3 def2-TZVP TIGHTSCF CHELPG PMODEL
| 53>
| 54> %scf
| 55> MaxIter 1000
| 56> end
| 57>
| 58> * xyz 0 1
| 59>   C                    : 2.453454             1.166860             -5.874115
| 60>   O                    : 3.686145             1.240109             -5.184784
| 61>   H                    : 3.920853             2.166736             -5.242162
| 62>   H                    : 1.624176             1.779049             -5.362332
| 63>   H                    : 2.542419             1.779453             -6.767790
| 64>   H                    : 2.112095             0.179773             -6.170195
| 65>   C                      6.116449             -2.829464            -5.620753
| 66>   O                      6.255045             -2.353373            -6.959713
| 67>   H                      7.130615             -2.363186            -7.284429
| 68>   H                      7.038531             -3.072071            -5.237766
| 69>   H                      5.737454             -2.054060            -4.932750
| 70>   H                      5.437193             -3.696490            -5.586526
| 71> *
| 72>
| 73>                          ****END OF INPUT****
 Total Charge           Charge          ....    0
 Multiplicity           Mult            ....    1
 Number of Electrons    NEL             ....   36
Dispersion correction           -0.000759249
FINAL SINGLE POINT ENERGY      -231.459035179833
Dispersion correction           -0.000230652
FINAL SINGLE POINT ENERGY      -115.728418531091

CARTESIAN COORDINATES (ANGSTROEM)
---------------------------------
  C      2.453454    1.166860   -5.874115
  O      3.686145    1.240109   -5.184784
  H      3.920853    2.166736   -5.242162
  H      1.624176    1.779049   -5.362332
  H      2.542419    1.779453   -6.767790
  H      2.112095    0.179773   -6.170195
  C      6.116449   -2.829464   -5.620753
  O      6.255045   -2.353373   -6.959713
  H      7.130615   -2.363186   -7.284429
  H      7.038531   -3.072071   -5.237766
  H      5.737454   -2.054060   -4.932750
  H      5.437193   -3.696490   -5.586526

 Multiplicity           Mult            ....    1
 Number of Electrons    NEL             ....   18
 Basis Dimension        Dim             ....  172

ORBITAL ENERGIES
----------------

  NO   OCC          E(Eh)            E(eV)
   0   2.0000     -19.223157      -523.0887
   1   2.0000     -10.309941      -280.5478
   2   2.0000      -1.131904       -30.8007
   3   2.0000      -0.805007       -21.9054
   4   2.0000      -0.617781       -16.8107
   5   2.0000      -0.537342       -14.6218
   6   2.0000      -0.530427       -14.4337
   7   2.0000      -0.428382       -11.6569
   8   2.0000      -0.373212       -10.1556
   9   0.0000       0.090093         2.4516
  10   0.0000       0.119067         3.2400
  11   0.0000       0.151359         4.1187
  12   0.0000       0.170510         4.6398
  13   0.0000       0.185127         5.0376

MULLIKEN ATOMIC CHARGES
-----------------------
   0 C :   -0.000047
   1 O :    0.000002
   2 H :   -0.000003
   3 H :    0.000001
   4 H :    0.000010
   5 H :   -0.000005
   6 C :   -0.149303
   7 O :   -0.490587
   8 H :    0.313786
   9 H :    0.107947
  10 H :    0.108509
  11 H :    0.109689
Sum of atomic charges:   -0.0000000

LOEWDIN ATOMIC CHARGES
----------------------
   0 C :   -0.000045
   1 O :   -0.000058
   2 H :   -0.000004
   3 H :   -0.000002
   4 H :   -0.000001
   5 H :   -0.000008
   6 C :   -0.359801
   7 O :   -0.077915
   8 H :    0.148245
   9 H :    0.081843
  10 H :    0.103670
  11 H :    0.104077

  Mayer bond orders larger than 0.1
B(  6-C ,  7-O ) :   1.0031 B(  6-C ,  9-H ) :   0.9870 B(  6-C , 10-H ) :   0.9724
B(  6-C , 11-H ) :   0.9764 B(  7-O ,  8-H ) :   0.9025

Dispersion correction           -0.000254529
FINAL SINGLE POINT ENERGY      -115.730508863092

DIPOLE MOMENT
-------------
                                X             Y             Z
Electronic contribution:      0.11219       0.56753      -1.67775
Nuclear contribution   :      0.46098      -0.78033       2.04125
                        -----------------------------------------
Total Dipole Moment    :      0.57318      -0.21280       0.36350
                        -----------------------------------------
Magnitude (a.u.)       :      0.71130
Magnitude (Debye)      :      1.80799

Rotational constants in cm-1:     4.547155     0.809760     0.790927
Rotational constants in MHz : 136320.291997 24275.999195 23711.380148

                             ****ORCA TERMINATED NORMALLY****
TOTAL RUN TIME: 0 days 0 hours 0 minutes 57 seconds 812 msec
