                         Program Version 4.1.2  - RELEASE  -
|  1> #Run DFT-D3 single point of the dimer
|  2> ! wB97X-D3 def2-TZVP TIGHTSCF CHELPG PMODEL PAL8
|  3>
|  4> %base "18-164_DFT_AB"
|  5>
|  6> %scf
|  7> MaxIter 1000
|  8> end
|  9>
| 10> * xyz 0 1
| 11>   C                      5.008507             -2.931150            -6.739641
| 12>   O                      3.743547             -2.944197            -6.202089
| 13>   H                      3.206737             -3.256923            -6.888569
| 14>   H                      5.137489             -3.022514            -7.878077
| 15>   H                      5.425506             -1.937246            -6.564943
| 16>   H                      5.645578             -3.705248            -6.302389
| 17>   C                      4.132314             -4.508000            -3.093328
| 18>   O                      3.662731             -5.157739            -4.233245
| 19>   H                      3.680354             -4.542881            -5.006236
| 20>   H                      5.212760             -4.318585            -3.102616
| 21>   H                      3.489929             -3.660465            -2.868530
| 22>   H                      4.111447             -5.225683            -2.260201
| 23> *
| 24>
| 25> #Run DFT-D3 single point of the molecule with dimer basis set
| 26> $new_job
| 27> %base "18-164_DFT_A"
| 28> ! wB97X-D3 def2-TZVP TIGHTSCF CHELPG PMODEL
| 29>
| 30> %scf
| 31> MaxIter 1000
| 32> end
| 33>
| 34> * xyz 0 1
| 35>   C                      5.008507             -2.931150            -6.739641
| 36>   O                      3.743547             -2.944197            -6.202089
| 37>   H                      3.206737             -3.256923            -6.888569
| 38>   H                      5.137489             -3.022514            -7.878077
| 39>   H                      5.425506             -1.937246            -6.564943
| 40>   H                      5.645578             -3.705248            -6.302389
| 41>   C                    : 4.132314             -4.508000            -3.093328
| 42>   O                    : 3.662731             -5.157739            -4.233245
| 43>   H                    : 3.680354             -4.542881            -5.006236
| 44>   H                    : 5.212760             -4.318585            -3.102616
| 45>   H                    : 3.489929             -3.660465            -2.868530
| 46>   H                    : 4.111447             -5.225683            -2.260201
| 47> *
| 48>
| 49> #Run DFT-D3 single point of the particle with dimer basis set
| 50> $new_job
| 51> %base "18-164_DFT_B"
| 52> ! wB97X-D3 def2-TZVP TIGHTSCF CHELPG PMODEL
| 53>
| 54> %scf
| 55> MaxIter 1000
| 56> end
| 57>
| 58> * xyz 0 1
| 59>   C                    : 5.008507             -2.931150            -6.739641
| 60>   O                    : 3.743547             -2.944197            -6.202089
| 61>   H                    : 3.206737             -3.256923            -6.888569
| 62>   H                    : 5.137489             -3.022514            -7.878077
| 63>   H                    : 5.425506             -1.937246            -6.564943
| 64>   H                    : 5.645578             -3.705248            -6.302389
| 65>   C                      4.132314             -4.508000            -3.093328
| 66>   O                      3.662731             -5.157739            -4.233245
| 67>   H                      3.680354             -4.542881            -5.006236
| 68>   H                      5.212760             -4.318585            -3.102616
| 69>   H                      3.489929             -3.660465            -2.868530
| 70>   H                      4.111447             -5.225683            -2.260201
| 71> *
| 72>
| 73>                          ****END OF INPUT****
 Total Charge           Charge          ....    0
 Multiplicity           Mult            ....    1
 Number of Electrons    NEL             ....   36
Dispersion correction           -0.001915053
FINAL SINGLE POINT ENERGY      -231.469897798264
Dispersion correction           -0.000241710
FINAL SINGLE POINT ENERGY      -115.729349009591

CARTESIAN COORDINATES (ANGSTROEM)
---------------------------------
  C      5.008507   -2.931150   -6.739641
  O      3.743547   -2.944197   -6.202089
  H      3.206737   -3.256923   -6.888569
  H      5.137489   -3.022514   -7.878077
  H      5.425506   -1.937246   -6.564943
  H      5.645578   -3.705248   -6.302389
  C      4.132314   -4.508000   -3.093328
  O      3.662731   -5.157739   -4.233245
  H      3.680354   -4.542881   -5.006236
  H      5.212760   -4.318585   -3.102616
  H      3.489929   -3.660465   -2.868530
  H      4.111447   -5.225683   -2.260201

 Multiplicity           Mult            ....    1
 Number of Electrons    NEL             ....   18
 Basis Dimension        Dim             ....  172

ORBITAL ENERGIES
----------------

  NO   OCC          E(Eh)            E(eV)
   0   2.0000     -19.231961      -523.3283
   1   2.0000     -10.310648      -280.5670
   2   2.0000      -1.136351       -30.9217
   3   2.0000      -0.793568       -21.5941
   4   2.0000      -0.606892       -16.5144
   5   2.0000      -0.557332       -15.1658
   6   2.0000      -0.523142       -14.2354
   7   2.0000      -0.421815       -11.4782
   8   2.0000      -0.374453       -10.1894
   9   0.0000       0.069238         1.8841
  10   0.0000       0.137496         3.7415
  11   0.0000       0.144745         3.9387
  12   0.0000       0.172909         4.7051
  13   0.0000       0.187839         5.1114

MULLIKEN ATOMIC CHARGES
-----------------------
   0 C :   -0.001108
   1 O :   -0.002834
   2 H :   -0.000637
   3 H :   -0.000096
   4 H :   -0.000066
   5 H :   -0.003199
   6 C :   -0.153145
   7 O :   -0.473311
   8 H :    0.317512
   9 H :    0.098000
  10 H :    0.104408
  11 H :    0.114477
Sum of atomic charges:    0.0000000

LOEWDIN ATOMIC CHARGES
----------------------
   0 C :   -0.006787
   1 O :   -0.016578
   2 H :   -0.002293
   3 H :   -0.000070
   4 H :   -0.000093
   5 H :   -0.002221
   6 C :   -0.405683
   7 O :   -0.063508
   8 H :    0.194752
   9 H :    0.095639
  10 H :    0.095786
  11 H :    0.111055

  Mayer bond orders larger than 0.1
B(  6-C ,  7-O ) :   0.9959 B(  6-C ,  9-H ) :   0.9717 B(  6-C , 10-H ) :   0.9811
B(  6-C , 11-H ) :   0.9749 B(  7-O ,  8-H ) :   0.9000

Dispersion correction           -0.000241757
FINAL SINGLE POINT ENERGY      -115.733145505926

DIPOLE MOMENT
-------------
                                X             Y             Z
Electronic contribution:     -0.65528      -0.83391      -1.44192
Nuclear contribution   :      0.84792       1.44575       1.41910
                        -----------------------------------------
Total Dipole Moment    :      0.19265       0.61185      -0.02282
                        -----------------------------------------
Magnitude (a.u.)       :      0.64186
Magnitude (Debye)      :      1.63149

Rotational constants in cm-1:     4.276990     0.844284     0.820464
Rotational constants in MHz : 128220.940931 25310.989399 24596.888977

                             ****ORCA TERMINATED NORMALLY****
TOTAL RUN TIME: 0 days 0 hours 1 minutes 7 seconds 646 msec
