                         Program Version 4.1.2  - RELEASE  -
|  1> #Run DFT-D3 single point of the dimer
|  2> ! wB97X-D3 def2-TZVP TIGHTSCF CHELPG PMODEL PAL8
|  3>
|  4> %base "9-90_DFT_AB"
|  5>
|  6> %scf
|  7> MaxIter 1000
|  8> end
|  9>
| 10> * xyz 0 1
| 11>   C                      -2.747217            -1.439285            7.215734
| 12>   O                      -3.661565            -2.257749            7.941439
| 13>   H                      -4.087411            -2.914877            7.304557
| 14>   H                      -1.744539            -1.863552            7.165893
| 15>   H                      -3.187766            -1.140830            6.244377
| 16>   H                      -2.642980            -0.476722            7.720025
| 17>   C                      -3.437521            1.743393             9.429279
| 18>   O                      -2.392920            2.601094             8.968135
| 19>   H                      -2.789431            3.445956             8.752653
| 20>   H                      -3.842162            2.153886             10.347907
| 21>   H                      -4.226505            1.590673             8.576255
| 22>   H                      -3.060894            0.726974             9.753936
| 23> *
| 24>
| 25> #Run DFT-D3 single point of the molecule with dimer basis set
| 26> $new_job
| 27> %base "9-90_DFT_A"
| 28> ! wB97X-D3 def2-TZVP TIGHTSCF CHELPG PMODEL
| 29>
| 30> %scf
| 31> MaxIter 1000
| 32> end
| 33>
| 34> * xyz 0 1
| 35>   C                      -2.747217            -1.439285            7.215734
| 36>   O                      -3.661565            -2.257749            7.941439
| 37>   H                      -4.087411            -2.914877            7.304557
| 38>   H                      -1.744539            -1.863552            7.165893
| 39>   H                      -3.187766            -1.140830            6.244377
| 40>   H                      -2.642980            -0.476722            7.720025
| 41>   C                    : -3.437521            1.743393             9.429279
| 42>   O                    : -2.392920            2.601094             8.968135
| 43>   H                    : -2.789431            3.445956             8.752653
| 44>   H                    : -3.842162            2.153886             10.347907
| 45>   H                    : -4.226505            1.590673             8.576255
| 46>   H                    : -3.060894            0.726974             9.753936
| 47> *
| 48>
| 49> #Run DFT-D3 single point of the particle with dimer basis set
| 50> $new_job
| 51> %base "9-90_DFT_B"
| 52> ! wB97X-D3 def2-TZVP TIGHTSCF CHELPG PMODEL
| 53>
| 54> %scf
| 55> MaxIter 1000
| 56> end
| 57>
| 58> * xyz 0 1
| 59>   C                    : -2.747217            -1.439285            7.215734
| 60>   O                    : -3.661565            -2.257749            7.941439
| 61>   H                    : -4.087411            -2.914877            7.304557
| 62>   H                    : -1.744539            -1.863552            7.165893
| 63>   H                    : -3.187766            -1.140830            6.244377
| 64>   H                    : -2.642980            -0.476722            7.720025
| 65>   C                      -3.437521            1.743393             9.429279
| 66>   O                      -2.392920            2.601094             8.968135
| 67>   H                      -2.789431            3.445956             8.752653
| 68>   H                      -3.842162            2.153886             10.347907
| 69>   H                      -4.226505            1.590673             8.576255
| 70>   H                      -3.060894            0.726974             9.753936
| 71> *
| 72>
| 73>                          ****END OF INPUT****
 Total Charge           Charge          ....    0
 Multiplicity           Mult            ....    1
 Number of Electrons    NEL             ....   36
Dispersion correction           -0.001524584
FINAL SINGLE POINT ENERGY      -231.464454384766
Dispersion correction           -0.000258130
FINAL SINGLE POINT ENERGY      -115.732427786136

CARTESIAN COORDINATES (ANGSTROEM)
---------------------------------
  C     -2.747217   -1.439285    7.215734
  O     -3.661565   -2.257749    7.941439
  H     -4.087411   -2.914877    7.304557
  H     -1.744539   -1.863552    7.165893
  H     -3.187766   -1.140830    6.244377
  H     -2.642980   -0.476722    7.720025
  C     -3.437521    1.743393    9.429279
  O     -2.392920    2.601094    8.968135
  H     -2.789431    3.445956    8.752653
  H     -3.842162    2.153886   10.347907
  H     -4.226505    1.590673    8.576255
  H     -3.060894    0.726974    9.753936

 Multiplicity           Mult            ....    1
 Number of Electrons    NEL             ....   18
 Basis Dimension        Dim             ....  172

ORBITAL ENERGIES
----------------

  NO   OCC          E(Eh)            E(eV)
   0   2.0000     -19.230121      -523.2782
   1   2.0000     -10.326493      -280.9982
   2   2.0000      -1.133132       -30.8341
   3   2.0000      -0.788617       -21.4594
   4   2.0000      -0.602239       -16.3878
   5   2.0000      -0.542864       -14.7721
   6   2.0000      -0.524116       -14.2619
   7   2.0000      -0.426555       -11.6071
   8   2.0000      -0.374421       -10.1885
   9   0.0000       0.088783         2.4159
  10   0.0000       0.117627         3.2008
  11   0.0000       0.152082         4.1384
  12   0.0000       0.171688         4.6719
  13   0.0000       0.177611         4.8330

MULLIKEN ATOMIC CHARGES
-----------------------
   0 C :   -0.005727
   1 O :    0.000401
   2 H :    0.000020
   3 H :    0.000095
   4 H :    0.000125
   5 H :    0.007461
   6 C :   -0.176899
   7 O :   -0.477711
   8 H :    0.316027
   9 H :    0.115956
  10 H :    0.101933
  11 H :    0.118319
Sum of atomic charges:   -0.0000000

LOEWDIN ATOMIC CHARGES
----------------------
   0 C :   -0.002865
   1 O :   -0.000089
   2 H :   -0.000004
   3 H :   -0.000018
   4 H :   -0.000050
   5 H :   -0.004474
   6 C :   -0.386206
   7 O :   -0.089969
   8 H :    0.166694
   9 H :    0.092488
  10 H :    0.108753
  11 H :    0.115740

  Mayer bond orders larger than 0.1
B(  6-C ,  7-O ) :   0.9871 B(  6-C ,  9-H ) :   0.9750 B(  6-C , 10-H ) :   0.9758
B(  6-C , 11-H ) :   0.9715 B(  7-O ,  8-H ) :   0.8975

Dispersion correction           -0.000254101
FINAL SINGLE POINT ENERGY      -115.730606220988

DIPOLE MOMENT
-------------
                                X             Y             Z
Electronic contribution:      1.44037       1.01976      -0.54435
Nuclear contribution   :     -2.08806      -0.82710       0.62595
                        -----------------------------------------
Total Dipole Moment    :     -0.64769       0.19266       0.08160
                        -----------------------------------------
Magnitude (a.u.)       :      0.68064
Magnitude (Debye)      :      1.73005

Rotational constants in cm-1:     4.070744     0.809023     0.786742
Rotational constants in MHz : 122037.830700 24253.899324 23585.945848

                             ****ORCA TERMINATED NORMALLY****
TOTAL RUN TIME: 0 days 0 hours 0 minutes 36 seconds 471 msec
