                         Program Version 4.1.2  - RELEASE  -
|  1> #Run DFT-D3 single point of the dimer
|  2> ! wB97X-D3 def2-TZVP TIGHTSCF CHELPG PMODEL PAL8
|  3>
|  4> %base "5-99_DFT_AB"
|  5>
|  6> %scf
|  7> MaxIter 1000
|  8> end
|  9>
| 10> * xyz 0 1
| 11>   C                      9.518140             -9.620616            -3.107383
| 12>   O                      10.506839            -9.162423            -4.033828
| 13>   H                      10.192911            -8.597301            -4.716816
| 14>   H                      8.766802             -8.855435            -2.834577
| 15>   H                      8.944407             -10.443229           -3.539903
| 16>   H                      9.859461             -9.901562            -2.110812
| 17>   C                      6.363221             -8.731418            -4.928426
| 18>   O                      6.373318             -7.934475            -3.763241
| 19>   H                      5.969855             -7.060342            -4.037639
| 20>   H                      7.070030             -8.380273            -5.699314
| 21>   H                      6.519124             -9.815847            -4.853664
| 22>   H                      5.357349             -8.753382            -5.279105
| 23> *
| 24>
| 25> #Run DFT-D3 single point of the molecule with dimer basis set
| 26> $new_job
| 27> %base "5-99_DFT_A"
| 28> ! wB97X-D3 def2-TZVP TIGHTSCF CHELPG PMODEL
| 29>
| 30> %scf
| 31> MaxIter 1000
| 32> end
| 33>
| 34> * xyz 0 1
| 35>   C                      9.518140             -9.620616            -3.107383
| 36>   O                      10.506839            -9.162423            -4.033828
| 37>   H                      10.192911            -8.597301            -4.716816
| 38>   H                      8.766802             -8.855435            -2.834577
| 39>   H                      8.944407             -10.443229           -3.539903
| 40>   H                      9.859461             -9.901562            -2.110812
| 41>   C                    : 6.363221             -8.731418            -4.928426
| 42>   O                    : 6.373318             -7.934475            -3.763241
| 43>   H                    : 5.969855             -7.060342            -4.037639
| 44>   H                    : 7.070030             -8.380273            -5.699314
| 45>   H                    : 6.519124             -9.815847            -4.853664
| 46>   H                    : 5.357349             -8.753382            -5.279105
| 47> *
| 48>
| 49> #Run DFT-D3 single point of the particle with dimer basis set
| 50> $new_job
| 51> %base "5-99_DFT_B"
| 52> ! wB97X-D3 def2-TZVP TIGHTSCF CHELPG PMODEL
| 53>
| 54> %scf
| 55> MaxIter 1000
| 56> end
| 57>
| 58> * xyz 0 1
| 59>   C                    : 9.518140             -9.620616            -3.107383
| 60>   O                    : 10.506839            -9.162423            -4.033828
| 61>   H                    : 10.192911            -8.597301            -4.716816
| 62>   H                    : 8.766802             -8.855435            -2.834577
| 63>   H                    : 8.944407             -10.443229           -3.539903
| 64>   H                    : 9.859461             -9.901562            -2.110812
| 65>   C                      6.363221             -8.731418            -4.928426
| 66>   O                      6.373318             -7.934475            -3.763241
| 67>   H                      5.969855             -7.060342            -4.037639
| 68>   H                      7.070030             -8.380273            -5.699314
| 69>   H                      6.519124             -9.815847            -4.853664
| 70>   H                      5.357349             -8.753382            -5.279105
| 71> *
| 72>
| 73>                          ****END OF INPUT****
 Total Charge           Charge          ....    0
 Multiplicity           Mult            ....    1
 Number of Electrons    NEL             ....   36
Dispersion correction           -0.001961931
FINAL SINGLE POINT ENERGY      -231.459488672891
Dispersion correction           -0.000278238
FINAL SINGLE POINT ENERGY      -115.730322363885

CARTESIAN COORDINATES (ANGSTROEM)
---------------------------------
  C      9.518140   -9.620616   -3.107383
  O     10.506839   -9.162423   -4.033828
  H     10.192911   -8.597301   -4.716816
  H      8.766802   -8.855435   -2.834577
  H      8.944407  -10.443229   -3.539903
  H      9.859461   -9.901562   -2.110812
  C      6.363221   -8.731418   -4.928426
  O      6.373318   -7.934475   -3.763241
  H      5.969855   -7.060342   -4.037639
  H      7.070030   -8.380273   -5.699314
  H      6.519124   -9.815847   -4.853664
  H      5.357349   -8.753382   -5.279105

 Multiplicity           Mult            ....    1
 Number of Electrons    NEL             ....   18
 Basis Dimension        Dim             ....  172

ORBITAL ENERGIES
----------------

  NO   OCC          E(Eh)            E(eV)
   0   2.0000     -19.235749      -523.4313
   1   2.0000     -10.310833      -280.5720
   2   2.0000      -1.132023       -30.8039
   3   2.0000      -0.794462       -21.6184
   4   2.0000      -0.603421       -16.4199
   5   2.0000      -0.550152       -14.9704
   6   2.0000      -0.530608       -14.4386
   7   2.0000      -0.423016       -11.5109
   8   2.0000      -0.375196       -10.2096
   9   0.0000       0.091889         2.5004
  10   0.0000       0.119434         3.2500
  11   0.0000       0.149366         4.0644
  12   0.0000       0.164956         4.4887
  13   0.0000       0.200201         5.4477

MULLIKEN ATOMIC CHARGES
-----------------------
   0 C :    0.005976
   1 O :   -0.000335
   2 H :   -0.000089
   3 H :   -0.007502
   4 H :   -0.001386
   5 H :    0.000110
   6 C :   -0.191991
   7 O :   -0.470431
   8 H :    0.321650
   9 H :    0.107684
  10 H :    0.122593
  11 H :    0.113720
Sum of atomic charges:    0.0000000

LOEWDIN ATOMIC CHARGES
----------------------
   0 C :   -0.003405
   1 O :   -0.000024
   2 H :   -0.000222
   3 H :   -0.006945
   4 H :   -0.001417
   5 H :   -0.000008
   6 C :   -0.400398
   7 O :   -0.086968
   8 H :    0.197557
   9 H :    0.097610
  10 H :    0.111195
  11 H :    0.093025

  Mayer bond orders larger than 0.1
B(  6-C ,  7-O ) :   0.9904 B(  6-C ,  9-H ) :   0.9762 B(  6-C , 10-H ) :   0.9699
B(  6-C , 11-H ) :   0.9816 B(  7-O ,  8-H ) :   0.8890

Dispersion correction           -0.000239066
FINAL SINGLE POINT ENERGY      -115.727098259775

DIPOLE MOMENT
-------------
                                X             Y             Z
Electronic contribution:      0.16727       0.93613       1.67264
Nuclear contribution   :     -0.45861      -0.73673      -2.30255
                        -----------------------------------------
Total Dipole Moment    :     -0.29134       0.19941      -0.62991
                        -----------------------------------------
Magnitude (a.u.)       :      0.72210
Magnitude (Debye)      :      1.83543

Rotational constants in cm-1:     4.396238     0.819801     0.799720
Rotational constants in MHz : 131795.885102 24577.003192 23974.990262

                             ****ORCA TERMINATED NORMALLY****
TOTAL RUN TIME: 0 days 0 hours 0 minutes 43 seconds 798 msec
