                         Program Version 4.1.2  - RELEASE  -
|  1> #Run DFT-D3 single point of the dimer
|  2> ! wB97X-D3 def2-TZVP TIGHTSCF CHELPG PMODEL PAL8
|  3>
|  4> %base "18-205_DFT_AB"
|  5>
|  6> %scf
|  7> MaxIter 1000
|  8> end
|  9>
| 10> * xyz 0 1
| 11>   C                      -5.848510            -5.431623            0.742106
| 12>   O                      -4.870994            -4.382988            0.904018
| 13>   H                      -4.073636            -4.629381            0.480032
| 14>   H                      -5.482138            -6.449329            1.001130
| 15>   H                      -6.796003            -5.307281            1.301016
| 16>   H                      -6.195283            -5.436380            -0.241029
| 17>   C                      -6.524072            -2.203817            -2.375962
| 18>   O                      -6.769655            -2.963355            -1.148062
| 19>   H                      -5.922754            -2.827025            -0.644799
| 20>   H                      -5.407294            -2.234582            -2.690142
| 21>   H                      -7.171416            -2.481153            -3.240957
| 22>   H                      -6.743710            -1.160809            -2.321463
| 23> *
| 24>
| 25> #Run DFT-D3 single point of the molecule with dimer basis set
| 26> $new_job
| 27> %base "18-205_DFT_A"
| 28> ! wB97X-D3 def2-TZVP TIGHTSCF CHELPG PMODEL
| 29>
| 30> %scf
| 31> MaxIter 1000
| 32> end
| 33>
| 34> * xyz 0 1
| 35>   C                      -5.848510            -5.431623            0.742106
| 36>   O                      -4.870994            -4.382988            0.904018
| 37>   H                      -4.073636            -4.629381            0.480032
| 38>   H                      -5.482138            -6.449329            1.001130
| 39>   H                      -6.796003            -5.307281            1.301016
| 40>   H                      -6.195283            -5.436380            -0.241029
| 41>   C                    : -6.524072            -2.203817            -2.375962
| 42>   O                    : -6.769655            -2.963355            -1.148062
| 43>   H                    : -5.922754            -2.827025            -0.644799
| 44>   H                    : -5.407294            -2.234582            -2.690142
| 45>   H                    : -7.171416            -2.481153            -3.240957
| 46>   H                    : -6.743710            -1.160809            -2.321463
| 47> *
| 48>
| 49> #Run DFT-D3 single point of the particle with dimer basis set
| 50> $new_job
| 51> %base "18-205_DFT_B"
| 52> ! wB97X-D3 def2-TZVP TIGHTSCF CHELPG PMODEL
| 53>
| 54> %scf
| 55> MaxIter 1000
| 56> end
| 57>
| 58> * xyz 0 1
| 59>   C                    : -5.848510            -5.431623            0.742106
| 60>   O                    : -4.870994            -4.382988            0.904018
| 61>   H                    : -4.073636            -4.629381            0.480032
| 62>   H                    : -5.482138            -6.449329            1.001130
| 63>   H                    : -6.796003            -5.307281            1.301016
| 64>   H                    : -6.195283            -5.436380            -0.241029
| 65>   C                      -6.524072            -2.203817            -2.375962
| 66>   O                      -6.769655            -2.963355            -1.148062
| 67>   H                      -5.922754            -2.827025            -0.644799
| 68>   H                      -5.407294            -2.234582            -2.690142
| 69>   H                      -7.171416            -2.481153            -3.240957
| 70>   H                      -6.743710            -1.160809            -2.321463
| 71> *
| 72>
| 73>                          ****END OF INPUT****
 Total Charge           Charge          ....    0
 Multiplicity           Mult            ....    1
 Number of Electrons    NEL             ....   36
Dispersion correction           -0.001836543
FINAL SINGLE POINT ENERGY      -231.461960658773
Dispersion correction           -0.000263189
FINAL SINGLE POINT ENERGY      -115.730196101198

CARTESIAN COORDINATES (ANGSTROEM)
---------------------------------
  C     -5.848510   -5.431623    0.742106
  O     -4.870994   -4.382988    0.904018
  H     -4.073636   -4.629381    0.480032
  H     -5.482138   -6.449329    1.001130
  H     -6.796003   -5.307281    1.301016
  H     -6.195283   -5.436380   -0.241029
  C     -6.524072   -2.203817   -2.375962
  O     -6.769655   -2.963355   -1.148062
  H     -5.922754   -2.827025   -0.644799
  H     -5.407294   -2.234582   -2.690142
  H     -7.171416   -2.481153   -3.240957
  H     -6.743710   -1.160809   -2.321463

 Multiplicity           Mult            ....    1
 Number of Electrons    NEL             ....   18
 Basis Dimension        Dim             ....  172

ORBITAL ENERGIES
----------------

  NO   OCC          E(Eh)            E(eV)
   0   2.0000     -19.241656      -523.5921
   1   2.0000     -10.324822      -280.9527
   2   2.0000      -1.121706       -30.5232
   3   2.0000      -0.793215       -21.5845
   4   2.0000      -0.598537       -16.2870
   5   2.0000      -0.532380       -14.4868
   6   2.0000      -0.519321       -14.1314
   7   2.0000      -0.442452       -12.0397
   8   2.0000      -0.376433       -10.2432
   9   0.0000       0.080381         2.1873
  10   0.0000       0.124699         3.3932
  11   0.0000       0.147051         4.0014
  12   0.0000       0.169604         4.6152
  13   0.0000       0.196578         5.3492

MULLIKEN ATOMIC CHARGES
-----------------------
   0 C :    0.005699
   1 O :   -0.001733
   2 H :   -0.000405
   3 H :   -0.000262
   4 H :   -0.000955
   5 H :   -0.011278
   6 C :   -0.201965
   7 O :   -0.458627
   8 H :    0.320824
   9 H :    0.105014
  10 H :    0.126342
  11 H :    0.117346
Sum of atomic charges:    0.0000000

LOEWDIN ATOMIC CHARGES
----------------------
   0 C :   -0.010496
   1 O :   -0.004978
   2 H :   -0.000810
   3 H :   -0.000071
   4 H :   -0.000536
   5 H :   -0.008052
   6 C :   -0.372234
   7 O :   -0.105680
   8 H :    0.194294
   9 H :    0.107911
  10 H :    0.111694
  11 H :    0.088959

  Mayer bond orders larger than 0.1
B(  6-C ,  7-O ) :   1.0016 B(  6-C ,  9-H ) :   0.9792 B(  6-C , 10-H ) :   0.9748
B(  6-C , 11-H ) :   0.9658 B(  7-O ,  8-H ) :   0.8955

Dispersion correction           -0.000282068
FINAL SINGLE POINT ENERGY      -115.725986045888

DIPOLE MOMENT
-------------
                                X             Y             Z
Electronic contribution:     -0.56731      -1.08337       1.59520
Nuclear contribution   :      1.15597       1.50913      -1.79461
                        -----------------------------------------
Total Dipole Moment    :      0.58866       0.42576      -0.19941
                        -----------------------------------------
Magnitude (a.u.)       :      0.75336
Magnitude (Debye)      :      1.91490

Rotational constants in cm-1:     4.208203     0.779926     0.738084
Rotational constants in MHz : 126158.745451 23381.586346 22127.196726

                             ****ORCA TERMINATED NORMALLY****
TOTAL RUN TIME: 0 days 0 hours 1 minutes 6 seconds 650 msec
