                         Program Version 4.1.2  - RELEASE  -
|  1> #Run DFT-D3 single point of the dimer
|  2> ! wB97X-D3 def2-TZVP TIGHTSCF CHELPG PMODEL PAL8
|  3>
|  4> %base "2-159_DFT_AB"
|  5>
|  6> %scf
|  7> MaxIter 1000
|  8> end
|  9>
| 10> * xyz 0 1
| 11>   C                      1.254855             -3.502723            -4.882211
| 12>   O                      0.769337             -3.116388            -6.096251
| 13>   H                      1.398327             -2.419543            -6.356148
| 14>   H                      1.332779             -4.581020            -4.796774
| 15>   H                      2.314396             -3.121156            -4.747694
| 16>   H                      0.714537             -3.056710            -3.998052
| 17>   C                      3.118028             -2.909420            -8.815179
| 18>   O                      2.921235             -4.211740            -8.271025
| 19>   H                      2.762177             -4.229352            -7.346329
| 20>   H                      4.051495             -2.430580            -8.568322
| 21>   H                      3.014902             -2.938263            -9.858857
| 22>   H                      2.322442             -2.251747            -8.442012
| 23> *
| 24>
| 25> #Run DFT-D3 single point of the molecule with dimer basis set
| 26> $new_job
| 27> %base "2-159_DFT_A"
| 28> ! wB97X-D3 def2-TZVP TIGHTSCF CHELPG PMODEL
| 29>
| 30> %scf
| 31> MaxIter 1000
| 32> end
| 33>
| 34> * xyz 0 1
| 35>   C                      1.254855             -3.502723            -4.882211
| 36>   O                      0.769337             -3.116388            -6.096251
| 37>   H                      1.398327             -2.419543            -6.356148
| 38>   H                      1.332779             -4.581020            -4.796774
| 39>   H                      2.314396             -3.121156            -4.747694
| 40>   H                      0.714537             -3.056710            -3.998052
| 41>   C                    : 3.118028             -2.909420            -8.815179
| 42>   O                    : 2.921235             -4.211740            -8.271025
| 43>   H                    : 2.762177             -4.229352            -7.346329
| 44>   H                    : 4.051495             -2.430580            -8.568322
| 45>   H                    : 3.014902             -2.938263            -9.858857
| 46>   H                    : 2.322442             -2.251747            -8.442012
| 47> *
| 48>
| 49> #Run DFT-D3 single point of the particle with dimer basis set
| 50> $new_job
| 51> %base "2-159_DFT_B"
| 52> ! wB97X-D3 def2-TZVP TIGHTSCF CHELPG PMODEL
| 53>
| 54> %scf
| 55> MaxIter 1000
| 56> end
| 57>
| 58> * xyz 0 1
| 59>   C                    : 1.254855             -3.502723            -4.882211
| 60>   O                    : 0.769337             -3.116388            -6.096251
| 61>   H                    : 1.398327             -2.419543            -6.356148
| 62>   H                    : 1.332779             -4.581020            -4.796774
| 63>   H                    : 2.314396             -3.121156            -4.747694
| 64>   H                    : 0.714537             -3.056710            -3.998052
| 65>   C                      3.118028             -2.909420            -8.815179
| 66>   O                      2.921235             -4.211740            -8.271025
| 67>   H                      2.762177             -4.229352            -7.346329
| 68>   H                      4.051495             -2.430580            -8.568322
| 69>   H                      3.014902             -2.938263            -9.858857
| 70>   H                      2.322442             -2.251747            -8.442012
| 71> *
| 72>
| 73>                          ****END OF INPUT****
 Total Charge           Charge          ....    0
 Multiplicity           Mult            ....    1
 Number of Electrons    NEL             ....   36
Dispersion correction           -0.002046905
FINAL SINGLE POINT ENERGY      -231.463859706504
Dispersion correction           -0.000226810
FINAL SINGLE POINT ENERGY      -115.729821242848

CARTESIAN COORDINATES (ANGSTROEM)
---------------------------------
  C      1.254855   -3.502723   -4.882211
  O      0.769337   -3.116388   -6.096251
  H      1.398327   -2.419543   -6.356148
  H      1.332779   -4.581020   -4.796774
  H      2.314396   -3.121156   -4.747694
  H      0.714537   -3.056710   -3.998052
  C      3.118028   -2.909420   -8.815179
  O      2.921235   -4.211740   -8.271025
  H      2.762177   -4.229352   -7.346329
  H      4.051495   -2.430580   -8.568322
  H      3.014902   -2.938263   -9.858857
  H      2.322442   -2.251747   -8.442012

 Multiplicity           Mult            ....    1
 Number of Electrons    NEL             ....   18
 Basis Dimension        Dim             ....  172

ORBITAL ENERGIES
----------------

  NO   OCC          E(Eh)            E(eV)
   0   2.0000     -19.225606      -523.1553
   1   2.0000     -10.309115      -280.5253
   2   2.0000      -1.132333       -30.8123
   3   2.0000      -0.806329       -21.9413
   4   2.0000      -0.614145       -16.7117
   5   2.0000      -0.539393       -14.6776
   6   2.0000      -0.534392       -14.5415
   7   2.0000      -0.428577       -11.6622
   8   2.0000      -0.374316       -10.1857
   9   0.0000       0.071335         1.9411
  10   0.0000       0.138269         3.7625
  11   0.0000       0.150395         4.0925
  12   0.0000       0.170831         4.6485
  13   0.0000       0.189172         5.1476

MULLIKEN ATOMIC CHARGES
-----------------------
   0 C :   -0.002715
   1 O :   -0.001739
   2 H :    0.000722
   3 H :    0.000396
   4 H :   -0.000479
   5 H :   -0.000102
   6 C :   -0.155208
   7 O :   -0.485272
   8 H :    0.311461
   9 H :    0.104441
  10 H :    0.127959
  11 H :    0.100537
Sum of atomic charges:    0.0000000

LOEWDIN ATOMIC CHARGES
----------------------
   0 C :   -0.004170
   1 O :   -0.003816
   2 H :   -0.005498
   3 H :   -0.000319
   4 H :   -0.000601
   5 H :   -0.000081
   6 C :   -0.359693
   7 O :   -0.068265
   8 H :    0.151031
   9 H :    0.092312
  10 H :    0.099534
  11 H :    0.099567

  Mayer bond orders larger than 0.1
B(  6-C ,  7-O ) :   0.9883 B(  6-C ,  9-H ) :   0.9734 B(  6-C , 10-H ) :   0.9749
B(  6-C , 11-H ) :   0.9818 B(  7-O ,  8-H ) :   0.9084

Dispersion correction           -0.000253923
FINAL SINGLE POINT ENERGY      -115.733743871403

DIPOLE MOMENT
-------------
                                X             Y             Z
Electronic contribution:     -0.13594      -1.71696       0.52292
Nuclear contribution   :      0.10410       2.25663      -0.15889
                        -----------------------------------------
Total Dipole Moment    :     -0.03184       0.53968       0.36403
                        -----------------------------------------
Magnitude (a.u.)       :      0.65175
Magnitude (Debye)      :      1.65662

Rotational constants in cm-1:     4.577057     0.813815     0.790015
Rotational constants in MHz : 137216.721882 24397.572143 23684.045289

                             ****ORCA TERMINATED NORMALLY****
TOTAL RUN TIME: 0 days 0 hours 6 minutes 26 seconds 344 msec
