                         Program Version 4.1.2  - RELEASE  -
|  1> #Run DFT-D3 single point of the dimer
|  2> ! wB97X-D3 def2-TZVP TIGHTSCF CHELPG PMODEL PAL8
|  3>
|  4> %base "3-177_DFT_AB"
|  5>
|  6> %scf
|  7> MaxIter 1000
|  8> end
|  9>
| 10> * xyz 0 1
| 11>   C                      6.577847             2.978810             8.179517
| 12>   O                      5.975196             3.353764             9.377669
| 13>   H                      6.506293             2.869754             10.037476
| 14>   H                      7.656711             3.391105             8.099346
| 15>   H                      6.781400             1.897453             8.054072
| 16>   H                      5.989922             3.391443             7.321349
| 17>   C                      9.787512             2.173199             11.309051
| 18>   O                      9.819419             2.738224             10.078496
| 19>   H                      8.924387             3.054027             9.903987
| 20>   H                      10.743785            1.583949             11.469471
| 21>   H                      9.808702             2.923235             12.089456
| 22>   H                      8.993207             1.447890             11.601513
| 23> *
| 24>
| 25> #Run DFT-D3 single point of the molecule with dimer basis set
| 26> $new_job
| 27> %base "3-177_DFT_A"
| 28> ! wB97X-D3 def2-TZVP TIGHTSCF CHELPG PMODEL
| 29>
| 30> %scf
| 31> MaxIter 1000
| 32> end
| 33>
| 34> * xyz 0 1
| 35>   C                      6.577847             2.978810             8.179517
| 36>   O                      5.975196             3.353764             9.377669
| 37>   H                      6.506293             2.869754             10.037476
| 38>   H                      7.656711             3.391105             8.099346
| 39>   H                      6.781400             1.897453             8.054072
| 40>   H                      5.989922             3.391443             7.321349
| 41>   C                    : 9.787512             2.173199             11.309051
| 42>   O                    : 9.819419             2.738224             10.078496
| 43>   H                    : 8.924387             3.054027             9.903987
| 44>   H                    : 10.743785            1.583949             11.469471
| 45>   H                    : 9.808702             2.923235             12.089456
| 46>   H                    : 8.993207             1.447890             11.601513
| 47> *
| 48>
| 49> #Run DFT-D3 single point of the particle with dimer basis set
| 50> $new_job
| 51> %base "3-177_DFT_B"
| 52> ! wB97X-D3 def2-TZVP TIGHTSCF CHELPG PMODEL
| 53>
| 54> %scf
| 55> MaxIter 1000
| 56> end
| 57>
| 58> * xyz 0 1
| 59>   C                    : 6.577847             2.978810             8.179517
| 60>   O                    : 5.975196             3.353764             9.377669
| 61>   H                    : 6.506293             2.869754             10.037476
| 62>   H                    : 7.656711             3.391105             8.099346
| 63>   H                    : 6.781400             1.897453             8.054072
| 64>   H                    : 5.989922             3.391443             7.321349
| 65>   C                      9.787512             2.173199             11.309051
| 66>   O                      9.819419             2.738224             10.078496
| 67>   H                      8.924387             3.054027             9.903987
| 68>   H                      10.743785            1.583949             11.469471
| 69>   H                      9.808702             2.923235             12.089456
| 70>   H                      8.993207             1.447890             11.601513
| 71> *
| 72>
| 73>                          ****END OF INPUT****
 Total Charge           Charge          ....    0
 Multiplicity           Mult            ....    1
 Number of Electrons    NEL             ....   36
Dispersion correction           -0.001741471
FINAL SINGLE POINT ENERGY      -231.461787326677
Dispersion correction           -0.000237567
FINAL SINGLE POINT ENERGY      -115.731355270200

CARTESIAN COORDINATES (ANGSTROEM)
---------------------------------
  C      6.577847    2.978810    8.179517
  O      5.975196    3.353764    9.377669
  H      6.506293    2.869754   10.037476
  H      7.656711    3.391105    8.099346
  H      6.781400    1.897453    8.054072
  H      5.989922    3.391443    7.321349
  C      9.787512    2.173199   11.309051
  O      9.819419    2.738224   10.078496
  H      8.924387    3.054027    9.903987
  H     10.743785    1.583949   11.469471
  H      9.808702    2.923235   12.089456
  H      8.993207    1.447890   11.601513

 Multiplicity           Mult            ....    1
 Number of Electrons    NEL             ....   18
 Basis Dimension        Dim             ....  172

ORBITAL ENERGIES
----------------

  NO   OCC          E(Eh)            E(eV)
   0   2.0000     -19.237933      -523.4908
   1   2.0000     -10.312590      -280.6198
   2   2.0000      -1.160147       -31.5692
   3   2.0000      -0.790982       -21.5237
   4   2.0000      -0.625721       -17.0267
   5   2.0000      -0.546960       -14.8835
   6   2.0000      -0.531099       -14.4519
   7   2.0000      -0.428281       -11.6541
   8   2.0000      -0.373701       -10.1689
   9   0.0000       0.070828         1.9273
  10   0.0000       0.130246         3.5442
  11   0.0000       0.155036         4.2188
  12   0.0000       0.171579         4.6689
  13   0.0000       0.188864         5.1392

MULLIKEN ATOMIC CHARGES
-----------------------
   0 C :   -0.003462
   1 O :    0.000298
   2 H :   -0.001003
   3 H :   -0.000473
   4 H :    0.000459
   5 H :   -0.000219
   6 C :   -0.171014
   7 O :   -0.449489
   8 H :    0.321073
   9 H :    0.110530
  10 H :    0.094642
  11 H :    0.098658
Sum of atomic charges:    0.0000000

LOEWDIN ATOMIC CHARGES
----------------------
   0 C :   -0.004810
   1 O :   -0.000389
   2 H :   -0.001887
   3 H :   -0.003208
   4 H :   -0.000345
   5 H :   -0.000076
   6 C :   -0.449566
   7 O :   -0.020827
   8 H :    0.182085
   9 H :    0.115596
  10 H :    0.087865
  11 H :    0.095562

  Mayer bond orders larger than 0.1
B(  6-C ,  7-O ) :   1.0139 B(  6-C ,  9-H ) :   0.9736 B(  6-C , 10-H ) :   0.9847
B(  6-C , 11-H ) :   0.9645 B(  7-O ,  8-H ) :   0.8944

Dispersion correction           -0.000239709
FINAL SINGLE POINT ENERGY      -115.731076536459

DIPOLE MOMENT
-------------
                                X             Y             Z
Electronic contribution:      0.04863       0.79783      -1.84156
Nuclear contribution   :     -0.61689      -0.79529       2.15587
                        -----------------------------------------
Total Dipole Moment    :     -0.56826       0.00254       0.31432
                        -----------------------------------------
Magnitude (a.u.)       :      0.64940
Magnitude (Debye)      :      1.65064

Rotational constants in cm-1:     4.346338     0.877259     0.841781
Rotational constants in MHz : 130299.929112 26299.567586 25235.949550

                             ****ORCA TERMINATED NORMALLY****
TOTAL RUN TIME: 0 days 0 hours 5 minutes 56 seconds 675 msec
