                         Program Version 4.1.2  - RELEASE  -
|  1> #Run DFT-D3 single point of the dimer
|  2> ! wB97X-D3 def2-TZVP TIGHTSCF CHELPG PMODEL PAL8
|  3>
|  4> %base "5-3_DFT_AB"
|  5>
|  6> %scf
|  7> MaxIter 1000
|  8> end
|  9>
| 10> * xyz 0 1
| 11>   C                      7.637502             -1.565497            0.430449
| 12>   O                      6.279459             -1.591730            0.075538
| 13>   H                      6.138315             -2.503580            0.236057
| 14>   H                      8.043561             -0.510717            0.303914
| 15>   H                      7.798157             -1.853950            1.427963
| 16>   H                      8.171181             -2.284390            -0.145285
| 17>   C                      6.841558             -4.279358            3.593163
| 18>   O                      6.967058             -5.324514            2.727259
| 19>   H                      6.968686             -6.154978            3.242085
| 20>   H                      6.939423             -3.275139            3.211090
| 21>   H                      5.826904             -4.372985            4.033386
| 22>   H                      7.520350             -4.294207            4.443900
| 23> *
| 24>
| 25> #Run DFT-D3 single point of the molecule with dimer basis set
| 26> $new_job
| 27> %base "5-3_DFT_A"
| 28> ! wB97X-D3 def2-TZVP TIGHTSCF CHELPG PMODEL
| 29>
| 30> %scf
| 31> MaxIter 1000
| 32> end
| 33>
| 34> * xyz 0 1
| 35>   C                      7.637502             -1.565497            0.430449
| 36>   O                      6.279459             -1.591730            0.075538
| 37>   H                      6.138315             -2.503580            0.236057
| 38>   H                      8.043561             -0.510717            0.303914
| 39>   H                      7.798157             -1.853950            1.427963
| 40>   H                      8.171181             -2.284390            -0.145285
| 41>   C                    : 6.841558             -4.279358            3.593163
| 42>   O                    : 6.967058             -5.324514            2.727259
| 43>   H                    : 6.968686             -6.154978            3.242085
| 44>   H                    : 6.939423             -3.275139            3.211090
| 45>   H                    : 5.826904             -4.372985            4.033386
| 46>   H                    : 7.520350             -4.294207            4.443900
| 47> *
| 48>
| 49> #Run DFT-D3 single point of the particle with dimer basis set
| 50> $new_job
| 51> %base "5-3_DFT_B"
| 52> ! wB97X-D3 def2-TZVP TIGHTSCF CHELPG PMODEL
| 53>
| 54> %scf
| 55> MaxIter 1000
| 56> end
| 57>
| 58> * xyz 0 1
| 59>   C                    : 7.637502             -1.565497            0.430449
| 60>   O                    : 6.279459             -1.591730            0.075538
| 61>   H                    : 6.138315             -2.503580            0.236057
| 62>   H                    : 8.043561             -0.510717            0.303914
| 63>   H                    : 7.798157             -1.853950            1.427963
| 64>   H                    : 8.171181             -2.284390            -0.145285
| 65>   C                      6.841558             -4.279358            3.593163
| 66>   O                      6.967058             -5.324514            2.727259
| 67>   H                      6.968686             -6.154978            3.242085
| 68>   H                      6.939423             -3.275139            3.211090
| 69>   H                      5.826904             -4.372985            4.033386
| 70>   H                      7.520350             -4.294207            4.443900
| 71> *
| 72>
| 73>                          ****END OF INPUT****
 Total Charge           Charge          ....    0
 Multiplicity           Mult            ....    1
 Number of Electrons    NEL             ....   36
Dispersion correction           -0.001325419
FINAL SINGLE POINT ENERGY      -231.459940842512
Dispersion correction           -0.000194780
FINAL SINGLE POINT ENERGY      -115.728316385095

CARTESIAN COORDINATES (ANGSTROEM)
---------------------------------
  C      7.637502   -1.565497    0.430449
  O      6.279459   -1.591730    0.075538
  H      6.138315   -2.503580    0.236057
  H      8.043561   -0.510717    0.303914
  H      7.798157   -1.853950    1.427963
  H      8.171181   -2.284390   -0.145285
  C      6.841558   -4.279358    3.593163
  O      6.967058   -5.324514    2.727259
  H      6.968686   -6.154978    3.242085
  H      6.939423   -3.275139    3.211090
  H      5.826904   -4.372985    4.033386
  H      7.520350   -4.294207    4.443900

 Multiplicity           Mult            ....    1
 Number of Electrons    NEL             ....   18
 Basis Dimension        Dim             ....  172

ORBITAL ENERGIES
----------------

  NO   OCC          E(Eh)            E(eV)
   0   2.0000     -19.232283      -523.3370
   1   2.0000     -10.308091      -280.4974
   2   2.0000      -1.150642       -31.3105
   3   2.0000      -0.793690       -21.5974
   4   2.0000      -0.620797       -16.8928
   5   2.0000      -0.548227       -14.9180
   6   2.0000      -0.536284       -14.5930
   7   2.0000      -0.427858       -11.6426
   8   2.0000      -0.366552        -9.9744
   9   0.0000       0.092091         2.5059
  10   0.0000       0.115361         3.1391
  11   0.0000       0.156780         4.2662
  12   0.0000       0.173239         4.7141
  13   0.0000       0.193948         5.2776

MULLIKEN ATOMIC CHARGES
-----------------------
   0 C :   -0.000437
   1 O :   -0.000111
   2 H :   -0.000036
   3 H :    0.000147
   4 H :    0.001735
   5 H :   -0.000193
   6 C :   -0.164190
   7 O :   -0.465186
   8 H :    0.322682
   9 H :    0.119130
  10 H :    0.092071
  11 H :    0.094386
Sum of atomic charges:    0.0000000

LOEWDIN ATOMIC CHARGES
----------------------
   0 C :   -0.001582
   1 O :   -0.000035
   2 H :   -0.000246
   3 H :   -0.000003
   4 H :   -0.003275
   5 H :   -0.000043
   6 C :   -0.429469
   7 O :   -0.045544
   8 H :    0.187732
   9 H :    0.106018
  10 H :    0.096297
  11 H :    0.090150

  Mayer bond orders larger than 0.1
B(  6-C ,  7-O ) :   1.0028 B(  6-C ,  9-H ) :   0.9677 B(  6-C , 10-H ) :   0.9953
B(  6-C , 11-H ) :   0.9761 B(  7-O ,  8-H ) :   0.8896

Dispersion correction           -0.000218884
FINAL SINGLE POINT ENERGY      -115.729697961206

DIPOLE MOMENT
-------------
                                X             Y             Z
Electronic contribution:      0.29789      -1.28455      -1.43370
Nuclear contribution   :     -0.32510       1.14749       2.07331
                        -----------------------------------------
Total Dipole Moment    :     -0.02721      -0.13706       0.63961
                        -----------------------------------------
Magnitude (a.u.)       :      0.65470
Magnitude (Debye)      :      1.66412

Rotational constants in cm-1:     4.427949     0.871867     0.839841
Rotational constants in MHz : 132746.566491 26137.900407 25177.808332

                             ****ORCA TERMINATED NORMALLY****
TOTAL RUN TIME: 0 days 0 hours 0 minutes 57 seconds 357 msec
