                         Program Version 4.1.2  - RELEASE  -
|  1> #Run DFT-D3 single point of the dimer
|  2> ! wB97X-D3 def2-TZVP TIGHTSCF CHELPG PMODEL PAL8
|  3>
|  4> %base "5-194_DFT_AB"
|  5>
|  6> %scf
|  7> MaxIter 1000
|  8> end
|  9>
| 10> * xyz 0 1
| 11>   C                      8.209675             -5.522945            9.196623
| 12>   O                      7.015709             -5.491907            9.982829
| 13>   H                      6.939594             -6.319247            10.420045
| 14>   H                      8.182729             -6.271335            8.382496
| 15>   H                      8.183501             -4.633364            8.568439
| 16>   H                      9.084552             -5.650061            9.844359
| 17>   C                      6.029280             -9.175350            9.917710
| 18>   O                      7.212876             -8.355816            9.850832
| 19>   H                      7.738320             -8.490723            9.042693
| 20>   H                      6.303231             -10.242801           9.700826
| 21>   H                      5.373470             -9.245646            10.809039
| 22>   H                      5.365920             -8.959489            9.043971
| 23> *
| 24>
| 25> #Run DFT-D3 single point of the molecule with dimer basis set
| 26> $new_job
| 27> %base "5-194_DFT_A"
| 28> ! wB97X-D3 def2-TZVP TIGHTSCF CHELPG PMODEL
| 29>
| 30> %scf
| 31> MaxIter 1000
| 32> end
| 33>
| 34> * xyz 0 1
| 35>   C                      8.209675             -5.522945            9.196623
| 36>   O                      7.015709             -5.491907            9.982829
| 37>   H                      6.939594             -6.319247            10.420045
| 38>   H                      8.182729             -6.271335            8.382496
| 39>   H                      8.183501             -4.633364            8.568439
| 40>   H                      9.084552             -5.650061            9.844359
| 41>   C                    : 6.029280             -9.175350            9.917710
| 42>   O                    : 7.212876             -8.355816            9.850832
| 43>   H                    : 7.738320             -8.490723            9.042693
| 44>   H                    : 6.303231             -10.242801           9.700826
| 45>   H                    : 5.373470             -9.245646            10.809039
| 46>   H                    : 5.365920             -8.959489            9.043971
| 47> *
| 48>
| 49> #Run DFT-D3 single point of the particle with dimer basis set
| 50> $new_job
| 51> %base "5-194_DFT_B"
| 52> ! wB97X-D3 def2-TZVP TIGHTSCF CHELPG PMODEL
| 53>
| 54> %scf
| 55> MaxIter 1000
| 56> end
| 57>
| 58> * xyz 0 1
| 59>   C                    : 8.209675             -5.522945            9.196623
| 60>   O                    : 7.015709             -5.491907            9.982829
| 61>   H                    : 6.939594             -6.319247            10.420045
| 62>   H                    : 8.182729             -6.271335            8.382496
| 63>   H                    : 8.183501             -4.633364            8.568439
| 64>   H                    : 9.084552             -5.650061            9.844359
| 65>   C                      6.029280             -9.175350            9.917710
| 66>   O                      7.212876             -8.355816            9.850832
| 67>   H                      7.738320             -8.490723            9.042693
| 68>   H                      6.303231             -10.242801           9.700826
| 69>   H                      5.373470             -9.245646            10.809039
| 70>   H                      5.365920             -8.959489            9.043971
| 71> *
| 72>
| 73>                          ****END OF INPUT****
 Total Charge           Charge          ....    0
 Multiplicity           Mult            ....    1
 Number of Electrons    NEL             ....   36
Dispersion correction           -0.002022912
FINAL SINGLE POINT ENERGY      -231.462961309835
Dispersion correction           -0.000245392
FINAL SINGLE POINT ENERGY      -115.733196855353

CARTESIAN COORDINATES (ANGSTROEM)
---------------------------------
  C      8.209675   -5.522945    9.196623
  O      7.015709   -5.491907    9.982829
  H      6.939594   -6.319247   10.420045
  H      8.182729   -6.271335    8.382496
  H      8.183501   -4.633364    8.568439
  H      9.084552   -5.650061    9.844359
  C      6.029280   -9.175350    9.917710
  O      7.212876   -8.355816    9.850832
  H      7.738320   -8.490723    9.042693
  H      6.303231  -10.242801    9.700826
  H      5.373470   -9.245646   10.809039
  H      5.365920   -8.959489    9.043971

 Multiplicity           Mult            ....    1
 Number of Electrons    NEL             ....   18
 Basis Dimension        Dim             ....  172

ORBITAL ENERGIES
----------------

  NO   OCC          E(Eh)            E(eV)
   0   2.0000     -19.233636      -523.3738
   1   2.0000     -10.325803      -280.9794
   2   2.0000      -1.124535       -30.6001
   3   2.0000      -0.795973       -21.6595
   4   2.0000      -0.609756       -16.5923
   5   2.0000      -0.534879       -14.5548
   6   2.0000      -0.524128       -14.2622
   7   2.0000      -0.425792       -11.5864
   8   2.0000      -0.370376       -10.0785
   9   0.0000       0.091765         2.4970
  10   0.0000       0.129053         3.5117
  11   0.0000       0.144682         3.9370
  12   0.0000       0.182962         4.9787
  13   0.0000       0.194643         5.2965

MULLIKEN ATOMIC CHARGES
-----------------------
   0 C :    0.002690
   1 O :    0.000442
   2 H :   -0.005557
   3 H :   -0.009624
   4 H :   -0.000362
   5 H :   -0.000746
   6 C :   -0.184128
   7 O :   -0.481234
   8 H :    0.327537
   9 H :    0.104092
  10 H :    0.139987
  11 H :    0.106903
Sum of atomic charges:   -0.0000000

LOEWDIN ATOMIC CHARGES
----------------------
   0 C :   -0.014949
   1 O :   -0.006631
   2 H :   -0.025871
   3 H :   -0.005609
   4 H :   -0.000178
   5 H :   -0.000735
   6 C :   -0.378041
   7 O :   -0.063834
   8 H :    0.180815
   9 H :    0.101054
  10 H :    0.114621
  11 H :    0.099358

  Mayer bond orders larger than 0.1
B(  6-C ,  7-O ) :   0.9807 B(  6-C ,  9-H ) :   0.9777 B(  6-C , 10-H ) :   0.9656
B(  6-C , 11-H ) :   0.9769 B(  7-O ,  8-H ) :   0.8827

Dispersion correction           -0.000280646
FINAL SINGLE POINT ENERGY      -115.724351982276

DIPOLE MOMENT
-------------
                                X             Y             Z
Electronic contribution:      1.49802       1.25794       0.26448
Nuclear contribution   :     -1.66492      -1.72403      -0.75575
                        -----------------------------------------
Total Dipole Moment    :     -0.16691      -0.46609      -0.49127
                        -----------------------------------------
Magnitude (a.u.)       :      0.69745
Magnitude (Debye)      :      1.77279

Rotational constants in cm-1:     4.425499     0.781747     0.753191
Rotational constants in MHz : 132673.108542 23436.197818 22580.093590

                             ****ORCA TERMINATED NORMALLY****
TOTAL RUN TIME: 0 days 0 hours 1 minutes 1 seconds 688 msec
