                         Program Version 4.1.2  - RELEASE  -
|  1> #Run DFT-D3 single point of the dimer
|  2> ! wB97X-D3 def2-TZVP TIGHTSCF CHELPG PMODEL PAL8
|  3>
|  4> %base "12-76_DFT_AB"
|  5>
|  6> %scf
|  7> MaxIter 1000
|  8> end
|  9>
| 10> * xyz 0 1
| 11>   C                      7.095750             3.934989             5.712976
| 12>   O                      8.233398             3.019336             5.783510
| 13>   H                      8.730311             3.165655             4.956165
| 14>   H                      6.340234             3.723684             6.452433
| 15>   H                      7.425371             4.894638             6.015371
| 16>   H                      6.636750             3.988568             4.765022
| 17>   C                      7.449782             1.804632             9.449513
| 18>   O                      6.649201             2.837108             9.922031
| 19>   H                      6.442185             2.662994             10.847190
| 20>   H                      7.806639             2.077789             8.440762
| 21>   H                      8.285517             1.591746             10.104845
| 22>   H                      6.863866             0.925718             9.372464
| 23> *
| 24>
| 25> #Run DFT-D3 single point of the molecule with dimer basis set
| 26> $new_job
| 27> %base "12-76_DFT_A"
| 28> ! wB97X-D3 def2-TZVP TIGHTSCF CHELPG PMODEL
| 29>
| 30> %scf
| 31> MaxIter 1000
| 32> end
| 33>
| 34> * xyz 0 1
| 35>   C                      7.095750             3.934989             5.712976
| 36>   O                      8.233398             3.019336             5.783510
| 37>   H                      8.730311             3.165655             4.956165
| 38>   H                      6.340234             3.723684             6.452433
| 39>   H                      7.425371             4.894638             6.015371
| 40>   H                      6.636750             3.988568             4.765022
| 41>   C                    : 7.449782             1.804632             9.449513
| 42>   O                    : 6.649201             2.837108             9.922031
| 43>   H                    : 6.442185             2.662994             10.847190
| 44>   H                    : 7.806639             2.077789             8.440762
| 45>   H                    : 8.285517             1.591746             10.104845
| 46>   H                    : 6.863866             0.925718             9.372464
| 47> *
| 48>
| 49> #Run DFT-D3 single point of the particle with dimer basis set
| 50> $new_job
| 51> %base "12-76_DFT_B"
| 52> ! wB97X-D3 def2-TZVP TIGHTSCF CHELPG PMODEL
| 53>
| 54> %scf
| 55> MaxIter 1000
| 56> end
| 57>
| 58> * xyz 0 1
| 59>   C                    : 7.095750             3.934989             5.712976
| 60>   O                    : 8.233398             3.019336             5.783510
| 61>   H                    : 8.730311             3.165655             4.956165
| 62>   H                    : 6.340234             3.723684             6.452433
| 63>   H                    : 7.425371             4.894638             6.015371
| 64>   H                    : 6.636750             3.988568             4.765022
| 65>   C                      7.449782             1.804632             9.449513
| 66>   O                      6.649201             2.837108             9.922031
| 67>   H                      6.442185             2.662994             10.847190
| 68>   H                      7.806639             2.077789             8.440762
| 69>   H                      8.285517             1.591746             10.104845
| 70>   H                      6.863866             0.925718             9.372464
| 71> *
| 72>
| 73>                          ****END OF INPUT****
 Total Charge           Charge          ....    0
 Multiplicity           Mult            ....    1
 Number of Electrons    NEL             ....   36
Dispersion correction           -0.001379884
FINAL SINGLE POINT ENERGY      -231.468787409108
Dispersion correction           -0.000247378
FINAL SINGLE POINT ENERGY      -115.731059201425

CARTESIAN COORDINATES (ANGSTROEM)
---------------------------------
  C      7.095750    3.934989    5.712976
  O      8.233398    3.019336    5.783510
  H      8.730311    3.165655    4.956165
  H      6.340234    3.723684    6.452433
  H      7.425371    4.894638    6.015371
  H      6.636750    3.988568    4.765022
  C      7.449782    1.804632    9.449513
  O      6.649201    2.837108    9.922031
  H      6.442185    2.662994   10.847190
  H      7.806639    2.077789    8.440762
  H      8.285517    1.591746   10.104845
  H      6.863866    0.925718    9.372464

 Multiplicity           Mult            ....    1
 Number of Electrons    NEL             ....   18
 Basis Dimension        Dim             ....  172

ORBITAL ENERGIES
----------------

  NO   OCC          E(Eh)            E(eV)
   0   2.0000     -19.227606      -523.2098
   1   2.0000     -10.306296      -280.4486
   2   2.0000      -1.142153       -31.0796
   3   2.0000      -0.795506       -21.6468
   4   2.0000      -0.616284       -16.7699
   5   2.0000      -0.547863       -14.9081
   6   2.0000      -0.528762       -14.3884
   7   2.0000      -0.432801       -11.7771
   8   2.0000      -0.370838       -10.0910
   9   0.0000       0.089767         2.4427
  10   0.0000       0.117418         3.1951
  11   0.0000       0.158081         4.3016
  12   0.0000       0.173956         4.7336
  13   0.0000       0.188375         5.1260

MULLIKEN ATOMIC CHARGES
-----------------------
   0 C :    0.000506
   1 O :   -0.000007
   2 H :   -0.000027
   3 H :   -0.000580
   4 H :   -0.000132
   5 H :    0.000079
   6 C :   -0.144965
   7 O :   -0.475927
   8 H :    0.313452
   9 H :    0.109695
  10 H :    0.098486
  11 H :    0.099418
Sum of atomic charges:   -0.0000000

LOEWDIN ATOMIC CHARGES
----------------------
   0 C :   -0.001469
   1 O :   -0.001829
   2 H :   -0.000085
   3 H :   -0.000637
   4 H :   -0.000039
   5 H :   -0.000009
   6 C :   -0.396653
   7 O :   -0.062399
   8 H :    0.171976
   9 H :    0.112466
  10 H :    0.091691
  11 H :    0.086987

  Mayer bond orders larger than 0.1
B(  6-C ,  7-O ) :   0.9990 B(  6-C ,  9-H ) :   0.9744 B(  6-C , 10-H ) :   0.9785
B(  6-C , 11-H ) :   0.9839 B(  7-O ,  8-H ) :   0.8980

Dispersion correction           -0.000215306
FINAL SINGLE POINT ENERGY      -115.735434539074

DIPOLE MOMENT
-------------
                                X             Y             Z
Electronic contribution:     -0.98907       1.37774       0.49686
Nuclear contribution   :      1.16556      -1.89443      -0.08912
                        -----------------------------------------
Total Dipole Moment    :      0.17649      -0.51669       0.40775
                        -----------------------------------------
Magnitude (a.u.)       :      0.68145
Magnitude (Debye)      :      1.73210

Rotational constants in cm-1:     4.328112     0.865205     0.827082
Rotational constants in MHz : 129753.545368 25938.202708 24795.308751

                             ****ORCA TERMINATED NORMALLY****
TOTAL RUN TIME: 0 days 0 hours 1 minutes 6 seconds 947 msec
