                         Program Version 4.1.2  - RELEASE  -
|  1> #Run DFT-D3 single point of the dimer
|  2> ! wB97X-D3 def2-TZVP TIGHTSCF CHELPG PMODEL PAL8
|  3>
|  4> %base "7-174_DFT_AB"
|  5>
|  6> %scf
|  7> MaxIter 1000
|  8> end
|  9>
| 10> * xyz 0 1
| 11>   C                      -3.822088            -6.871713            6.537314
| 12>   O                      -3.235717            -6.344426            5.348432
| 13>   H                      -3.302190            -7.080030            4.760538
| 14>   H                      -3.472356            -6.333496            7.412923
| 15>   H                      -4.918826            -6.796098            6.402369
| 16>   H                      -3.543735            -7.890104            6.788116
| 17>   C                      -5.076573            -6.879441            1.705663
| 18>   O                      -3.866430            -6.551945            2.291352
| 19>   H                      -3.217793            -7.265157            2.074985
| 20>   H                      -5.829489            -6.212226            1.964640
| 21>   H                      -5.003095            -6.860190            0.617543
| 22>   H                      -5.416746            -7.881705            2.055767
| 23> *
| 24>
| 25> #Run DFT-D3 single point of the molecule with dimer basis set
| 26> $new_job
| 27> %base "7-174_DFT_A"
| 28> ! wB97X-D3 def2-TZVP TIGHTSCF CHELPG PMODEL
| 29>
| 30> %scf
| 31> MaxIter 1000
| 32> end
| 33>
| 34> * xyz 0 1
| 35>   C                      -3.822088            -6.871713            6.537314
| 36>   O                      -3.235717            -6.344426            5.348432
| 37>   H                      -3.302190            -7.080030            4.760538
| 38>   H                      -3.472356            -6.333496            7.412923
| 39>   H                      -4.918826            -6.796098            6.402369
| 40>   H                      -3.543735            -7.890104            6.788116
| 41>   C                    : -5.076573            -6.879441            1.705663
| 42>   O                    : -3.866430            -6.551945            2.291352
| 43>   H                    : -3.217793            -7.265157            2.074985
| 44>   H                    : -5.829489            -6.212226            1.964640
| 45>   H                    : -5.003095            -6.860190            0.617543
| 46>   H                    : -5.416746            -7.881705            2.055767
| 47> *
| 48>
| 49> #Run DFT-D3 single point of the particle with dimer basis set
| 50> $new_job
| 51> %base "7-174_DFT_B"
| 52> ! wB97X-D3 def2-TZVP TIGHTSCF CHELPG PMODEL
| 53>
| 54> %scf
| 55> MaxIter 1000
| 56> end
| 57>
| 58> * xyz 0 1
| 59>   C                    : -3.822088            -6.871713            6.537314
| 60>   O                    : -3.235717            -6.344426            5.348432
| 61>   H                    : -3.302190            -7.080030            4.760538
| 62>   H                    : -3.472356            -6.333496            7.412923
| 63>   H                    : -4.918826            -6.796098            6.402369
| 64>   H                    : -3.543735            -7.890104            6.788116
| 65>   C                      -5.076573            -6.879441            1.705663
| 66>   O                      -3.866430            -6.551945            2.291352
| 67>   H                      -3.217793            -7.265157            2.074985
| 68>   H                      -5.829489            -6.212226            1.964640
| 69>   H                      -5.003095            -6.860190            0.617543
| 70>   H                      -5.416746            -7.881705            2.055767
| 71> *
| 72>
| 73>                          ****END OF INPUT****
 Total Charge           Charge          ....    0
 Multiplicity           Mult            ....    1
 Number of Electrons    NEL             ....   36
Dispersion correction           -0.001380456
FINAL SINGLE POINT ENERGY      -231.466304964597
Dispersion correction           -0.000228393
FINAL SINGLE POINT ENERGY      -115.733003223517

CARTESIAN COORDINATES (ANGSTROEM)
---------------------------------
  C     -3.822088   -6.871713    6.537314
  O     -3.235717   -6.344426    5.348432
  H     -3.302190   -7.080030    4.760538
  H     -3.472356   -6.333496    7.412923
  H     -4.918826   -6.796098    6.402369
  H     -3.543735   -7.890104    6.788116
  C     -5.076573   -6.879441    1.705663
  O     -3.866430   -6.551945    2.291352
  H     -3.217793   -7.265157    2.074985
  H     -5.829489   -6.212226    1.964640
  H     -5.003095   -6.860190    0.617543
  H     -5.416746   -7.881705    2.055767

 Multiplicity           Mult            ....    1
 Number of Electrons    NEL             ....   18
 Basis Dimension        Dim             ....  172

ORBITAL ENERGIES
----------------

  NO   OCC          E(Eh)            E(eV)
   0   2.0000     -19.232380      -523.3397
   1   2.0000     -10.306203      -280.4460
   2   2.0000      -1.140995       -31.0480
   3   2.0000      -0.795977       -21.6596
   4   2.0000      -0.610641       -16.6164
   5   2.0000      -0.546726       -14.8772
   6   2.0000      -0.538792       -14.6613
   7   2.0000      -0.429764       -11.6945
   8   2.0000      -0.371233       -10.1018
   9   0.0000       0.092537         2.5181
  10   0.0000       0.117568         3.1992
  11   0.0000       0.155741         4.2379
  12   0.0000       0.192432         5.2363
  13   0.0000       0.197338         5.3698

MULLIKEN ATOMIC CHARGES
-----------------------
   0 C :    0.002030
   1 O :    0.002217
   2 H :   -0.014121
   3 H :   -0.000043
   4 H :   -0.000341
   5 H :   -0.000075
   6 C :   -0.153818
   7 O :   -0.466885
   8 H :    0.320684
   9 H :    0.123042
  10 H :    0.097768
  11 H :    0.089542
Sum of atomic charges:    0.0000000

LOEWDIN ATOMIC CHARGES
----------------------
   0 C :   -0.000455
   1 O :   -0.004548
   2 H :   -0.012992
   3 H :   -0.000013
   4 H :   -0.000053
   5 H :   -0.000004
   6 C :   -0.405136
   7 O :   -0.053617
   8 H :    0.189830
   9 H :    0.095606
  10 H :    0.094206
  11 H :    0.097177

  Mayer bond orders larger than 0.1
B(  6-C ,  7-O ) :   0.9996 B(  6-C ,  9-H ) :   0.9733 B(  6-C , 10-H ) :   0.9761
B(  6-C , 11-H ) :   0.9831 B(  7-O ,  8-H ) :   0.8909

Dispersion correction           -0.000222036
FINAL SINGLE POINT ENERGY      -115.733631598281

DIPOLE MOMENT
-------------
                                X             Y             Z
Electronic contribution:      1.49756       0.64397       0.81888
Nuclear contribution   :     -1.57075      -1.18623      -1.18304
                        -----------------------------------------
Total Dipole Moment    :     -0.07319      -0.54226      -0.36416
                        -----------------------------------------
Magnitude (a.u.)       :      0.65728
Magnitude (Debye)      :      1.67066

Rotational constants in cm-1:     4.335784     0.858140     0.833127
Rotational constants in MHz : 129983.528628 25726.385488 24976.526325

                             ****ORCA TERMINATED NORMALLY****
TOTAL RUN TIME: 0 days 0 hours 1 minutes 12 seconds 343 msec
