                         Program Version 4.1.2  - RELEASE  -
|  1> #Run DFT-D3 single point of the dimer
|  2> ! wB97X-D3 def2-TZVP TIGHTSCF CHELPG PMODEL PAL8
|  3>
|  4> %base "3-64_DFT_AB"
|  5>
|  6> %scf
|  7> MaxIter 1000
|  8> end
|  9>
| 10> * xyz 0 1
| 11>   C                      -8.550756            3.122368             3.230009
| 12>   O                      -8.562572            2.964860             1.793958
| 13>   H                      -8.190921            3.761981             1.375839
| 14>   H                      -9.274297            2.452273             3.762807
| 15>   H                      -7.574168            2.767367             3.602449
| 16>   H                      -8.847867            4.108928             3.617314
| 17>   C                      -5.681517            -0.035943            0.537583
| 18>   O                      -4.971244            0.956705             1.270055
| 19>   H                      -5.458685            1.163747             2.077245
| 20>   H                      -5.172222            -0.251793            -0.411621
| 21>   H                      -5.730246            -0.965608            1.081801
| 22>   H                      -6.693816            0.404260             0.361183
| 23> *
| 24>
| 25> #Run DFT-D3 single point of the molecule with dimer basis set
| 26> $new_job
| 27> %base "3-64_DFT_A"
| 28> ! wB97X-D3 def2-TZVP TIGHTSCF CHELPG PMODEL
| 29>
| 30> %scf
| 31> MaxIter 1000
| 32> end
| 33>
| 34> * xyz 0 1
| 35>   C                      -8.550756            3.122368             3.230009
| 36>   O                      -8.562572            2.964860             1.793958
| 37>   H                      -8.190921            3.761981             1.375839
| 38>   H                      -9.274297            2.452273             3.762807
| 39>   H                      -7.574168            2.767367             3.602449
| 40>   H                      -8.847867            4.108928             3.617314
| 41>   C                    : -5.681517            -0.035943            0.537583
| 42>   O                    : -4.971244            0.956705             1.270055
| 43>   H                    : -5.458685            1.163747             2.077245
| 44>   H                    : -5.172222            -0.251793            -0.411621
| 45>   H                    : -5.730246            -0.965608            1.081801
| 46>   H                    : -6.693816            0.404260             0.361183
| 47> *
| 48>
| 49> #Run DFT-D3 single point of the particle with dimer basis set
| 50> $new_job
| 51> %base "3-64_DFT_B"
| 52> ! wB97X-D3 def2-TZVP TIGHTSCF CHELPG PMODEL
| 53>
| 54> %scf
| 55> MaxIter 1000
| 56> end
| 57>
| 58> * xyz 0 1
| 59>   C                    : -8.550756            3.122368             3.230009
| 60>   O                    : -8.562572            2.964860             1.793958
| 61>   H                    : -8.190921            3.761981             1.375839
| 62>   H                    : -9.274297            2.452273             3.762807
| 63>   H                    : -7.574168            2.767367             3.602449
| 64>   H                    : -8.847867            4.108928             3.617314
| 65>   C                      -5.681517            -0.035943            0.537583
| 66>   O                      -4.971244            0.956705             1.270055
| 67>   H                      -5.458685            1.163747             2.077245
| 68>   H                      -5.172222            -0.251793            -0.411621
| 69>   H                      -5.730246            -0.965608            1.081801
| 70>   H                      -6.693816            0.404260             0.361183
| 71> *
| 72>
| 73>                          ****END OF INPUT****
 Total Charge           Charge          ....    0
 Multiplicity           Mult            ....    1
 Number of Electrons    NEL             ....   36
Dispersion correction           -0.001249206
FINAL SINGLE POINT ENERGY      -231.467993490817
Dispersion correction           -0.000281362
FINAL SINGLE POINT ENERGY      -115.731455776080

CARTESIAN COORDINATES (ANGSTROEM)
---------------------------------
  C     -8.550756    3.122368    3.230009
  O     -8.562572    2.964860    1.793958
  H     -8.190921    3.761981    1.375839
  H     -9.274297    2.452273    3.762807
  H     -7.574168    2.767367    3.602449
  H     -8.847867    4.108928    3.617314
  C     -5.681517   -0.035943    0.537583
  O     -4.971244    0.956705    1.270055
  H     -5.458685    1.163747    2.077245
  H     -5.172222   -0.251793   -0.411621
  H     -5.730246   -0.965608    1.081801
  H     -6.693816    0.404260    0.361183

 Multiplicity           Mult            ....    1
 Number of Electrons    NEL             ....   18
 Basis Dimension        Dim             ....  172

ORBITAL ENERGIES
----------------

  NO   OCC          E(Eh)            E(eV)
   0   2.0000     -19.226407      -523.1771
   1   2.0000     -10.315008      -280.6856
   2   2.0000      -1.130024       -30.7495
   3   2.0000      -0.793168       -21.5832
   4   2.0000      -0.603700       -16.4275
   5   2.0000      -0.546472       -14.8703
   6   2.0000      -0.527025       -14.3411
   7   2.0000      -0.428670       -11.6647
   8   2.0000      -0.371198       -10.1008
   9   0.0000       0.072377         1.9695
  10   0.0000       0.124360         3.3840
  11   0.0000       0.147996         4.0272
  12   0.0000       0.162194         4.4135
  13   0.0000       0.188996         5.1428

MULLIKEN ATOMIC CHARGES
-----------------------
   0 C :    0.000059
   1 O :   -0.000070
   2 H :   -0.000118
   3 H :    0.000001
   4 H :   -0.000683
   5 H :   -0.000029
   6 C :   -0.156526
   7 O :   -0.482800
   8 H :    0.314601
   9 H :    0.119414
  10 H :    0.105503
  11 H :    0.100650
Sum of atomic charges:    0.0000000

LOEWDIN ATOMIC CHARGES
----------------------
   0 C :   -0.000458
   1 O :   -0.000238
   2 H :   -0.000122
   3 H :   -0.000003
   4 H :   -0.000648
   5 H :   -0.000006
   6 C :   -0.375803
   7 O :   -0.092847
   8 H :    0.169030
   9 H :    0.109592
  10 H :    0.090604
  11 H :    0.100898

  Mayer bond orders larger than 0.1
B(  6-C ,  7-O ) :   0.9894 B(  6-C ,  9-H ) :   0.9709 B(  6-C , 10-H ) :   0.9740
B(  6-C , 11-H ) :   0.9847 B(  7-O ,  8-H ) :   0.8989

Dispersion correction           -0.000230990
FINAL SINGLE POINT ENERGY      -115.734751232404

DIPOLE MOMENT
-------------
                                X             Y             Z
Electronic contribution:      1.01037       1.16290       0.78946
Nuclear contribution   :     -1.59522      -1.44743      -0.58161
                        -----------------------------------------
Total Dipole Moment    :     -0.58485      -0.28453       0.20785
                        -----------------------------------------
Magnitude (a.u.)       :      0.68279
Magnitude (Debye)      :      1.73552

Rotational constants in cm-1:     4.201746     0.826184     0.798413
Rotational constants in MHz : 125965.186221 24768.382770 23935.809696

                             ****ORCA TERMINATED NORMALLY****
TOTAL RUN TIME: 0 days 0 hours 5 minutes 59 seconds 292 msec
