                         Program Version 4.1.2  - RELEASE  -
|  1> #Run DFT-D3 single point of the dimer
|  2> ! wB97X-D3 def2-TZVP TIGHTSCF CHELPG PMODEL PAL8
|  3>
|  4> %base "3-146_DFT_AB"
|  5>
|  6> %scf
|  7> MaxIter 1000
|  8> end
|  9>
| 10> * xyz 0 1
| 11>   C                      -3.609709            -6.212238            11.084964
| 12>   O                      -4.364734            -5.445713            10.082139
| 13>   H                      -4.900436            -4.779414            10.518448
| 14>   H                      -3.996064            -6.014864            12.063790
| 15>   H                      -3.631724            -7.334633            10.985328
| 16>   H                      -2.523652            -5.863047            11.239573
| 17>   C                      -5.205219            -0.324728            10.663976
| 18>   O                      -4.260699            -1.112100            11.339290
| 19>   H                      -4.538888            -2.023173            11.193134
| 20>   H                      -6.193105            -0.518040            11.173628
| 21>   H                      -4.992310            0.793116             10.816407
| 22>   H                      -5.336198            -0.628556            9.649572
| 23> *
| 24>
| 25> #Run DFT-D3 single point of the molecule with dimer basis set
| 26> $new_job
| 27> %base "3-146_DFT_A"
| 28> ! wB97X-D3 def2-TZVP TIGHTSCF CHELPG PMODEL
| 29>
| 30> %scf
| 31> MaxIter 1000
| 32> end
| 33>
| 34> * xyz 0 1
| 35>   C                      -3.609709            -6.212238            11.084964
| 36>   O                      -4.364734            -5.445713            10.082139
| 37>   H                      -4.900436            -4.779414            10.518448
| 38>   H                      -3.996064            -6.014864            12.063790
| 39>   H                      -3.631724            -7.334633            10.985328
| 40>   H                      -2.523652            -5.863047            11.239573
| 41>   C                    : -5.205219            -0.324728            10.663976
| 42>   O                    : -4.260699            -1.112100            11.339290
| 43>   H                    : -4.538888            -2.023173            11.193134
| 44>   H                    : -6.193105            -0.518040            11.173628
| 45>   H                    : -4.992310            0.793116             10.816407
| 46>   H                    : -5.336198            -0.628556            9.649572
| 47> *
| 48>
| 49> #Run DFT-D3 single point of the particle with dimer basis set
| 50> $new_job
| 51> %base "3-146_DFT_B"
| 52> ! wB97X-D3 def2-TZVP TIGHTSCF CHELPG PMODEL
| 53>
| 54> %scf
| 55> MaxIter 1000
| 56> end
| 57>
| 58> * xyz 0 1
| 59>   C                    : -3.609709            -6.212238            11.084964
| 60>   O                    : -4.364734            -5.445713            10.082139
| 61>   H                    : -4.900436            -4.779414            10.518448
| 62>   H                    : -3.996064            -6.014864            12.063790
| 63>   H                    : -3.631724            -7.334633            10.985328
| 64>   H                    : -2.523652            -5.863047            11.239573
| 65>   C                      -5.205219            -0.324728            10.663976
| 66>   O                      -4.260699            -1.112100            11.339290
| 67>   H                      -4.538888            -2.023173            11.193134
| 68>   H                      -6.193105            -0.518040            11.173628
| 69>   H                      -4.992310            0.793116             10.816407
| 70>   H                      -5.336198            -0.628556            9.649572
| 71> *
| 72>
| 73>                          ****END OF INPUT****
 Total Charge           Charge          ....    0
 Multiplicity           Mult            ....    1
 Number of Electrons    NEL             ....   36
Dispersion correction           -0.000949567
FINAL SINGLE POINT ENERGY      -231.456227250745
Dispersion correction           -0.000298218
FINAL SINGLE POINT ENERGY      -115.726054441749

CARTESIAN COORDINATES (ANGSTROEM)
---------------------------------
  C     -3.609709   -6.212238   11.084964
  O     -4.364734   -5.445713   10.082139
  H     -4.900436   -4.779414   10.518448
  H     -3.996064   -6.014864   12.063790
  H     -3.631724   -7.334633   10.985328
  H     -2.523652   -5.863047   11.239573
  C     -5.205219   -0.324728   10.663976
  O     -4.260699   -1.112100   11.339290
  H     -4.538888   -2.023173   11.193134
  H     -6.193105   -0.518040   11.173628
  H     -4.992310    0.793116   10.816407
  H     -5.336198   -0.628556    9.649572

 Multiplicity           Mult            ....    1
 Number of Electrons    NEL             ....   18
 Basis Dimension        Dim             ....  172

ORBITAL ENERGIES
----------------

  NO   OCC          E(Eh)            E(eV)
   0   2.0000     -19.229778      -523.2689
   1   2.0000     -10.318541      -280.7818
   2   2.0000      -1.141102       -31.0510
   3   2.0000      -0.787712       -21.4347
   4   2.0000      -0.613970       -16.7070
   5   2.0000      -0.541752       -14.7418
   6   2.0000      -0.524444       -14.2708
   7   2.0000      -0.435953       -11.8629
   8   2.0000      -0.368521       -10.0280
   9   0.0000       0.073297         1.9945
  10   0.0000       0.114908         3.1268
  11   0.0000       0.150956         4.1077
  12   0.0000       0.178662         4.8617
  13   0.0000       0.194142         5.2829

MULLIKEN ATOMIC CHARGES
-----------------------
   0 C :    0.000054
   1 O :    0.000046
   2 H :   -0.000631
   3 H :   -0.000012
   4 H :   -0.000000
   5 H :   -0.000006
   6 C :   -0.176169
   7 O :   -0.466439
   8 H :    0.315355
   9 H :    0.096030
  10 H :    0.122242
  11 H :    0.109529
Sum of atomic charges:    0.0000000

LOEWDIN ATOMIC CHARGES
----------------------
   0 C :   -0.000050
   1 O :   -0.000071
   2 H :   -0.001177
   3 H :   -0.000006
   4 H :   -0.000001
   5 H :   -0.000004
   6 C :   -0.402555
   7 O :   -0.074324
   8 H :    0.173034
   9 H :    0.098468
  10 H :    0.120008
  11 H :    0.086677

  Mayer bond orders larger than 0.1
B(  6-C ,  7-O ) :   0.9914 B(  6-C ,  9-H ) :   0.9857 B(  6-C , 10-H ) :   0.9687
B(  6-C , 11-H ) :   0.9706 B(  7-O ,  8-H ) :   0.8997

Dispersion correction           -0.000219800
FINAL SINGLE POINT ENERGY      -115.731047961757

DIPOLE MOMENT
-------------
                                X             Y             Z
Electronic contribution:      1.42384      -0.86276       0.76199
Nuclear contribution   :     -1.95924       0.58615      -1.11544
                        -----------------------------------------
Total Dipole Moment    :     -0.53540      -0.27661      -0.35345
                        -----------------------------------------
Magnitude (a.u.)       :      0.69863
Magnitude (Debye)      :      1.77578

Rotational constants in cm-1:     4.099411     0.850787     0.809431
Rotational constants in MHz : 122897.261911 25505.951135 24266.119216

                             ****ORCA TERMINATED NORMALLY****
TOTAL RUN TIME: 0 days 0 hours 6 minutes 11 seconds 999 msec
