                         Program Version 4.1.2  - RELEASE  -
|  1> #Run DFT-D3 single point of the dimer
|  2> ! wB97X-D3 def2-TZVP TIGHTSCF CHELPG PMODEL PAL8
|  3>
|  4> %base "12-41_DFT_AB"
|  5>
|  6> %scf
|  7> MaxIter 1000
|  8> end
|  9>
| 10> * xyz 0 1
| 11>   C                      -8.068520            9.350120             1.189583
| 12>   O                      -8.752625            10.376869            1.873308
| 13>   H                      -8.135761            11.181691            1.909176
| 14>   H                      -6.977706            9.408543             1.361703
| 15>   H                      -8.315950            8.386054             1.585649
| 16>   H                      -8.351789            9.399995             0.160666
| 17>   C                      -3.658527            9.864474             0.998083
| 18>   O                      -3.035005            8.704219             0.723250
| 19>   H                      -3.092916            8.099042             1.478652
| 20>   H                      -3.529899            10.086629            2.048917
| 21>   H                      -3.352869            10.684244            0.445372
| 22>   H                      -4.764026            9.848275             0.938371
| 23> *
| 24>
| 25> #Run DFT-D3 single point of the molecule with dimer basis set
| 26> $new_job
| 27> %base "12-41_DFT_A"
| 28> ! wB97X-D3 def2-TZVP TIGHTSCF CHELPG PMODEL
| 29>
| 30> %scf
| 31> MaxIter 1000
| 32> end
| 33>
| 34> * xyz 0 1
| 35>   C                      -8.068520            9.350120             1.189583
| 36>   O                      -8.752625            10.376869            1.873308
| 37>   H                      -8.135761            11.181691            1.909176
| 38>   H                      -6.977706            9.408543             1.361703
| 39>   H                      -8.315950            8.386054             1.585649
| 40>   H                      -8.351789            9.399995             0.160666
| 41>   C                    : -3.658527            9.864474             0.998083
| 42>   O                    : -3.035005            8.704219             0.723250
| 43>   H                    : -3.092916            8.099042             1.478652
| 44>   H                    : -3.529899            10.086629            2.048917
| 45>   H                    : -3.352869            10.684244            0.445372
| 46>   H                    : -4.764026            9.848275             0.938371
| 47> *
| 48>
| 49> #Run DFT-D3 single point of the particle with dimer basis set
| 50> $new_job
| 51> %base "12-41_DFT_B"
| 52> ! wB97X-D3 def2-TZVP TIGHTSCF CHELPG PMODEL
| 53>
| 54> %scf
| 55> MaxIter 1000
| 56> end
| 57>
| 58> * xyz 0 1
| 59>   C                    : -8.068520            9.350120             1.189583
| 60>   O                    : -8.752625            10.376869            1.873308
| 61>   H                    : -8.135761            11.181691            1.909176
| 62>   H                    : -6.977706            9.408543             1.361703
| 63>   H                    : -8.315950            8.386054             1.585649
| 64>   H                    : -8.351789            9.399995             0.160666
| 65>   C                      -3.658527            9.864474             0.998083
| 66>   O                      -3.035005            8.704219             0.723250
| 67>   H                      -3.092916            8.099042             1.478652
| 68>   H                      -3.529899            10.086629            2.048917
| 69>   H                      -3.352869            10.684244            0.445372
| 70>   H                      -4.764026            9.848275             0.938371
| 71> *
| 72>
| 73>                          ****END OF INPUT****
 Total Charge           Charge          ....    0
 Multiplicity           Mult            ....    1
 Number of Electrons    NEL             ....   36
Dispersion correction           -0.001113764
FINAL SINGLE POINT ENERGY      -231.458933841548
Dispersion correction           -0.000235555
FINAL SINGLE POINT ENERGY      -115.731111426374

CARTESIAN COORDINATES (ANGSTROEM)
---------------------------------
  C     -8.068520    9.350120    1.189583
  O     -8.752625   10.376869    1.873308
  H     -8.135761   11.181691    1.909176
  H     -6.977706    9.408543    1.361703
  H     -8.315950    8.386054    1.585649
  H     -8.351789    9.399995    0.160666
  C     -3.658527    9.864474    0.998083
  O     -3.035005    8.704219    0.723250
  H     -3.092916    8.099042    1.478652
  H     -3.529899   10.086629    2.048917
  H     -3.352869   10.684244    0.445372
  H     -4.764026    9.848275    0.938371

 Multiplicity           Mult            ....    1
 Number of Electrons    NEL             ....   18
 Basis Dimension        Dim             ....  172

ORBITAL ENERGIES
----------------

  NO   OCC          E(Eh)            E(eV)
   0   2.0000     -19.231157      -523.3064
   1   2.0000     -10.300874      -280.3010
   2   2.0000      -1.156620       -31.4732
   3   2.0000      -0.799384       -21.7523
   4   2.0000      -0.629367       -17.1259
   5   2.0000      -0.550696       -14.9852
   6   2.0000      -0.539185       -14.6720
   7   2.0000      -0.429186       -11.6788
   8   2.0000      -0.365567        -9.9476
   9   0.0000       0.085520         2.3271
  10   0.0000       0.114418         3.1135
  11   0.0000       0.157491         4.2855
  12   0.0000       0.168294         4.5795
  13   0.0000       0.196261         5.3405

MULLIKEN ATOMIC CHARGES
-----------------------
   0 C :   -0.003952
   1 O :    0.000134
   2 H :   -0.000071
   3 H :    0.007584
   4 H :    0.000092
   5 H :   -0.000228
   6 C :   -0.143546
   7 O :   -0.465021
   8 H :    0.324007
   9 H :    0.091074
  10 H :    0.120768
  11 H :    0.069160
Sum of atomic charges:   -0.0000000

LOEWDIN ATOMIC CHARGES
----------------------
   0 C :   -0.002394
   1 O :   -0.000013
   2 H :   -0.000061
   3 H :   -0.006513
   4 H :   -0.000022
   5 H :   -0.000060
   6 C :   -0.433187
   7 O :   -0.025266
   8 H :    0.183832
   9 H :    0.093568
  10 H :    0.093664
  11 H :    0.096453

  Mayer bond orders larger than 0.1
B(  6-C ,  7-O ) :   1.0185 B(  6-C ,  9-H ) :   1.0007 B(  6-C , 10-H ) :   0.9736
B(  6-C , 11-H ) :   0.9694 B(  7-O ,  8-H ) :   0.8907

Dispersion correction           -0.000217531
FINAL SINGLE POINT ENERGY      -115.727550298374

DIPOLE MOMENT
-------------
                                X             Y             Z
Electronic contribution:      1.01779      -1.52244      -0.66535
Nuclear contribution   :     -1.25028       1.55916       1.26619
                        -----------------------------------------
Total Dipole Moment    :     -0.23249       0.03672       0.60084
                        -----------------------------------------
Magnitude (a.u.)       :      0.64529
Magnitude (Debye)      :      1.64020

Rotational constants in cm-1:     4.579634     0.894680     0.856126
Rotational constants in MHz : 137293.974219 26821.817676 25666.005727

                             ****ORCA TERMINATED NORMALLY****
TOTAL RUN TIME: 0 days 0 hours 1 minutes 14 seconds 309 msec
