                         Program Version 4.1.2  - RELEASE  -
|  1> #Run DFT-D3 single point of the dimer
|  2> ! wB97X-D3 def2-TZVP TIGHTSCF CHELPG PMODEL PAL8
|  3>
|  4> %base "4-99_DFT_AB"
|  5>
|  6> %scf
|  7> MaxIter 1000
|  8> end
|  9>
| 10> * xyz 0 1
| 11>   C                      8.304697             0.773642             -7.879795
| 12>   O                      7.697569             -0.052126            -8.879199
| 13>   H                      7.046114             -0.492704            -8.416586
| 14>   H                      8.728058             0.224718             -7.058519
| 15>   H                      9.138744             1.205424             -8.296531
| 16>   H                      7.608282             1.530593             -7.478363
| 17>   C                      7.906974             -3.309118            -7.590803
| 18>   O                      8.886369             -4.075703            -7.023614
| 19>   H                      8.844728             -3.906499            -6.073545
| 20>   H                      6.880082             -3.727048            -7.403236
| 21>   H                      7.847218             -2.269303            -7.190911
| 22>   H                      7.917304             -3.275971            -8.715529
| 23> *
| 24>
| 25> #Run DFT-D3 single point of the molecule with dimer basis set
| 26> $new_job
| 27> %base "4-99_DFT_A"
| 28> ! wB97X-D3 def2-TZVP TIGHTSCF CHELPG PMODEL
| 29>
| 30> %scf
| 31> MaxIter 1000
| 32> end
| 33>
| 34> * xyz 0 1
| 35>   C                      8.304697             0.773642             -7.879795
| 36>   O                      7.697569             -0.052126            -8.879199
| 37>   H                      7.046114             -0.492704            -8.416586
| 38>   H                      8.728058             0.224718             -7.058519
| 39>   H                      9.138744             1.205424             -8.296531
| 40>   H                      7.608282             1.530593             -7.478363
| 41>   C                    : 7.906974             -3.309118            -7.590803
| 42>   O                    : 8.886369             -4.075703            -7.023614
| 43>   H                    : 8.844728             -3.906499            -6.073545
| 44>   H                    : 6.880082             -3.727048            -7.403236
| 45>   H                    : 7.847218             -2.269303            -7.190911
| 46>   H                    : 7.917304             -3.275971            -8.715529
| 47> *
| 48>
| 49> #Run DFT-D3 single point of the particle with dimer basis set
| 50> $new_job
| 51> %base "4-99_DFT_B"
| 52> ! wB97X-D3 def2-TZVP TIGHTSCF CHELPG PMODEL
| 53>
| 54> %scf
| 55> MaxIter 1000
| 56> end
| 57>
| 58> * xyz 0 1
| 59>   C                    : 8.304697             0.773642             -7.879795
| 60>   O                    : 7.697569             -0.052126            -8.879199
| 61>   H                    : 7.046114             -0.492704            -8.416586
| 62>   H                    : 8.728058             0.224718             -7.058519
| 63>   H                    : 9.138744             1.205424             -8.296531
| 64>   H                    : 7.608282             1.530593             -7.478363
| 65>   C                      7.906974             -3.309118            -7.590803
| 66>   O                      8.886369             -4.075703            -7.023614
| 67>   H                      8.844728             -3.906499            -6.073545
| 68>   H                      6.880082             -3.727048            -7.403236
| 69>   H                      7.847218             -2.269303            -7.190911
| 70>   H                      7.917304             -3.275971            -8.715529
| 71> *
| 72>
| 73>                          ****END OF INPUT****
 Total Charge           Charge          ....    0
 Multiplicity           Mult            ....    1
 Number of Electrons    NEL             ....   36
Dispersion correction           -0.001703929
FINAL SINGLE POINT ENERGY      -231.462256044744
Dispersion correction           -0.000227093
FINAL SINGLE POINT ENERGY      -115.730496799688

CARTESIAN COORDINATES (ANGSTROEM)
---------------------------------
  C      8.304697    0.773642   -7.879795
  O      7.697569   -0.052126   -8.879199
  H      7.046114   -0.492704   -8.416586
  H      8.728058    0.224718   -7.058519
  H      9.138744    1.205424   -8.296531
  H      7.608282    1.530593   -7.478363
  C      7.906974   -3.309118   -7.590803
  O      8.886369   -4.075703   -7.023614
  H      8.844728   -3.906499   -6.073545
  H      6.880082   -3.727048   -7.403236
  H      7.847218   -2.269303   -7.190911
  H      7.917304   -3.275971   -8.715529

 Multiplicity           Mult            ....    1
 Number of Electrons    NEL             ....   18
 Basis Dimension        Dim             ....  172

ORBITAL ENERGIES
----------------

  NO   OCC          E(Eh)            E(eV)
   0   2.0000     -19.236066      -523.4400
   1   2.0000     -10.318478      -280.7801
   2   2.0000      -1.154830       -31.4245
   3   2.0000      -0.788052       -21.4440
   4   2.0000      -0.622122       -16.9288
   5   2.0000      -0.541437       -14.7332
   6   2.0000      -0.531983       -14.4760
   7   2.0000      -0.432688       -11.7740
   8   2.0000      -0.368712       -10.0332
   9   0.0000       0.084505         2.2995
  10   0.0000       0.116796         3.1782
  11   0.0000       0.144432         3.9302
  12   0.0000       0.184427         5.0185
  13   0.0000       0.189955         5.1689

MULLIKEN ATOMIC CHARGES
-----------------------
   0 C :   -0.000295
   1 O :   -0.000923
   2 H :   -0.001083
   3 H :    0.000712
   4 H :   -0.000013
   5 H :    0.000117
   6 C :   -0.175050
   7 O :   -0.452141
   8 H :    0.321150
   9 H :    0.089920
  10 H :    0.099181
  11 H :    0.118424
Sum of atomic charges:   -0.0000000

LOEWDIN ATOMIC CHARGES
----------------------
   0 C :   -0.003764
   1 O :   -0.002326
   2 H :   -0.005578
   3 H :   -0.001842
   4 H :   -0.000048
   5 H :   -0.000022
   6 C :   -0.437923
   7 O :   -0.038505
   8 H :    0.181522
   9 H :    0.093997
  10 H :    0.100355
  11 H :    0.114135

  Mayer bond orders larger than 0.1
B(  6-C ,  7-O ) :   1.0101 B(  6-C ,  9-H ) :   0.9721 B(  6-C , 10-H ) :   0.9773
B(  6-C , 11-H ) :   0.9704 B(  7-O ,  8-H ) :   0.8936

Dispersion correction           -0.000237399
FINAL SINGLE POINT ENERGY      -115.731806113888

DIPOLE MOMENT
-------------
                                X             Y             Z
Electronic contribution:      1.57899      -1.10444       0.65447
Nuclear contribution   :     -1.94149       1.47799      -0.25533
                        -----------------------------------------
Total Dipole Moment    :     -0.36250       0.37355       0.39914
                        -----------------------------------------
Magnitude (a.u.)       :      0.65594
Magnitude (Debye)      :      1.66727

Rotational constants in cm-1:     4.250083     0.865096     0.826014
Rotational constants in MHz : 127414.273059 25934.913590 24763.263886

                             ****ORCA TERMINATED NORMALLY****
TOTAL RUN TIME: 0 days 0 hours 0 minutes 57 seconds 160 msec
