                         Program Version 4.1.2  - RELEASE  -
|  1> #Run DFT-D3 single point of the dimer
|  2> ! wB97X-D3 def2-TZVP TIGHTSCF CHELPG PMODEL PAL8
|  3>
|  4> %base "2-66_DFT_AB"
|  5>
|  6> %scf
|  7> MaxIter 1000
|  8> end
|  9>
| 10> * xyz 0 1
| 11>   C                      2.216168             -10.583670           6.792271
| 12>   O                      1.676542             -10.073466           5.612727
| 13>   H                      2.289929             -10.296612           4.873086
| 14>   H                      1.920652             -11.635590           6.979439
| 15>   H                      3.230282             -10.410300           6.926087
| 16>   H                      1.813010             -10.092693           7.607417
| 17>   C                      0.357423             -6.558365            4.784156
| 18>   O                      -0.415425            -7.731200            4.654204
| 19>   H                      -1.010567            -7.971096            5.396532
| 20>   H                      1.043747             -6.537130            5.675215
| 21>   H                      1.034653             -6.491278            3.907203
| 22>   H                      -0.222701            -5.699073            4.907246
| 23> *
| 24>
| 25> #Run DFT-D3 single point of the molecule with dimer basis set
| 26> $new_job
| 27> %base "2-66_DFT_A"
| 28> ! wB97X-D3 def2-TZVP TIGHTSCF CHELPG PMODEL
| 29>
| 30> %scf
| 31> MaxIter 1000
| 32> end
| 33>
| 34> * xyz 0 1
| 35>   C                      2.216168             -10.583670           6.792271
| 36>   O                      1.676542             -10.073466           5.612727
| 37>   H                      2.289929             -10.296612           4.873086
| 38>   H                      1.920652             -11.635590           6.979439
| 39>   H                      3.230282             -10.410300           6.926087
| 40>   H                      1.813010             -10.092693           7.607417
| 41>   C                    : 0.357423             -6.558365            4.784156
| 42>   O                    : -0.415425            -7.731200            4.654204
| 43>   H                    : -1.010567            -7.971096            5.396532
| 44>   H                    : 1.043747             -6.537130            5.675215
| 45>   H                    : 1.034653             -6.491278            3.907203
| 46>   H                    : -0.222701            -5.699073            4.907246
| 47> *
| 48>
| 49> #Run DFT-D3 single point of the particle with dimer basis set
| 50> $new_job
| 51> %base "2-66_DFT_B"
| 52> ! wB97X-D3 def2-TZVP TIGHTSCF CHELPG PMODEL
| 53>
| 54> %scf
| 55> MaxIter 1000
| 56> end
| 57>
| 58> * xyz 0 1
| 59>   C                    : 2.216168             -10.583670           6.792271
| 60>   O                    : 1.676542             -10.073466           5.612727
| 61>   H                    : 2.289929             -10.296612           4.873086
| 62>   H                    : 1.920652             -11.635590           6.979439
| 63>   H                    : 3.230282             -10.410300           6.926087
| 64>   H                    : 1.813010             -10.092693           7.607417
| 65>   C                      0.357423             -6.558365            4.784156
| 66>   O                      -0.415425            -7.731200            4.654204
| 67>   H                      -1.010567            -7.971096            5.396532
| 68>   H                      1.043747             -6.537130            5.675215
| 69>   H                      1.034653             -6.491278            3.907203
| 70>   H                      -0.222701            -5.699073            4.907246
| 71> *
| 72>
| 73>                          ****END OF INPUT****
 Total Charge           Charge          ....    0
 Multiplicity           Mult            ....    1
 Number of Electrons    NEL             ....   36
Dispersion correction           -0.001352549
FINAL SINGLE POINT ENERGY      -231.459099490623
Dispersion correction           -0.000238871
FINAL SINGLE POINT ENERGY      -115.729103590727

CARTESIAN COORDINATES (ANGSTROEM)
---------------------------------
  C      2.216168  -10.583670    6.792271
  O      1.676542  -10.073466    5.612727
  H      2.289929  -10.296612    4.873086
  H      1.920652  -11.635590    6.979439
  H      3.230282  -10.410300    6.926087
  H      1.813010  -10.092693    7.607417
  C      0.357423   -6.558365    4.784156
  O     -0.415425   -7.731200    4.654204
  H     -1.010567   -7.971096    5.396532
  H      1.043747   -6.537130    5.675215
  H      1.034653   -6.491278    3.907203
  H     -0.222701   -5.699073    4.907246

 Multiplicity           Mult            ....    1
 Number of Electrons    NEL             ....   18
 Basis Dimension        Dim             ....  172

ORBITAL ENERGIES
----------------

  NO   OCC          E(Eh)            E(eV)
   0   2.0000     -19.229660      -523.2656
   1   2.0000     -10.313481      -280.6441
   2   2.0000      -1.127536       -30.6818
   3   2.0000      -0.799030       -21.7427
   4   2.0000      -0.616214       -16.7680
   5   2.0000      -0.540577       -14.7098
   6   2.0000      -0.521741       -14.1973
   7   2.0000      -0.424461       -11.5502
   8   2.0000      -0.371377       -10.1057
   9   0.0000       0.086021         2.3408
  10   0.0000       0.120359         3.2751
  11   0.0000       0.149225         4.0606
  12   0.0000       0.170197         4.6313
  13   0.0000       0.192664         5.2427

MULLIKEN ATOMIC CHARGES
-----------------------
   0 C :   -0.001040
   1 O :   -0.001433
   2 H :   -0.000578
   3 H :    0.000041
   4 H :   -0.000015
   5 H :    0.000041
   6 C :   -0.143503
   7 O :   -0.498552
   8 H :    0.321395
   9 H :    0.092255
  10 H :    0.122738
  11 H :    0.108652
Sum of atomic charges:   -0.0000000

LOEWDIN ATOMIC CHARGES
----------------------
   0 C :   -0.000625
   1 O :   -0.004377
   2 H :   -0.000636
   3 H :   -0.000008
   4 H :   -0.000015
   5 H :   -0.000051
   6 C :   -0.386004
   7 O :   -0.083130
   8 H :    0.178809
   9 H :    0.097536
  10 H :    0.115505
  11 H :    0.082996

  Mayer bond orders larger than 0.1
B(  6-C ,  7-O ) :   0.9905 B(  6-C ,  9-H ) :   0.9749 B(  6-C , 10-H ) :   0.9729
B(  6-C , 11-H ) :   0.9745 B(  7-O ,  8-H ) :   0.8858

Dispersion correction           -0.000272249
FINAL SINGLE POINT ENERGY      -115.731400041206

DIPOLE MOMENT
-------------
                                X             Y             Z
Electronic contribution:     -1.04963      -1.46269      -0.32146
Nuclear contribution   :      0.96328       1.80771       0.85693
                        -----------------------------------------
Total Dipole Moment    :     -0.08635       0.34502       0.53547
                        -----------------------------------------
Magnitude (a.u.)       :      0.64283
Magnitude (Debye)      :      1.63393

Rotational constants in cm-1:     4.457128     0.819546     0.786706
Rotational constants in MHz : 133621.341887 24569.380803 23584.842879

                             ****ORCA TERMINATED NORMALLY****
TOTAL RUN TIME: 0 days 0 hours 6 minutes 11 seconds 169 msec
