                         Program Version 4.1.2  - RELEASE  -
|  1> #Run DFT-D3 single point of the dimer
|  2> ! wB97X-D3 def2-TZVP TIGHTSCF CHELPG PMODEL PAL8
|  3>
|  4> %base "9-31_DFT_AB"
|  5>
|  6> %scf
|  7> MaxIter 1000
|  8> end
|  9>
| 10> * xyz 0 1
| 11>   C                      -2.236262            -7.219065            -3.038028
| 12>   O                      -2.089203            -8.488530            -3.702297
| 13>   H                      -2.620605            -8.479153            -4.503310
| 14>   H                      -1.906942            -6.405743            -3.624474
| 15>   H                      -3.225869            -6.961767            -2.730361
| 16>   H                      -1.644495            -7.133655            -2.155844
| 17>   C                      -5.998633            -8.556515            -4.149959
| 18>   O                      -5.125051            -7.659598            -4.865821
| 19>   H                      -5.770246            -7.085526            -5.314353
| 20>   H                      -5.464308            -9.047686            -3.400332
| 21>   H                      -6.781201            -8.085299            -3.553056
| 22>   H                      -6.567851            -9.295930            -4.792403
| 23> *
| 24>
| 25> #Run DFT-D3 single point of the molecule with dimer basis set
| 26> $new_job
| 27> %base "9-31_DFT_A"
| 28> ! wB97X-D3 def2-TZVP TIGHTSCF CHELPG PMODEL
| 29>
| 30> %scf
| 31> MaxIter 1000
| 32> end
| 33>
| 34> * xyz 0 1
| 35>   C                      -2.236262            -7.219065            -3.038028
| 36>   O                      -2.089203            -8.488530            -3.702297
| 37>   H                      -2.620605            -8.479153            -4.503310
| 38>   H                      -1.906942            -6.405743            -3.624474
| 39>   H                      -3.225869            -6.961767            -2.730361
| 40>   H                      -1.644495            -7.133655            -2.155844
| 41>   C                    : -5.998633            -8.556515            -4.149959
| 42>   O                    : -5.125051            -7.659598            -4.865821
| 43>   H                    : -5.770246            -7.085526            -5.314353
| 44>   H                    : -5.464308            -9.047686            -3.400332
| 45>   H                    : -6.781201            -8.085299            -3.553056
| 46>   H                    : -6.567851            -9.295930            -4.792403
| 47> *
| 48>
| 49> #Run DFT-D3 single point of the particle with dimer basis set
| 50> $new_job
| 51> %base "9-31_DFT_B"
| 52> ! wB97X-D3 def2-TZVP TIGHTSCF CHELPG PMODEL
| 53>
| 54> %scf
| 55> MaxIter 1000
| 56> end
| 57>
| 58> * xyz 0 1
| 59>   C                    : -2.236262            -7.219065            -3.038028
| 60>   O                    : -2.089203            -8.488530            -3.702297
| 61>   H                    : -2.620605            -8.479153            -4.503310
| 62>   H                    : -1.906942            -6.405743            -3.624474
| 63>   H                    : -3.225869            -6.961767            -2.730361
| 64>   H                    : -1.644495            -7.133655            -2.155844
| 65>   C                      -5.998633            -8.556515            -4.149959
| 66>   O                      -5.125051            -7.659598            -4.865821
| 67>   H                      -5.770246            -7.085526            -5.314353
| 68>   H                      -5.464308            -9.047686            -3.400332
| 69>   H                      -6.781201            -8.085299            -3.553056
| 70>   H                      -6.567851            -9.295930            -4.792403
| 71> *
| 72>
| 73>                          ****END OF INPUT****
 Total Charge           Charge          ....    0
 Multiplicity           Mult            ....    1
 Number of Electrons    NEL             ....   36
Dispersion correction           -0.001982470
FINAL SINGLE POINT ENERGY      -231.467977020365
Dispersion correction           -0.000258077
FINAL SINGLE POINT ENERGY      -115.732558030384

CARTESIAN COORDINATES (ANGSTROEM)
---------------------------------
  C     -2.236262   -7.219065   -3.038028
  O     -2.089203   -8.488530   -3.702297
  H     -2.620605   -8.479153   -4.503310
  H     -1.906942   -6.405743   -3.624474
  H     -3.225869   -6.961767   -2.730361
  H     -1.644495   -7.133655   -2.155844
  C     -5.998633   -8.556515   -4.149959
  O     -5.125051   -7.659598   -4.865821
  H     -5.770246   -7.085526   -5.314353
  H     -5.464308   -9.047686   -3.400332
  H     -6.781201   -8.085299   -3.553056
  H     -6.567851   -9.295930   -4.792403

 Multiplicity           Mult            ....    1
 Number of Electrons    NEL             ....   18
 Basis Dimension        Dim             ....  172

ORBITAL ENERGIES
----------------

  NO   OCC          E(Eh)            E(eV)
   0   2.0000     -19.239603      -523.5362
   1   2.0000     -10.313850      -280.6541
   2   2.0000      -1.132444       -30.8154
   3   2.0000      -0.799039       -21.7430
   4   2.0000      -0.607249       -16.5241
   5   2.0000      -0.538484       -14.6529
   6   2.0000      -0.519475       -14.1356
   7   2.0000      -0.446935       -12.1617
   8   2.0000      -0.378308       -10.2943
   9   0.0000       0.096205         2.6179
  10   0.0000       0.125374         3.4116
  11   0.0000       0.147432         4.0118
  12   0.0000       0.179698         4.8898
  13   0.0000       0.199426         5.4267

MULLIKEN ATOMIC CHARGES
-----------------------
   0 C :    0.005171
   1 O :    0.000436
   2 H :   -0.004501
   3 H :   -0.001398
   4 H :   -0.006214
   5 H :   -0.000220
   6 C :   -0.190253
   7 O :   -0.452660
   8 H :    0.312323
   9 H :    0.127535
  10 H :    0.106093
  11 H :    0.103686
Sum of atomic charges:   -0.0000000

LOEWDIN ATOMIC CHARGES
----------------------
   0 C :   -0.006256
   1 O :   -0.000557
   2 H :   -0.006488
   3 H :   -0.000335
   4 H :   -0.003627
   5 H :   -0.000048
   6 C :   -0.376854
   7 O :   -0.079767
   8 H :    0.178398
   9 H :    0.096663
  10 H :    0.095864
  11 H :    0.103008

  Mayer bond orders larger than 0.1
B(  6-C ,  7-O ) :   1.0004 B(  6-C ,  9-H ) :   0.9784 B(  6-C , 10-H ) :   0.9725
B(  6-C , 11-H ) :   0.9688 B(  7-O ,  8-H ) :   0.9014

Dispersion correction           -0.000258658
FINAL SINGLE POINT ENERGY      -115.730262594948

DIPOLE MOMENT
-------------
                                X             Y             Z
Electronic contribution:      1.37092       1.10482      -0.91711
Nuclear contribution   :     -2.11327      -1.09070       0.95877
                        -----------------------------------------
Total Dipole Moment    :     -0.74235       0.01412       0.04166
                        -----------------------------------------
Magnitude (a.u.)       :      0.74365
Magnitude (Debye)      :      1.89020

Rotational constants in cm-1:     4.372015     0.799524     0.773716
Rotational constants in MHz : 131069.717856 23969.128600 23195.430087

                             ****ORCA TERMINATED NORMALLY****
TOTAL RUN TIME: 0 days 0 hours 0 minutes 43 seconds 674 msec
