                         Program Version 4.1.2  - RELEASE  -
|  1> #Run DFT-D3 single point of the dimer
|  2> ! wB97X-D3 def2-TZVP TIGHTSCF CHELPG PMODEL PAL8
|  3>
|  4> %base "5-5_DFT_AB"
|  5>
|  6> %scf
|  7> MaxIter 1000
|  8> end
|  9>
| 10> * xyz 0 1
| 11>   C                      7.637502             -1.565497            0.430449
| 12>   O                      6.279459             -1.591730            0.075538
| 13>   H                      6.138315             -2.503580            0.236057
| 14>   H                      8.043561             -0.510717            0.303914
| 15>   H                      7.798157             -1.853950            1.427963
| 16>   H                      8.171181             -2.284390            -0.145285
| 17>   C                      10.653256            -3.905574            -0.443263
| 18>   O                      10.990500            -4.490428            0.786064
| 19>   H                      10.630226            -5.383341            0.905142
| 20>   H                      10.640637            -2.789042            -0.375162
| 21>   H                      11.364414            -4.165355            -1.178921
| 22>   H                      9.588251             -4.213215            -0.769633
| 23> *
| 24>
| 25> #Run DFT-D3 single point of the molecule with dimer basis set
| 26> $new_job
| 27> %base "5-5_DFT_A"
| 28> ! wB97X-D3 def2-TZVP TIGHTSCF CHELPG PMODEL
| 29>
| 30> %scf
| 31> MaxIter 1000
| 32> end
| 33>
| 34> * xyz 0 1
| 35>   C                      7.637502             -1.565497            0.430449
| 36>   O                      6.279459             -1.591730            0.075538
| 37>   H                      6.138315             -2.503580            0.236057
| 38>   H                      8.043561             -0.510717            0.303914
| 39>   H                      7.798157             -1.853950            1.427963
| 40>   H                      8.171181             -2.284390            -0.145285
| 41>   C                    : 10.653256            -3.905574            -0.443263
| 42>   O                    : 10.990500            -4.490428            0.786064
| 43>   H                    : 10.630226            -5.383341            0.905142
| 44>   H                    : 10.640637            -2.789042            -0.375162
| 45>   H                    : 11.364414            -4.165355            -1.178921
| 46>   H                    : 9.588251             -4.213215            -0.769633
| 47> *
| 48>
| 49> #Run DFT-D3 single point of the particle with dimer basis set
| 50> $new_job
| 51> %base "5-5_DFT_B"
| 52> ! wB97X-D3 def2-TZVP TIGHTSCF CHELPG PMODEL
| 53>
| 54> %scf
| 55> MaxIter 1000
| 56> end
| 57>
| 58> * xyz 0 1
| 59>   C                    : 7.637502             -1.565497            0.430449
| 60>   O                    : 6.279459             -1.591730            0.075538
| 61>   H                    : 6.138315             -2.503580            0.236057
| 62>   H                    : 8.043561             -0.510717            0.303914
| 63>   H                    : 7.798157             -1.853950            1.427963
| 64>   H                    : 8.171181             -2.284390            -0.145285
| 65>   C                      10.653256            -3.905574            -0.443263
| 66>   O                      10.990500            -4.490428            0.786064
| 67>   H                      10.630226            -5.383341            0.905142
| 68>   H                      10.640637            -2.789042            -0.375162
| 69>   H                      11.364414            -4.165355            -1.178921
| 70>   H                      9.588251             -4.213215            -0.769633
| 71> *
| 72>
| 73>                          ****END OF INPUT****
 Total Charge           Charge          ....    0
 Multiplicity           Mult            ....    1
 Number of Electrons    NEL             ....   36
Dispersion correction           -0.001433813
FINAL SINGLE POINT ENERGY      -231.460916767009
Dispersion correction           -0.000194780
FINAL SINGLE POINT ENERGY      -115.728269310495

CARTESIAN COORDINATES (ANGSTROEM)
---------------------------------
  C      7.637502   -1.565497    0.430449
  O      6.279459   -1.591730    0.075538
  H      6.138315   -2.503580    0.236057
  H      8.043561   -0.510717    0.303914
  H      7.798157   -1.853950    1.427963
  H      8.171181   -2.284390   -0.145285
  C     10.653256   -3.905574   -0.443263
  O     10.990500   -4.490428    0.786064
  H     10.630226   -5.383341    0.905142
  H     10.640637   -2.789042   -0.375162
  H     11.364414   -4.165355   -1.178921
  H      9.588251   -4.213215   -0.769633

 Multiplicity           Mult            ....    1
 Number of Electrons    NEL             ....   18
 Basis Dimension        Dim             ....  172

ORBITAL ENERGIES
----------------

  NO   OCC          E(Eh)            E(eV)
   0   2.0000     -19.228464      -523.2331
   1   2.0000     -10.317704      -280.7590
   2   2.0000      -1.134012       -30.8580
   3   2.0000      -0.793628       -21.5957
   4   2.0000      -0.608896       -16.5689
   5   2.0000      -0.546094       -14.8600
   6   2.0000      -0.527196       -14.3457
   7   2.0000      -0.420100       -11.4315
   8   2.0000      -0.373046       -10.1511
   9   0.0000       0.086700         2.3592
  10   0.0000       0.117521         3.1979
  11   0.0000       0.153979         4.1900
  12   0.0000       0.162299         4.4164
  13   0.0000       0.196155         5.3377

MULLIKEN ATOMIC CHARGES
-----------------------
   0 C :    0.006528
   1 O :   -0.000090
   2 H :   -0.000157
   3 H :   -0.000184
   4 H :   -0.000374
   5 H :   -0.009528
   6 C :   -0.147888
   7 O :   -0.487005
   8 H :    0.322093
   9 H :    0.114577
  10 H :    0.110263
  11 H :    0.091764
Sum of atomic charges:   -0.0000000

LOEWDIN ATOMIC CHARGES
----------------------
   0 C :   -0.002746
   1 O :   -0.000012
   2 H :   -0.000024
   3 H :   -0.000103
   4 H :   -0.000123
   5 H :   -0.006071
   6 C :   -0.391967
   7 O :   -0.077536
   8 H :    0.174916
   9 H :    0.112434
  10 H :    0.085645
  11 H :    0.105588

  Mayer bond orders larger than 0.1
B(  6-C ,  7-O ) :   1.0021 B(  6-C ,  9-H ) :   0.9708 B(  6-C , 10-H ) :   0.9697
B(  6-C , 11-H ) :   0.9819 B(  7-O ,  8-H ) :   0.8902

Dispersion correction           -0.000255858
FINAL SINGLE POINT ENERGY      -115.732084839196

DIPOLE MOMENT
-------------
                                X             Y             Z
Electronic contribution:      0.59426      -0.67828       1.59595
Nuclear contribution   :     -0.94868       0.33038      -2.00383
                        -----------------------------------------
Total Dipole Moment    :     -0.35441      -0.34790      -0.40789
                        -----------------------------------------
Magnitude (a.u.)       :      0.64266
Magnitude (Debye)      :      1.63352

Rotational constants in cm-1:     4.250791     0.832006     0.801265
Rotational constants in MHz : 127435.512389 24942.908438 24021.312773

                             ****ORCA TERMINATED NORMALLY****
TOTAL RUN TIME: 0 days 0 hours 0 minutes 50 seconds 43 msec
