                         Program Version 4.1.2  - RELEASE  -
|  1> #Run DFT-D3 single point of the dimer
|  2> ! wB97X-D3 def2-TZVP TIGHTSCF CHELPG PMODEL PAL8
|  3>
|  4> %base "7-55_DFT_AB"
|  5>
|  6> %scf
|  7> MaxIter 1000
|  8> end
|  9>
| 10> * xyz 0 1
| 11>   C                      -1.585404            3.392058             7.212129
| 12>   O                      -2.120105            3.744945             8.520689
| 13>   H                      -1.462705            3.477092             9.167592
| 14>   H                      -2.311762            3.531126             6.455074
| 15>   H                      -0.759444            4.075805             6.822156
| 16>   H                      -1.228848            2.336794             7.215379
| 17>   C                      -3.843015            3.387278             11.452532
| 18>   O                      -4.433860            3.915718             10.307268
| 19>   H                      -3.773737            3.785140             9.575087
| 20>   H                      -2.782898            3.479782             11.476008
| 21>   H                      -4.203933            3.855851             12.326470
| 22>   H                      -4.218804            2.365851             11.573091
| 23> *
| 24>
| 25> #Run DFT-D3 single point of the molecule with dimer basis set
| 26> $new_job
| 27> %base "7-55_DFT_A"
| 28> ! wB97X-D3 def2-TZVP TIGHTSCF CHELPG PMODEL
| 29>
| 30> %scf
| 31> MaxIter 1000
| 32> end
| 33>
| 34> * xyz 0 1
| 35>   C                      -1.585404            3.392058             7.212129
| 36>   O                      -2.120105            3.744945             8.520689
| 37>   H                      -1.462705            3.477092             9.167592
| 38>   H                      -2.311762            3.531126             6.455074
| 39>   H                      -0.759444            4.075805             6.822156
| 40>   H                      -1.228848            2.336794             7.215379
| 41>   C                    : -3.843015            3.387278             11.452532
| 42>   O                    : -4.433860            3.915718             10.307268
| 43>   H                    : -3.773737            3.785140             9.575087
| 44>   H                    : -2.782898            3.479782             11.476008
| 45>   H                    : -4.203933            3.855851             12.326470
| 46>   H                    : -4.218804            2.365851             11.573091
| 47> *
| 48>
| 49> #Run DFT-D3 single point of the particle with dimer basis set
| 50> $new_job
| 51> %base "7-55_DFT_B"
| 52> ! wB97X-D3 def2-TZVP TIGHTSCF CHELPG PMODEL
| 53>
| 54> %scf
| 55> MaxIter 1000
| 56> end
| 57>
| 58> * xyz 0 1
| 59>   C                    : -1.585404            3.392058             7.212129
| 60>   O                    : -2.120105            3.744945             8.520689
| 61>   H                    : -1.462705            3.477092             9.167592
| 62>   H                    : -2.311762            3.531126             6.455074
| 63>   H                    : -0.759444            4.075805             6.822156
| 64>   H                    : -1.228848            2.336794             7.215379
| 65>   C                      -3.843015            3.387278             11.452532
| 66>   O                      -4.433860            3.915718             10.307268
| 67>   H                      -3.773737            3.785140             9.575087
| 68>   H                      -2.782898            3.479782             11.476008
| 69>   H                      -4.203933            3.855851             12.326470
| 70>   H                      -4.218804            2.365851             11.573091
| 71> *
| 72>
| 73>                          ****END OF INPUT****
 Total Charge           Charge          ....    0
 Multiplicity           Mult            ....    1
 Number of Electrons    NEL             ....   36
Dispersion correction           -0.001660927
FINAL SINGLE POINT ENERGY      -231.470799205321
Dispersion correction           -0.000275674
FINAL SINGLE POINT ENERGY      -115.732203781312

CARTESIAN COORDINATES (ANGSTROEM)
---------------------------------
  C     -1.585404    3.392058    7.212129
  O     -2.120105    3.744945    8.520689
  H     -1.462705    3.477092    9.167592
  H     -2.311762    3.531126    6.455074
  H     -0.759444    4.075805    6.822156
  H     -1.228848    2.336794    7.215379
  C     -3.843015    3.387278   11.452532
  O     -4.433860    3.915718   10.307268
  H     -3.773737    3.785140    9.575087
  H     -2.782898    3.479782   11.476008
  H     -4.203933    3.855851   12.326470
  H     -4.218804    2.365851   11.573091

 Multiplicity           Mult            ....    1
 Number of Electrons    NEL             ....   18
 Basis Dimension        Dim             ....  172

ORBITAL ENERGIES
----------------

  NO   OCC          E(Eh)            E(eV)
   0   2.0000     -19.232273      -523.3368
   1   2.0000     -10.302193      -280.3369
   2   2.0000      -1.137340       -30.9486
   3   2.0000      -0.796492       -21.6737
   4   2.0000      -0.611313       -16.6347
   5   2.0000      -0.544965       -14.8293
   6   2.0000      -0.533839       -14.5265
   7   2.0000      -0.435323       -11.8457
   8   2.0000      -0.368848       -10.0369
   9   0.0000       0.068095         1.8530
  10   0.0000       0.125377         3.4117
  11   0.0000       0.152622         4.1530
  12   0.0000       0.171026         4.6539
  13   0.0000       0.192999         5.2518

MULLIKEN ATOMIC CHARGES
-----------------------
   0 C :   -0.001609
   1 O :   -0.005202
   2 H :    0.000177
   3 H :    0.000137
   4 H :    0.000021
   5 H :    0.000035
   6 C :   -0.161201
   7 O :   -0.467946
   8 H :    0.319222
   9 H :    0.107217
  10 H :    0.111686
  11 H :    0.097463
Sum of atomic charges:    0.0000000

LOEWDIN ATOMIC CHARGES
----------------------
   0 C :   -0.001649
   1 O :   -0.019751
   2 H :   -0.002626
   3 H :   -0.000080
   4 H :   -0.000041
   5 H :   -0.000037
   6 C :   -0.397608
   7 O :   -0.066721
   8 H :    0.201190
   9 H :    0.091311
  10 H :    0.097497
  11 H :    0.098516

  Mayer bond orders larger than 0.1
B(  6-C ,  7-O ) :   1.0003 B(  6-C ,  9-H ) :   0.9773 B(  6-C , 10-H ) :   0.9747
B(  6-C , 11-H ) :   0.9873 B(  7-O ,  8-H ) :   0.9012

Dispersion correction           -0.000225766
FINAL SINGLE POINT ENERGY      -115.731033370451

DIPOLE MOMENT
-------------
                                X             Y             Z
Electronic contribution:     -0.78768       0.78107      -1.42590
Nuclear contribution   :      1.42461      -1.03748       1.43302
                        -----------------------------------------
Total Dipole Moment    :      0.63692      -0.25641       0.00711
                        -----------------------------------------
Magnitude (a.u.)       :      0.68664
Magnitude (Debye)      :      1.74529

Rotational constants in cm-1:     4.373020     0.857940     0.824231
Rotational constants in MHz : 131099.831533 25720.389544 24709.811545

                             ****ORCA TERMINATED NORMALLY****
TOTAL RUN TIME: 0 days 0 hours 1 minutes 14 seconds 630 msec
