                         Program Version 4.1.2  - RELEASE  -
|  1> #Run DFT-D3 single point of the dimer
|  2> ! wB97X-D3 def2-TZVP TIGHTSCF CHELPG PMODEL PAL8
|  3>
|  4> %base "10-187_DFT_AB"
|  5>
|  6> %scf
|  7> MaxIter 1000
|  8> end
|  9>
| 10> * xyz 0 1
| 11>   C                      -10.828315           7.027579             -4.757025
| 12>   O                      -10.106869           6.603593             -3.607552
| 13>   H                      -9.513622            7.297198             -3.301831
| 14>   H                      -11.348978           7.967226             -4.578796
| 15>   H                      -10.091762           7.051168             -5.597924
| 16>   H                      -11.676085           6.345519             -5.050496
| 17>   C                      -5.495536            7.370046             -2.403780
| 18>   O                      -6.683170            7.089203             -3.125684
| 19>   H                      -6.694253            7.757936             -3.836494
| 20>   H                      -5.504102            6.859922             -1.431420
| 21>   H                      -4.645820            7.093379             -2.936219
| 22>   H                      -5.466681            8.422896             -2.156648
| 23> *
| 24>
| 25> #Run DFT-D3 single point of the molecule with dimer basis set
| 26> $new_job
| 27> %base "10-187_DFT_A"
| 28> ! wB97X-D3 def2-TZVP TIGHTSCF CHELPG PMODEL
| 29>
| 30> %scf
| 31> MaxIter 1000
| 32> end
| 33>
| 34> * xyz 0 1
| 35>   C                      -10.828315           7.027579             -4.757025
| 36>   O                      -10.106869           6.603593             -3.607552
| 37>   H                      -9.513622            7.297198             -3.301831
| 38>   H                      -11.348978           7.967226             -4.578796
| 39>   H                      -10.091762           7.051168             -5.597924
| 40>   H                      -11.676085           6.345519             -5.050496
| 41>   C                    : -5.495536            7.370046             -2.403780
| 42>   O                    : -6.683170            7.089203             -3.125684
| 43>   H                    : -6.694253            7.757936             -3.836494
| 44>   H                    : -5.504102            6.859922             -1.431420
| 45>   H                    : -4.645820            7.093379             -2.936219
| 46>   H                    : -5.466681            8.422896             -2.156648
| 47> *
| 48>
| 49> #Run DFT-D3 single point of the particle with dimer basis set
| 50> $new_job
| 51> %base "10-187_DFT_B"
| 52> ! wB97X-D3 def2-TZVP TIGHTSCF CHELPG PMODEL
| 53>
| 54> %scf
| 55> MaxIter 1000
| 56> end
| 57>
| 58> * xyz 0 1
| 59>   C                    : -10.828315           7.027579             -4.757025
| 60>   O                    : -10.106869           6.603593             -3.607552
| 61>   H                    : -9.513622            7.297198             -3.301831
| 62>   H                    : -11.348978           7.967226             -4.578796
| 63>   H                    : -10.091762           7.051168             -5.597924
| 64>   H                    : -11.676085           6.345519             -5.050496
| 65>   C                      -5.495536            7.370046             -2.403780
| 66>   O                      -6.683170            7.089203             -3.125684
| 67>   H                      -6.694253            7.757936             -3.836494
| 68>   H                      -5.504102            6.859922             -1.431420
| 69>   H                      -4.645820            7.093379             -2.936219
| 70>   H                      -5.466681            8.422896             -2.156648
| 71> *
| 72>
| 73>                          ****END OF INPUT****
 Total Charge           Charge          ....    0
 Multiplicity           Mult            ....    1
 Number of Electrons    NEL             ....   36
Dispersion correction           -0.001139084
FINAL SINGLE POINT ENERGY      -231.467186987979
Dispersion correction           -0.000251059
FINAL SINGLE POINT ENERGY      -115.732493607071

CARTESIAN COORDINATES (ANGSTROEM)
---------------------------------
  C    -10.828315    7.027579   -4.757025
  O    -10.106869    6.603593   -3.607552
  H     -9.513622    7.297198   -3.301831
  H    -11.348978    7.967226   -4.578796
  H    -10.091762    7.051168   -5.597924
  H    -11.676085    6.345519   -5.050496
  C     -5.495536    7.370046   -2.403780
  O     -6.683170    7.089203   -3.125684
  H     -6.694253    7.757936   -3.836494
  H     -5.504102    6.859922   -1.431420
  H     -4.645820    7.093379   -2.936219
  H     -5.466681    8.422896   -2.156648

 Multiplicity           Mult            ....    1
 Number of Electrons    NEL             ....   18
 Basis Dimension        Dim             ....  172

ORBITAL ENERGIES
----------------

  NO   OCC          E(Eh)            E(eV)
   0   2.0000     -19.231005      -523.3022
   1   2.0000     -10.305947      -280.4391
   2   2.0000      -1.133797       -30.8522
   3   2.0000      -0.797153       -21.6916
   4   2.0000      -0.607112       -16.5203
   5   2.0000      -0.553136       -15.0516
   6   2.0000      -0.524795       -14.2804
   7   2.0000      -0.434495       -11.8232
   8   2.0000      -0.375433       -10.2160
   9   0.0000       0.090579         2.4648
  10   0.0000       0.119015         3.2386
  11   0.0000       0.155383         4.2282
  12   0.0000       0.187261         5.0956
  13   0.0000       0.200829         5.4648

MULLIKEN ATOMIC CHARGES
-----------------------
   0 C :    0.000489
   1 O :    0.000547
   2 H :   -0.006684
   3 H :   -0.000006
   4 H :   -0.000150
   5 H :   -0.000003
   6 C :   -0.166212
   7 O :   -0.469400
   8 H :    0.315760
   9 H :    0.115490
  10 H :    0.107984
  11 H :    0.102184
Sum of atomic charges:   -0.0000000

LOEWDIN ATOMIC CHARGES
----------------------
   0 C :   -0.000155
   1 O :   -0.000954
   2 H :   -0.006939
   3 H :   -0.000001
   4 H :   -0.000042
   5 H :   -0.000001
   6 C :   -0.377083
   7 O :   -0.082997
   8 H :    0.180171
   9 H :    0.110510
  10 H :    0.083330
  11 H :    0.094161

  Mayer bond orders larger than 0.1
B(  6-C ,  7-O ) :   0.9972 B(  6-C ,  9-H ) :   0.9745 B(  6-C , 10-H ) :   0.9726
B(  6-C , 11-H ) :   0.9851 B(  7-O ,  8-H ) :   0.8977

Dispersion correction           -0.000218053
FINAL SINGLE POINT ENERGY      -115.733956870845

DIPOLE MOMENT
-------------
                                X             Y             Z
Electronic contribution:     -1.46195      -0.53024      -0.87588
Nuclear contribution   :      1.94714       1.06017       0.73616
                        -----------------------------------------
Total Dipole Moment    :      0.48518       0.52993      -0.13973
                        -----------------------------------------
Magnitude (a.u.)       :      0.73195
Magnitude (Debye)      :      1.86048

Rotational constants in cm-1:     4.351827     0.836545     0.805590
Rotational constants in MHz : 130464.483882 25078.981052 24150.989421

                             ****ORCA TERMINATED NORMALLY****
TOTAL RUN TIME: 0 days 0 hours 1 minutes 1 seconds 494 msec
