                         Program Version 4.1.2  - RELEASE  -
|  1> #Run DFT-D3 single point of the dimer
|  2> ! wB97X-D3 def2-TZVP TIGHTSCF CHELPG PMODEL PAL8
|  3>
|  4> %base "6-107_DFT_AB"
|  5>
|  6> %scf
|  7> MaxIter 1000
|  8> end
|  9>
| 10> * xyz 0 1
| 11>   C                      3.529877             9.232706             -3.207251
| 12>   O                      4.863596             9.674193             -2.807178
| 13>   H                      5.455587             9.027773             -3.182617
| 14>   H                      3.334047             9.461608             -4.247411
| 15>   H                      3.300273             8.202536             -2.897719
| 16>   H                      2.726748             9.884370             -2.661681
| 17>   C                      6.484678             7.460578             -1.082355
| 18>   O                      5.201355             7.955092             -0.723691
| 19>   H                      5.254974             8.894137             -0.816187
| 20>   H                      7.325725             7.909387             -0.463628
| 21>   H                      6.487008             6.411832             -0.846857
| 22>   H                      6.782900             7.473782             -2.128927
| 23> *
| 24>
| 25> #Run DFT-D3 single point of the molecule with dimer basis set
| 26> $new_job
| 27> %base "6-107_DFT_A"
| 28> ! wB97X-D3 def2-TZVP TIGHTSCF CHELPG PMODEL
| 29>
| 30> %scf
| 31> MaxIter 1000
| 32> end
| 33>
| 34> * xyz 0 1
| 35>   C                      3.529877             9.232706             -3.207251
| 36>   O                      4.863596             9.674193             -2.807178
| 37>   H                      5.455587             9.027773             -3.182617
| 38>   H                      3.334047             9.461608             -4.247411
| 39>   H                      3.300273             8.202536             -2.897719
| 40>   H                      2.726748             9.884370             -2.661681
| 41>   C                    : 6.484678             7.460578             -1.082355
| 42>   O                    : 5.201355             7.955092             -0.723691
| 43>   H                    : 5.254974             8.894137             -0.816187
| 44>   H                    : 7.325725             7.909387             -0.463628
| 45>   H                    : 6.487008             6.411832             -0.846857
| 46>   H                    : 6.782900             7.473782             -2.128927
| 47> *
| 48>
| 49> #Run DFT-D3 single point of the particle with dimer basis set
| 50> $new_job
| 51> %base "6-107_DFT_B"
| 52> ! wB97X-D3 def2-TZVP TIGHTSCF CHELPG PMODEL
| 53>
| 54> %scf
| 55> MaxIter 1000
| 56> end
| 57>
| 58> * xyz 0 1
| 59>   C                    : 3.529877             9.232706             -3.207251
| 60>   O                    : 4.863596             9.674193             -2.807178
| 61>   H                    : 5.455587             9.027773             -3.182617
| 62>   H                    : 3.334047             9.461608             -4.247411
| 63>   H                    : 3.300273             8.202536             -2.897719
| 64>   H                    : 2.726748             9.884370             -2.661681
| 65>   C                      6.484678             7.460578             -1.082355
| 66>   O                      5.201355             7.955092             -0.723691
| 67>   H                      5.254974             8.894137             -0.816187
| 68>   H                      7.325725             7.909387             -0.463628
| 69>   H                      6.487008             6.411832             -0.846857
| 70>   H                      6.782900             7.473782             -2.128927
| 71> *
| 72>
| 73>                          ****END OF INPUT****
 Total Charge           Charge          ....    0
 Multiplicity           Mult            ....    1
 Number of Electrons    NEL             ....   36
Dispersion correction           -0.002213921
FINAL SINGLE POINT ENERGY      -231.468703532903
Dispersion correction           -0.000270485
FINAL SINGLE POINT ENERGY      -115.731144624983

CARTESIAN COORDINATES (ANGSTROEM)
---------------------------------
  C      3.529877    9.232706   -3.207251
  O      4.863596    9.674193   -2.807178
  H      5.455587    9.027773   -3.182617
  H      3.334047    9.461608   -4.247411
  H      3.300273    8.202536   -2.897719
  H      2.726748    9.884370   -2.661681
  C      6.484678    7.460578   -1.082355
  O      5.201355    7.955092   -0.723691
  H      5.254974    8.894137   -0.816187
  H      7.325725    7.909387   -0.463628
  H      6.487008    6.411832   -0.846857
  H      6.782900    7.473782   -2.128927

 Multiplicity           Mult            ....    1
 Number of Electrons    NEL             ....   18
 Basis Dimension        Dim             ....  172

ORBITAL ENERGIES
----------------

  NO   OCC          E(Eh)            E(eV)
   0   2.0000     -19.236437      -523.4501
   1   2.0000     -10.315190      -280.6906
   2   2.0000      -1.141735       -31.0682
   3   2.0000      -0.798297       -21.7228
   4   2.0000      -0.613148       -16.6846
   5   2.0000      -0.539383       -14.6774
   6   2.0000      -0.525052       -14.2874
   7   2.0000      -0.438344       -11.9280
   8   2.0000      -0.379726       -10.3329
   9   0.0000       0.085325         2.3218
  10   0.0000       0.133501         3.6328
  11   0.0000       0.148772         4.0483
  12   0.0000       0.175251         4.7688
  13   0.0000       0.195121         5.3095

MULLIKEN ATOMIC CHARGES
-----------------------
   0 C :   -0.002165
   1 O :   -0.009719
   2 H :    0.000450
   3 H :   -0.000293
   4 H :   -0.004555
   5 H :    0.000273
   6 C :   -0.185501
   7 O :   -0.447383
   8 H :    0.314914
   9 H :    0.102440
  10 H :    0.124067
  11 H :    0.107471
Sum of atomic charges:    0.0000000

LOEWDIN ATOMIC CHARGES
----------------------
   0 C :   -0.011627
   1 O :   -0.016760
   2 H :   -0.007370
   3 H :   -0.000186
   4 H :   -0.004881
   5 H :   -0.000284
   6 C :   -0.387075
   7 O :   -0.041096
   8 H :    0.164489
   9 H :    0.103576
  10 H :    0.105710
  11 H :    0.095504

  Mayer bond orders larger than 0.1
B(  6-C ,  7-O ) :   1.0138 B(  6-C ,  9-H ) :   0.9772 B(  6-C , 10-H ) :   0.9798
B(  6-C , 11-H ) :   0.9633 B(  7-O ,  8-H ) :   0.9031

Dispersion correction           -0.000262708
FINAL SINGLE POINT ENERGY      -115.734377559198

DIPOLE MOMENT
-------------
                                X             Y             Z
Electronic contribution:     -1.79232       0.58784       0.42474
Nuclear contribution   :      2.32294      -0.22884      -0.60889
                        -----------------------------------------
Total Dipole Moment    :      0.53063       0.35900      -0.18415
                        -----------------------------------------
Magnitude (a.u.)       :      0.66660
Magnitude (Debye)      :      1.69436

Rotational constants in cm-1:     4.378074     0.815281     0.790646
Rotational constants in MHz : 131251.366244 24441.513924 23702.959059

                             ****ORCA TERMINATED NORMALLY****
TOTAL RUN TIME: 0 days 0 hours 1 minutes 5 seconds 704 msec
