                         Program Version 4.1.2  - RELEASE  -
|  1> #Run DFT-D3 single point of the dimer
|  2> ! wB97X-D3 def2-TZVP TIGHTSCF  CHELPG PAL8
|  3>
|  4> %base "171_charges"
|  5>
|  6> %scf
|  7> MaxIter 1000
|  8> end
|  9> %output
| 10>   Print[ P_Mayer ] 1
| 11>   Print[ P_NatPop ] 1
| 12>   Print[ P_Hirshfeld ] 1
| 13>   Print[ P_Mulliken ] 1
| 14>   Print [ P_Loewdin ] 1
| 15> end
| 16>
| 17> * xyz 0 1
| 18>   C                      -9.166868            8.327539             11.082167
| 19>   O                      -10.176903           8.910970             10.274599
| 20>   H                      -9.875167            9.803929             10.087061
| 21>   H                      -9.414353            8.304493             12.151821
| 22>   H                      -9.086034            7.326978             10.757104
| 23>   H                      -8.291018            8.917708             10.935656
| 24> *
| 25>
| 26>                          ****END OF INPUT****

CARTESIAN COORDINATES (ANGSTROEM)
---------------------------------
  C     -9.166868    8.327539   11.082167
  O    -10.176903    8.910970   10.274599
  H     -9.875167    9.803929   10.087061
  H     -9.414353    8.304493   12.151821
  H     -9.086034    7.326978   10.757104
  H     -8.291018    8.917708   10.935656

 Total Charge           Charge          ....    0
 Multiplicity           Mult            ....    1
 Number of Electrons    NEL             ....   18
 Basis Dimension        Dim             ....   86

ORBITAL ENERGIES
----------------

  NO   OCC          E(Eh)            E(eV)
   0   2.0000     -19.226276      -523.1736
   1   2.0000     -10.306178      -280.4454
   2   2.0000      -1.134774       -30.8788
   3   2.0000      -0.797114       -21.6906
   4   2.0000      -0.612393       -16.6641
   5   2.0000      -0.539991       -14.6939
   6   2.0000      -0.533202       -14.5092
   7   2.0000      -0.437865       -11.9149
   8   2.0000      -0.370740       -10.0884
   9   0.0000       0.112309         3.0561
  10   0.0000       0.160365         4.3638
  11   0.0000       0.200194         5.4476
  12   0.0000       0.211168         5.7462
  13   0.0000       0.233815         6.3624

MULLIKEN ATOMIC CHARGES
-----------------------
   0 C :   -0.158131
   1 O :   -0.474150
   2 H :    0.312305
   3 H :    0.099934
   4 H :    0.118685
   5 H :    0.101358
Sum of atomic charges:   -0.0000000

LOEWDIN ATOMIC CHARGES
----------------------
   0 C :   -0.370067
   1 O :   -0.085017
   2 H :    0.168189
   3 H :    0.096812
   4 H :    0.097597
   5 H :    0.092487

  Mayer bond orders larger than 0.1
B(  0-C ,  1-O ) :   1.0059 B(  0-C ,  3-H ) :   0.9689 B(  0-C ,  4-H ) :   0.9801
B(  0-C ,  5-H ) :   0.9933 B(  1-O ,  2-H ) :   0.9051

Dispersion correction           -0.000224043
FINAL SINGLE POINT ENERGY      -115.732385377576

DIPOLE MOMENT
-------------
                                X             Y             Z
Electronic contribution:     -1.27760       0.56551      -0.99247
Nuclear contribution   :      1.88584      -0.23404       1.18180
                        -----------------------------------------
Total Dipole Moment    :      0.60824       0.33147       0.18933
                        -----------------------------------------
Magnitude (a.u.)       :      0.71810
Magnitude (Debye)      :      1.82527

Rotational constants in cm-1:     4.324364     0.845763     0.809000
Rotational constants in MHz : 129641.184424 25355.322809 24253.215910

                             ****ORCA TERMINATED NORMALLY****
TOTAL RUN TIME: 0 days 0 hours 0 minutes 41 seconds 334 msec
