                         Program Version 4.1.2  - RELEASE  -
|  1> #Run DFT-D3 single point of the dimer
|  2> ! wB97X-D3 def2-TZVP TIGHTSCF CHELPG PMODEL PAL8
|  3>
|  4> %base "3-125_DFT_AB"
|  5>
|  6> %scf
|  7> MaxIter 1000
|  8> end
|  9>
| 10> * xyz 0 1
| 11>   C                      8.410197             3.010015             -0.062294
| 12>   O                      8.200692             3.657938             -1.307122
| 13>   H                      9.016419             3.833738             -1.740553
| 14>   H                      7.517326             2.979493             0.495077
| 15>   H                      8.723145             1.926999             -0.151185
| 16>   H                      9.352263             3.358656             0.548165
| 17>   C                      8.476601             6.827370             -5.500873
| 18>   O                      7.613410             5.999457             -4.708761
| 19>   H                      7.246268             5.332910             -5.284940
| 20>   H                      7.861279             7.628649             -5.983380
| 21>   H                      9.201161             7.318715             -4.880898
| 22>   H                      9.067864             6.395864             -6.314998
| 23> *
| 24>
| 25> #Run DFT-D3 single point of the molecule with dimer basis set
| 26> $new_job
| 27> %base "3-125_DFT_A"
| 28> ! wB97X-D3 def2-TZVP TIGHTSCF CHELPG PMODEL
| 29>
| 30> %scf
| 31> MaxIter 1000
| 32> end
| 33>
| 34> * xyz 0 1
| 35>   C                      8.410197             3.010015             -0.062294
| 36>   O                      8.200692             3.657938             -1.307122
| 37>   H                      9.016419             3.833738             -1.740553
| 38>   H                      7.517326             2.979493             0.495077
| 39>   H                      8.723145             1.926999             -0.151185
| 40>   H                      9.352263             3.358656             0.548165
| 41>   C                    : 8.476601             6.827370             -5.500873
| 42>   O                    : 7.613410             5.999457             -4.708761
| 43>   H                    : 7.246268             5.332910             -5.284940
| 44>   H                    : 7.861279             7.628649             -5.983380
| 45>   H                    : 9.201161             7.318715             -4.880898
| 46>   H                    : 9.067864             6.395864             -6.314998
| 47> *
| 48>
| 49> #Run DFT-D3 single point of the particle with dimer basis set
| 50> $new_job
| 51> %base "3-125_DFT_B"
| 52> ! wB97X-D3 def2-TZVP TIGHTSCF CHELPG PMODEL
| 53>
| 54> %scf
| 55> MaxIter 1000
| 56> end
| 57>
| 58> * xyz 0 1
| 59>   C                    : 8.410197             3.010015             -0.062294
| 60>   O                    : 8.200692             3.657938             -1.307122
| 61>   H                    : 9.016419             3.833738             -1.740553
| 62>   H                    : 7.517326             2.979493             0.495077
| 63>   H                    : 8.723145             1.926999             -0.151185
| 64>   H                    : 9.352263             3.358656             0.548165
| 65>   C                      8.476601             6.827370             -5.500873
| 66>   O                      7.613410             5.999457             -4.708761
| 67>   H                      7.246268             5.332910             -5.284940
| 68>   H                      7.861279             7.628649             -5.983380
| 69>   H                      9.201161             7.318715             -4.880898
| 70>   H                      9.067864             6.395864             -6.314998
| 71> *
| 72>
| 73>                          ****END OF INPUT****
 Total Charge           Charge          ....    0
 Multiplicity           Mult            ....    1
 Number of Electrons    NEL             ....   36
Dispersion correction           -0.000782612
FINAL SINGLE POINT ENERGY      -231.459991474108
Dispersion correction           -0.000281885
FINAL SINGLE POINT ENERGY      -115.727020969065

CARTESIAN COORDINATES (ANGSTROEM)
---------------------------------
  C      8.410197    3.010015   -0.062294
  O      8.200692    3.657938   -1.307122
  H      9.016419    3.833738   -1.740553
  H      7.517326    2.979493    0.495077
  H      8.723145    1.926999   -0.151185
  H      9.352263    3.358656    0.548165
  C      8.476601    6.827370   -5.500873
  O      7.613410    5.999457   -4.708761
  H      7.246268    5.332910   -5.284940
  H      7.861279    7.628649   -5.983380
  H      9.201161    7.318715   -4.880898
  H      9.067864    6.395864   -6.314998

 Multiplicity           Mult            ....    1
 Number of Electrons    NEL             ....   18
 Basis Dimension        Dim             ....  172

ORBITAL ENERGIES
----------------

  NO   OCC          E(Eh)            E(eV)
   0   2.0000     -19.233905      -523.3812
   1   2.0000     -10.314784      -280.6795
   2   2.0000      -1.133087       -30.8329
   3   2.0000      -0.798758       -21.7353
   4   2.0000      -0.611709       -16.6454
   5   2.0000      -0.536178       -14.5901
   6   2.0000      -0.520552       -14.1649
   7   2.0000      -0.441155       -12.0044
   8   2.0000      -0.374630       -10.1942
   9   0.0000       0.092436         2.5153
  10   0.0000       0.116182         3.1615
  11   0.0000       0.149404         4.0655
  12   0.0000       0.174917         4.7597
  13   0.0000       0.196239         5.3399

MULLIKEN ATOMIC CHARGES
-----------------------
   0 C :    0.000018
   1 O :   -0.000189
   2 H :   -0.001033
   3 H :    0.000009
   4 H :   -0.000005
   5 H :   -0.000006
   6 C :   -0.179667
   7 O :   -0.466800
   8 H :    0.314185
   9 H :    0.102459
  10 H :    0.122375
  11 H :    0.108654
Sum of atomic charges:   -0.0000000

LOEWDIN ATOMIC CHARGES
----------------------
   0 C :   -0.000012
   1 O :   -0.000282
   2 H :   -0.000759
   3 H :   -0.000001
   4 H :   -0.000000
   5 H :   -0.000000
   6 C :   -0.378665
   7 O :   -0.083883
   8 H :    0.164629
   9 H :    0.100714
  10 H :    0.102449
  11 H :    0.095809

  Mayer bond orders larger than 0.1
B(  6-C ,  7-O ) :   1.0048 B(  6-C ,  9-H ) :   0.9796 B(  6-C , 10-H ) :   0.9754
B(  6-C , 11-H ) :   0.9677 B(  7-O ,  8-H ) :   0.9014

Dispersion correction           -0.000270743
FINAL SINGLE POINT ENERGY      -115.733224256593

DIPOLE MOMENT
-------------
                                X             Y             Z
Electronic contribution:     -1.04502      -1.12617       1.16885
Nuclear contribution   :      1.17676       1.02607      -1.85601
                        -----------------------------------------
Total Dipole Moment    :      0.13173      -0.10010      -0.68716
                        -----------------------------------------
Magnitude (a.u.)       :      0.70680
Magnitude (Debye)      :      1.79654

Rotational constants in cm-1:     4.417181     0.800614     0.776429
Rotational constants in MHz : 132423.741611 24001.818201 23276.769185

                             ****ORCA TERMINATED NORMALLY****
TOTAL RUN TIME: 0 days 0 hours 6 minutes 25 seconds 849 msec
