                         Program Version 4.1.2  - RELEASE  -
|  1> #Run DFT-D3 single point of the dimer
|  2> ! wB97X-D3 def2-TZVP TIGHTSCF CHELPG PMODEL PAL8
|  3>
|  4> %base "16-53_DFT_AB"
|  5>
|  6> %scf
|  7> MaxIter 1000
|  8> end
|  9>
| 10> * xyz 0 1
| 11>   C                      3.918612             -5.045741            2.896027
| 12>   O                      4.275113             -3.748419            2.773380
| 13>   H                      5.177996             -3.619790            2.820687
| 14>   H                      3.911424             -5.560728            1.980114
| 15>   H                      4.669848             -5.508734            3.468600
| 16>   H                      2.869578             -5.280809            3.312576
| 17>   C                      0.745206             -3.975291            -0.579764
| 18>   O                      0.307130             -2.700104            -0.591971
| 19>   H                      0.261849             -2.321639            0.278129
| 20>   H                      1.456053             -4.077456            0.239534
| 21>   H                      -0.000700            -4.631247            -0.176744
| 22>   H                      1.118313             -4.411004            -1.534896
| 23> *
| 24>
| 25> #Run DFT-D3 single point of the molecule with dimer basis set
| 26> $new_job
| 27> %base "16-53_DFT_A"
| 28> ! wB97X-D3 def2-TZVP TIGHTSCF CHELPG PMODEL
| 29>
| 30> %scf
| 31> MaxIter 1000
| 32> end
| 33>
| 34> * xyz 0 1
| 35>   C                      3.918612             -5.045741            2.896027
| 36>   O                      4.275113             -3.748419            2.773380
| 37>   H                      5.177996             -3.619790            2.820687
| 38>   H                      3.911424             -5.560728            1.980114
| 39>   H                      4.669848             -5.508734            3.468600
| 40>   H                      2.869578             -5.280809            3.312576
| 41>   C                    : 0.745206             -3.975291            -0.579764
| 42>   O                    : 0.307130             -2.700104            -0.591971
| 43>   H                    : 0.261849             -2.321639            0.278129
| 44>   H                    : 1.456053             -4.077456            0.239534
| 45>   H                    : -0.000700            -4.631247            -0.176744
| 46>   H                    : 1.118313             -4.411004            -1.534896
| 47> *
| 48>
| 49> #Run DFT-D3 single point of the particle with dimer basis set
| 50> $new_job
| 51> %base "16-53_DFT_B"
| 52> ! wB97X-D3 def2-TZVP TIGHTSCF CHELPG PMODEL
| 53>
| 54> %scf
| 55> MaxIter 1000
| 56> end
| 57>
| 58> * xyz 0 1
| 59>   C                    : 3.918612             -5.045741            2.896027
| 60>   O                    : 4.275113             -3.748419            2.773380
| 61>   H                    : 5.177996             -3.619790            2.820687
| 62>   H                    : 3.911424             -5.560728            1.980114
| 63>   H                    : 4.669848             -5.508734            3.468600
| 64>   H                    : 2.869578             -5.280809            3.312576
| 65>   C                      0.745206             -3.975291            -0.579764
| 66>   O                      0.307130             -2.700104            -0.591971
| 67>   H                      0.261849             -2.321639            0.278129
| 68>   H                      1.456053             -4.077456            0.239534
| 69>   H                      -0.000700            -4.631247            -0.176744
| 70>   H                      1.118313             -4.411004            -1.534896
| 71> *
| 72>
| 73>                          ****END OF INPUT****
 Total Charge           Charge          ....    0
 Multiplicity           Mult            ....    1
 Number of Electrons    NEL             ....   36
Dispersion correction           -0.000903434
FINAL SINGLE POINT ENERGY      -231.448015088964
Dispersion correction           -0.000218031
FINAL SINGLE POINT ENERGY      -115.722017360401

CARTESIAN COORDINATES (ANGSTROEM)
---------------------------------
  C      3.918612   -5.045741    2.896027
  O      4.275113   -3.748419    2.773380
  H      5.177996   -3.619790    2.820687
  H      3.911424   -5.560728    1.980114
  H      4.669848   -5.508734    3.468600
  H      2.869578   -5.280809    3.312576
  C      0.745206   -3.975291   -0.579764
  O      0.307130   -2.700104   -0.591971
  H      0.261849   -2.321639    0.278129
  H      1.456053   -4.077456    0.239534
  H     -0.000700   -4.631247   -0.176744
  H      1.118313   -4.411004   -1.534896

 Multiplicity           Mult            ....    1
 Number of Electrons    NEL             ....   18
 Basis Dimension        Dim             ....  172

ORBITAL ENERGIES
----------------

  NO   OCC          E(Eh)            E(eV)
   0   2.0000     -19.226484      -523.1792
   1   2.0000     -10.307755      -280.4883
   2   2.0000      -1.157469       -31.4963
   3   2.0000      -0.797349       -21.6970
   4   2.0000      -0.632391       -17.2082
   5   2.0000      -0.545439       -14.8421
   6   2.0000      -0.538406       -14.6508
   7   2.0000      -0.427293       -11.6272
   8   2.0000      -0.361561        -9.8386
   9   0.0000       0.079352         2.1593
  10   0.0000       0.116381         3.1669
  11   0.0000       0.149501         4.0681
  12   0.0000       0.167884         4.5684
  13   0.0000       0.184875         5.0307

MULLIKEN ATOMIC CHARGES
-----------------------
   0 C :    0.000526
   1 O :   -0.000034
   2 H :   -0.000010
   3 H :   -0.000743
   4 H :   -0.000054
   5 H :   -0.000178
   6 C :   -0.150020
   7 O :   -0.468571
   8 H :    0.321332
   9 H :    0.088701
  10 H :    0.091088
  11 H :    0.117962
Sum of atomic charges:    0.0000000

LOEWDIN ATOMIC CHARGES
----------------------
   0 C :   -0.001254
   1 O :   -0.000045
   2 H :   -0.000007
   3 H :   -0.000481
   4 H :   -0.000021
   5 H :   -0.000148
   6 C :   -0.436597
   7 O :   -0.025454
   8 H :    0.170208
   9 H :    0.093555
  10 H :    0.087464
  11 H :    0.112782

  Mayer bond orders larger than 0.1
B(  6-C ,  7-O ) :   1.0025 B(  6-C ,  9-H ) :   0.9974 B(  6-C , 10-H ) :   0.9766
B(  6-C , 11-H ) :   0.9665 B(  7-O ,  8-H ) :   0.8918

Dispersion correction           -0.000210894
FINAL SINGLE POINT ENERGY      -115.725009613004

DIPOLE MOMENT
-------------
                                X             Y             Z
Electronic contribution:     -0.57044       1.78148      -0.34967
Nuclear contribution   :      0.69851      -2.00308       0.94496
                        -----------------------------------------
Total Dipole Moment    :      0.12807      -0.22160       0.59530
                        -----------------------------------------
Magnitude (a.u.)       :      0.64799
Magnitude (Debye)      :      1.64705

Rotational constants in cm-1:     4.484570     0.898157     0.846940
Rotational constants in MHz : 134444.012927 26926.060408 25390.611120

                             ****ORCA TERMINATED NORMALLY****
TOTAL RUN TIME: 0 days 0 hours 1 minutes 6 seconds 589 msec
