                         Program Version 4.1.2  - RELEASE  -
|  1> #Run DFT-D3 single point of the dimer
|  2> ! wB97X-D3 def2-TZVP TIGHTSCF CHELPG PMODEL PAL8
|  3>
|  4> %base "5-145_DFT_AB"
|  5>
|  6> %scf
|  7> MaxIter 1000
|  8> end
|  9>
| 10> * xyz 0 1
| 11>   C                      0.030276             8.955928             9.883747
| 12>   O                      1.032094             8.316383             9.107599
| 13>   H                      0.648748             7.451545             8.822991
| 14>   H                      0.078628             8.686118             10.913440
| 15>   H                      0.075014             10.061676            9.899508
| 16>   H                      -1.002896            8.768820             9.483900
| 17>   C                      0.281343             5.425971             7.271081
| 18>   O                      -0.571326            5.965919             8.264859
| 19>   H                      -1.411455            5.583989             8.297878
| 20>   H                      0.226441             4.318300             7.176412
| 21>   H                      0.161979             5.849751             6.212081
| 22>   H                      1.319846             5.539177             7.514093
| 23> *
| 24>
| 25> #Run DFT-D3 single point of the molecule with dimer basis set
| 26> $new_job
| 27> %base "5-145_DFT_A"
| 28> ! wB97X-D3 def2-TZVP TIGHTSCF CHELPG PMODEL
| 29>
| 30> %scf
| 31> MaxIter 1000
| 32> end
| 33>
| 34> * xyz 0 1
| 35>   C                      0.030276             8.955928             9.883747
| 36>   O                      1.032094             8.316383             9.107599
| 37>   H                      0.648748             7.451545             8.822991
| 38>   H                      0.078628             8.686118             10.913440
| 39>   H                      0.075014             10.061676            9.899508
| 40>   H                      -1.002896            8.768820             9.483900
| 41>   C                    : 0.281343             5.425971             7.271081
| 42>   O                    : -0.571326            5.965919             8.264859
| 43>   H                    : -1.411455            5.583989             8.297878
| 44>   H                    : 0.226441             4.318300             7.176412
| 45>   H                    : 0.161979             5.849751             6.212081
| 46>   H                    : 1.319846             5.539177             7.514093
| 47> *
| 48>
| 49> #Run DFT-D3 single point of the particle with dimer basis set
| 50> $new_job
| 51> %base "5-145_DFT_B"
| 52> ! wB97X-D3 def2-TZVP TIGHTSCF CHELPG PMODEL
| 53>
| 54> %scf
| 55> MaxIter 1000
| 56> end
| 57>
| 58> * xyz 0 1
| 59>   C                    : 0.030276             8.955928             9.883747
| 60>   O                    : 1.032094             8.316383             9.107599
| 61>   H                    : 0.648748             7.451545             8.822991
| 62>   H                    : 0.078628             8.686118             10.913440
| 63>   H                    : 0.075014             10.061676            9.899508
| 64>   H                    : -1.002896            8.768820             9.483900
| 65>   C                      0.281343             5.425971             7.271081
| 66>   O                      -0.571326            5.965919             8.264859
| 67>   H                      -1.411455            5.583989             8.297878
| 68>   H                      0.226441             4.318300             7.176412
| 69>   H                      0.161979             5.849751             6.212081
| 70>   H                      1.319846             5.539177             7.514093
| 71> *
| 72>
| 73>                          ****END OF INPUT****
 Total Charge           Charge          ....    0
 Multiplicity           Mult            ....    1
 Number of Electrons    NEL             ....   36
Dispersion correction           -0.001869004
FINAL SINGLE POINT ENERGY      -231.470581903457
Dispersion correction           -0.000256077
FINAL SINGLE POINT ENERGY      -115.732455373043

CARTESIAN COORDINATES (ANGSTROEM)
---------------------------------
  C      0.030276    8.955928    9.883747
  O      1.032094    8.316383    9.107599
  H      0.648748    7.451545    8.822991
  H      0.078628    8.686118   10.913440
  H      0.075014   10.061676    9.899508
  H     -1.002896    8.768820    9.483900
  C      0.281343    5.425971    7.271081
  O     -0.571326    5.965919    8.264859
  H     -1.411455    5.583989    8.297878
  H      0.226441    4.318300    7.176412
  H      0.161979    5.849751    6.212081
  H      1.319846    5.539177    7.514093

 Multiplicity           Mult            ....    1
 Number of Electrons    NEL             ....   18
 Basis Dimension        Dim             ....  172

ORBITAL ENERGIES
----------------

  NO   OCC          E(Eh)            E(eV)
   0   2.0000     -19.230863      -523.2984
   1   2.0000     -10.320618      -280.8383
   2   2.0000      -1.141522       -31.0624
   3   2.0000      -0.802613       -21.8402
   4   2.0000      -0.620125       -16.8744
   5   2.0000      -0.535023       -14.5587
   6   2.0000      -0.528043       -14.3688
   7   2.0000      -0.426182       -11.5970
   8   2.0000      -0.378110       -10.2889
   9   0.0000       0.102514         2.7895
  10   0.0000       0.127842         3.4787
  11   0.0000       0.145768         3.9665
  12   0.0000       0.186157         5.0656
  13   0.0000       0.199507         5.4289

MULLIKEN ATOMIC CHARGES
-----------------------
   0 C :    0.003523
   1 O :   -0.001415
   2 H :    0.000765
   3 H :   -0.000664
   4 H :   -0.000198
   5 H :   -0.005118
   6 C :   -0.170865
   7 O :   -0.470597
   8 H :    0.309861
   9 H :    0.107377
  10 H :    0.099337
  11 H :    0.127993
Sum of atomic charges:   -0.0000000

LOEWDIN ATOMIC CHARGES
----------------------
   0 C :   -0.005706
   1 O :   -0.002925
   2 H :   -0.028428
   3 H :   -0.000150
   4 H :   -0.000050
   5 H :   -0.002715
   6 C :   -0.385668
   7 O :   -0.026595
   8 H :    0.143833
   9 H :    0.099991
  10 H :    0.103632
  11 H :    0.104779

  Mayer bond orders larger than 0.1
B(  6-C ,  7-O ) :   1.0012 B(  6-C ,  9-H ) :   0.9729 B(  6-C , 10-H ) :   0.9688
B(  6-C , 11-H ) :   0.9757 B(  7-O ,  8-H ) :   0.9022

Dispersion correction           -0.000287705
FINAL SINGLE POINT ENERGY      -115.730609902574

DIPOLE MOMENT
-------------
                                X             Y             Z
Electronic contribution:     -1.10614       0.83843       1.40779
Nuclear contribution   :      0.91226      -1.34599      -1.75956
                        -----------------------------------------
Total Dipole Moment    :     -0.19388      -0.50756      -0.35178
                        -----------------------------------------
Magnitude (a.u.)       :      0.64727
Magnitude (Debye)      :      1.64522

Rotational constants in cm-1:     4.510947     0.798858     0.785475
Rotational constants in MHz : 135234.792391 23949.148792 23547.947062

                             ****ORCA TERMINATED NORMALLY****
TOTAL RUN TIME: 0 days 0 hours 1 minutes 4 seconds 450 msec
