                         Program Version 4.1.2  - RELEASE  -
|  1> #Run DFT-D3 single point of the dimer
|  2> ! wB97X-D3 def2-TZVP TIGHTSCF CHELPG PMODEL PAL8
|  3>
|  4> %base "22-124_DFT_AB"
|  5>
|  6> %scf
|  7> MaxIter 1000
|  8> end
|  9>
| 10> * xyz 0 1
| 11>   C                      4.528630             2.039462             -5.128029
| 12>   O                      4.867166             0.760606             -4.647254
| 13>   H                      4.537975             0.701861             -3.774986
| 14>   H                      3.432986             2.102369             -5.175460
| 15>   H                      4.983056             2.835476             -4.470874
| 16>   H                      5.000534             2.221187             -6.109668
| 17>   C                      0.159550             -0.695446            -5.283339
| 18>   O                      1.357969             0.049257             -5.214653
| 19>   H                      1.669129             -0.184117            -4.308228
| 20>   H                      0.216482             -1.496743            -6.077616
| 21>   H                      -0.113872            -1.182281            -4.345292
| 22>   H                      -0.685406            -0.138870            -5.644733
| 23> *
| 24>
| 25> #Run DFT-D3 single point of the molecule with dimer basis set
| 26> $new_job
| 27> %base "22-124_DFT_A"
| 28> ! wB97X-D3 def2-TZVP TIGHTSCF CHELPG PMODEL
| 29>
| 30> %scf
| 31> MaxIter 1000
| 32> end
| 33>
| 34> * xyz 0 1
| 35>   C                      4.528630             2.039462             -5.128029
| 36>   O                      4.867166             0.760606             -4.647254
| 37>   H                      4.537975             0.701861             -3.774986
| 38>   H                      3.432986             2.102369             -5.175460
| 39>   H                      4.983056             2.835476             -4.470874
| 40>   H                      5.000534             2.221187             -6.109668
| 41>   C                    : 0.159550             -0.695446            -5.283339
| 42>   O                    : 1.357969             0.049257             -5.214653
| 43>   H                    : 1.669129             -0.184117            -4.308228
| 44>   H                    : 0.216482             -1.496743            -6.077616
| 45>   H                    : -0.113872            -1.182281            -4.345292
| 46>   H                    : -0.685406            -0.138870            -5.644733
| 47> *
| 48>
| 49> #Run DFT-D3 single point of the particle with dimer basis set
| 50> $new_job
| 51> %base "22-124_DFT_B"
| 52> ! wB97X-D3 def2-TZVP TIGHTSCF CHELPG PMODEL
| 53>
| 54> %scf
| 55> MaxIter 1000
| 56> end
| 57>
| 58> * xyz 0 1
| 59>   C                    : 4.528630             2.039462             -5.128029
| 60>   O                    : 4.867166             0.760606             -4.647254
| 61>   H                    : 4.537975             0.701861             -3.774986
| 62>   H                    : 3.432986             2.102369             -5.175460
| 63>   H                    : 4.983056             2.835476             -4.470874
| 64>   H                    : 5.000534             2.221187             -6.109668
| 65>   C                      0.159550             -0.695446            -5.283339
| 66>   O                      1.357969             0.049257             -5.214653
| 67>   H                      1.669129             -0.184117            -4.308228
| 68>   H                      0.216482             -1.496743            -6.077616
| 69>   H                      -0.113872            -1.182281            -4.345292
| 70>   H                      -0.685406            -0.138870            -5.644733
| 71> *
| 72>
| 73>                          ****END OF INPUT****
 Total Charge           Charge          ....    0
 Multiplicity           Mult            ....    1
 Number of Electrons    NEL             ....   36
Dispersion correction           -0.001370382
FINAL SINGLE POINT ENERGY      -231.465261038868
Dispersion correction           -0.000226650
FINAL SINGLE POINT ENERGY      -115.734573531399

CARTESIAN COORDINATES (ANGSTROEM)
---------------------------------
  C      4.528630    2.039462   -5.128029
  O      4.867166    0.760606   -4.647254
  H      4.537975    0.701861   -3.774986
  H      3.432986    2.102369   -5.175460
  H      4.983056    2.835476   -4.470874
  H      5.000534    2.221187   -6.109668
  C      0.159550   -0.695446   -5.283339
  O      1.357969    0.049257   -5.214653
  H      1.669129   -0.184117   -4.308228
  H      0.216482   -1.496743   -6.077616
  H     -0.113872   -1.182281   -4.345292
  H     -0.685406   -0.138870   -5.644733

 Multiplicity           Mult            ....    1
 Number of Electrons    NEL             ....   18
 Basis Dimension        Dim             ....  172

ORBITAL ENERGIES
----------------

  NO   OCC          E(Eh)            E(eV)
   0   2.0000     -19.238362      -523.5025
   1   2.0000     -10.314764      -280.6790
   2   2.0000      -1.138668       -30.9847
   3   2.0000      -0.791973       -21.5507
   4   2.0000      -0.612232       -16.6597
   5   2.0000      -0.535266       -14.5653
   6   2.0000      -0.527389       -14.3510
   7   2.0000      -0.445903       -12.1336
   8   2.0000      -0.370824       -10.0906
   9   0.0000       0.087746         2.3877
  10   0.0000       0.118170         3.2156
  11   0.0000       0.150529         4.0961
  12   0.0000       0.177678         4.8349
  13   0.0000       0.193383         5.2622

MULLIKEN ATOMIC CHARGES
-----------------------
   0 C :    0.001443
   1 O :   -0.000216
   2 H :   -0.000299
   3 H :   -0.005912
   4 H :   -0.000081
   5 H :    0.000024
   6 C :   -0.181798
   7 O :   -0.450291
   8 H :    0.321248
   9 H :    0.097006
  10 H :    0.103986
  11 H :    0.114890
Sum of atomic charges:    0.0000000

LOEWDIN ATOMIC CHARGES
----------------------
   0 C :   -0.002483
   1 O :   -0.000462
   2 H :   -0.000534
   3 H :   -0.004228
   4 H :   -0.000021
   5 H :   -0.000018
   6 C :   -0.399922
   7 O :   -0.079286
   8 H :    0.192298
   9 H :    0.102646
  10 H :    0.095693
  11 H :    0.096316

  Mayer bond orders larger than 0.1
B(  6-C ,  7-O ) :   1.0188 B(  6-C ,  9-H ) :   0.9769 B(  6-C , 10-H ) :   0.9834
B(  6-C , 11-H ) :   0.9768 B(  7-O ,  8-H ) :   0.8956

Dispersion correction           -0.000250624
FINAL SINGLE POINT ENERGY      -115.730545375419

DIPOLE MOMENT
-------------
                                X             Y             Z
Electronic contribution:      1.59098       1.14826       0.05707
Nuclear contribution   :     -1.86938      -1.57040       0.49269
                        -----------------------------------------
Total Dipole Moment    :     -0.27840      -0.42214       0.54975
                        -----------------------------------------
Magnitude (a.u.)       :      0.74695
Magnitude (Debye)      :      1.89860

Rotational constants in cm-1:     4.270335     0.834591     0.793069
Rotational constants in MHz : 128021.410084 25020.418283 23775.598464

                             ****ORCA TERMINATED NORMALLY****
TOTAL RUN TIME: 0 days 0 hours 1 minutes 6 seconds 960 msec
