                         Program Version 4.1.2  - RELEASE  -
|  1> #Run DFT-D3 single point of the dimer
|  2> ! wB97X-D3 def2-TZVP TIGHTSCF CHELPG PMODEL PAL8
|  3>
|  4> %base "1-55_DFT_AB"
|  5>
|  6> %scf
|  7> MaxIter 1000
|  8> end
|  9>
| 10> * xyz 0 1
| 11>   C                      -2.795325            9.217840             5.555766
| 12>   O                      -3.946272            9.686863             6.213946
| 13>   H                      -3.969267            9.351075             7.120477
| 14>   H                      -2.991524            9.209093             4.464861
| 15>   H                      -1.885058            9.769403             5.855998
| 16>   H                      -2.593840            8.207868             5.831886
| 17>   C                      -5.673843            9.678529             0.887699
| 18>   O                      -5.079798            8.484025             1.211510
| 19>   H                      -4.231268            8.659638             1.607767
| 20>   H                      -5.775124            10.359576            1.647475
| 21>   H                      -5.041630            10.146954            0.099919
| 22>   H                      -6.710823            9.493351             0.457744
| 23> *
| 24>
| 25> #Run DFT-D3 single point of the molecule with dimer basis set
| 26> $new_job
| 27> %base "1-55_DFT_A"
| 28> ! wB97X-D3 def2-TZVP TIGHTSCF CHELPG PMODEL
| 29>
| 30> %scf
| 31> MaxIter 1000
| 32> end
| 33>
| 34> * xyz 0 1
| 35>   C                      -2.795325            9.217840             5.555766
| 36>   O                      -3.946272            9.686863             6.213946
| 37>   H                      -3.969267            9.351075             7.120477
| 38>   H                      -2.991524            9.209093             4.464861
| 39>   H                      -1.885058            9.769403             5.855998
| 40>   H                      -2.593840            8.207868             5.831886
| 41>   C                    : -5.673843            9.678529             0.887699
| 42>   O                    : -5.079798            8.484025             1.211510
| 43>   H                    : -4.231268            8.659638             1.607767
| 44>   H                    : -5.775124            10.359576            1.647475
| 45>   H                    : -5.041630            10.146954            0.099919
| 46>   H                    : -6.710823            9.493351             0.457744
| 47> *
| 48>
| 49> #Run DFT-D3 single point of the particle with dimer basis set
| 50> $new_job
| 51> %base "1-55_DFT_B"
| 52> ! wB97X-D3 def2-TZVP TIGHTSCF CHELPG PMODEL
| 53>
| 54> %scf
| 55> MaxIter 1000
| 56> end
| 57>
| 58> * xyz 0 1
| 59>   C                    : -2.795325            9.217840             5.555766
| 60>   O                    : -3.946272            9.686863             6.213946
| 61>   H                    : -3.969267            9.351075             7.120477
| 62>   H                    : -2.991524            9.209093             4.464861
| 63>   H                    : -1.885058            9.769403             5.855998
| 64>   H                    : -2.593840            8.207868             5.831886
| 65>   C                      -5.673843            9.678529             0.887699
| 66>   O                      -5.079798            8.484025             1.211510
| 67>   H                      -4.231268            8.659638             1.607767
| 68>   H                      -5.775124            10.359576            1.647475
| 69>   H                      -5.041630            10.146954            0.099919
| 70>   H                      -6.710823            9.493351             0.457744
| 71> *
| 72>
| 73>                          ****END OF INPUT****
 Total Charge           Charge          ....    0
 Multiplicity           Mult            ....    1
 Number of Electrons    NEL             ....   36
Dispersion correction           -0.000792039
FINAL SINGLE POINT ENERGY      -231.464839063451
Dispersion correction           -0.000237326
FINAL SINGLE POINT ENERGY      -115.734578528238

CARTESIAN COORDINATES (ANGSTROEM)
---------------------------------
  C     -2.795325    9.217840    5.555766
  O     -3.946272    9.686863    6.213946
  H     -3.969267    9.351075    7.120477
  H     -2.991524    9.209093    4.464861
  H     -1.885058    9.769403    5.855998
  H     -2.593840    8.207868    5.831886
  C     -5.673843    9.678529    0.887699
  O     -5.079798    8.484025    1.211510
  H     -4.231268    8.659638    1.607767
  H     -5.775124   10.359576    1.647475
  H     -5.041630   10.146954    0.099919
  H     -6.710823    9.493351    0.457744

 Multiplicity           Mult            ....    1
 Number of Electrons    NEL             ....   18
 Basis Dimension        Dim             ....  172

ORBITAL ENERGIES
----------------

  NO   OCC          E(Eh)            E(eV)
   0   2.0000     -19.228526      -523.2348
   1   2.0000     -10.308303      -280.5032
   2   2.0000      -1.150656       -31.3109
   3   2.0000      -0.795729       -21.6529
   4   2.0000      -0.624191       -16.9851
   5   2.0000      -0.549175       -14.9438
   6   2.0000      -0.528273       -14.3750
   7   2.0000      -0.430065       -11.7027
   8   2.0000      -0.370422       -10.0797
   9   0.0000       0.078879         2.1464
  10   0.0000       0.114640         3.1195
  11   0.0000       0.153136         4.1670
  12   0.0000       0.171595         4.6693
  13   0.0000       0.190980         5.1968

MULLIKEN ATOMIC CHARGES
-----------------------
   0 C :    0.000950
   1 O :    0.000007
   2 H :    0.000003
   3 H :   -0.002264
   4 H :   -0.000045
   5 H :   -0.000044
   6 C :   -0.155012
   7 O :   -0.466775
   8 H :    0.315635
   9 H :    0.105901
  10 H :    0.091528
  11 H :    0.110115
Sum of atomic charges:    0.0000000

LOEWDIN ATOMIC CHARGES
----------------------
   0 C :   -0.000126
   1 O :   -0.000011
   2 H :   -0.000001
   3 H :   -0.000853
   4 H :   -0.000005
   5 H :   -0.000001
   6 C :   -0.412989
   7 O :   -0.043683
   8 H :    0.167316
   9 H :    0.075060
  10 H :    0.097125
  11 H :    0.118168

  Mayer bond orders larger than 0.1
B(  6-C ,  7-O ) :   1.0013 B(  6-C ,  9-H ) :   0.9690 B(  6-C , 10-H ) :   0.9909
B(  6-C , 11-H ) :   0.9716 B(  7-O ,  8-H ) :   0.8977

Dispersion correction           -0.000215787
FINAL SINGLE POINT ENERGY      -115.730097100719

DIPOLE MOMENT
-------------
                                X             Y             Z
Electronic contribution:      0.65684      -1.61759       0.54766
Nuclear contribution   :     -0.34108       2.18464      -0.38951
                        -----------------------------------------
Total Dipole Moment    :      0.31576       0.56705       0.15815
                        -----------------------------------------
Magnitude (a.u.)       :      0.66803
Magnitude (Debye)      :      1.69799

Rotational constants in cm-1:     4.342335     0.875375     0.837329
Rotational constants in MHz : 130179.924704 26243.085796 25102.492495

                             ****ORCA TERMINATED NORMALLY****
TOTAL RUN TIME: 0 days 0 hours 5 minutes 44 seconds 118 msec
