                         Program Version 4.1.2  - RELEASE  -
|  1> #Run DFT-D3 single point of the dimer
|  2> ! wB97X-D3 def2-TZVP TIGHTSCF CHELPG PMODEL PAL8
|  3>
|  4> %base "16-165_DFT_AB"
|  5>
|  6> %scf
|  7> MaxIter 1000
|  8> end
|  9>
| 10> * xyz 0 1
| 11>   C                      -0.048541            5.994055             0.000767
| 12>   O                      -1.413549            5.528168             -0.061910
| 13>   H                      -1.802674            6.109435             -0.721809
| 14>   H                      0.575472             5.526233             0.758967
| 15>   H                      0.545849             5.744248             -0.922134
| 16>   H                      -0.065551            7.054633             0.174694
| 17>   C                      -2.267208            6.279106             2.973919
| 18>   O                      -3.400082            5.746120             2.323222
| 19>   H                      -3.074221            5.322488             1.486952
| 20>   H                      -1.617773            5.410425             3.049809
| 21>   H                      -1.855328            7.068574             2.415175
| 22>   H                      -2.500357            6.573701             4.022513
| 23> *
| 24>
| 25> #Run DFT-D3 single point of the molecule with dimer basis set
| 26> $new_job
| 27> %base "16-165_DFT_A"
| 28> ! wB97X-D3 def2-TZVP TIGHTSCF CHELPG PMODEL
| 29>
| 30> %scf
| 31> MaxIter 1000
| 32> end
| 33>
| 34> * xyz 0 1
| 35>   C                      -0.048541            5.994055             0.000767
| 36>   O                      -1.413549            5.528168             -0.061910
| 37>   H                      -1.802674            6.109435             -0.721809
| 38>   H                      0.575472             5.526233             0.758967
| 39>   H                      0.545849             5.744248             -0.922134
| 40>   H                      -0.065551            7.054633             0.174694
| 41>   C                    : -2.267208            6.279106             2.973919
| 42>   O                    : -3.400082            5.746120             2.323222
| 43>   H                    : -3.074221            5.322488             1.486952
| 44>   H                    : -1.617773            5.410425             3.049809
| 45>   H                    : -1.855328            7.068574             2.415175
| 46>   H                    : -2.500357            6.573701             4.022513
| 47> *
| 48>
| 49> #Run DFT-D3 single point of the particle with dimer basis set
| 50> $new_job
| 51> %base "16-165_DFT_B"
| 52> ! wB97X-D3 def2-TZVP TIGHTSCF CHELPG PMODEL
| 53>
| 54> %scf
| 55> MaxIter 1000
| 56> end
| 57>
| 58> * xyz 0 1
| 59>   C                    : -0.048541            5.994055             0.000767
| 60>   O                    : -1.413549            5.528168             -0.061910
| 61>   H                    : -1.802674            6.109435             -0.721809
| 62>   H                    : 0.575472             5.526233             0.758967
| 63>   H                    : 0.545849             5.744248             -0.922134
| 64>   H                    : -0.065551            7.054633             0.174694
| 65>   C                      -2.267208            6.279106             2.973919
| 66>   O                      -3.400082            5.746120             2.323222
| 67>   H                      -3.074221            5.322488             1.486952
| 68>   H                      -1.617773            5.410425             3.049809
| 69>   H                      -1.855328            7.068574             2.415175
| 70>   H                      -2.500357            6.573701             4.022513
| 71> *
| 72>
| 73>                          ****END OF INPUT****
 Total Charge           Charge          ....    0
 Multiplicity           Mult            ....    1
 Number of Electrons    NEL             ....   36
Dispersion correction           -0.002227189
FINAL SINGLE POINT ENERGY      -231.469509486020
Dispersion correction           -0.000245918
FINAL SINGLE POINT ENERGY      -115.732242310861

CARTESIAN COORDINATES (ANGSTROEM)
---------------------------------
  C     -0.048541    5.994055    0.000767
  O     -1.413549    5.528168   -0.061910
  H     -1.802674    6.109435   -0.721809
  H      0.575472    5.526233    0.758967
  H      0.545849    5.744248   -0.922134
  H     -0.065551    7.054633    0.174694
  C     -2.267208    6.279106    2.973919
  O     -3.400082    5.746120    2.323222
  H     -3.074221    5.322488    1.486952
  H     -1.617773    5.410425    3.049809
  H     -1.855328    7.068574    2.415175
  H     -2.500357    6.573701    4.022513

 Multiplicity           Mult            ....    1
 Number of Electrons    NEL             ....   18
 Basis Dimension        Dim             ....  172

ORBITAL ENERGIES
----------------

  NO   OCC          E(Eh)            E(eV)
   0   2.0000     -19.227784      -523.2146
   1   2.0000     -10.309016      -280.5226
   2   2.0000      -1.130677       -30.7673
   3   2.0000      -0.791319       -21.5329
   4   2.0000      -0.602715       -16.4007
   5   2.0000      -0.556458       -15.1420
   6   2.0000      -0.526912       -14.3380
   7   2.0000      -0.426220       -11.5980
   8   2.0000      -0.370196       -10.0736
   9   0.0000       0.070579         1.9206
  10   0.0000       0.123414         3.3583
  11   0.0000       0.148771         4.0483
  12   0.0000       0.166665         4.5352
  13   0.0000       0.191498         5.2109

MULLIKEN ATOMIC CHARGES
-----------------------
   0 C :    0.000891
   1 O :   -0.002778
   2 H :   -0.000933
   3 H :   -0.000642
   4 H :   -0.000024
   5 H :   -0.000463
   6 C :   -0.168133
   7 O :   -0.479501
   8 H :    0.316611
   9 H :    0.105423
  10 H :    0.109630
  11 H :    0.119920
Sum of atomic charges:    0.0000000

LOEWDIN ATOMIC CHARGES
----------------------
   0 C :   -0.004689
   1 O :   -0.009701
   2 H :   -0.001419
   3 H :   -0.000615
   4 H :   -0.000026
   5 H :   -0.000916
   6 C :   -0.379689
   7 O :   -0.091287
   8 H :    0.189220
   9 H :    0.098951
  10 H :    0.087195
  11 H :    0.112976

  Mayer bond orders larger than 0.1
B(  6-C ,  7-O ) :   0.9869 B(  6-C ,  9-H ) :   0.9972 B(  6-C , 10-H ) :   0.9742
B(  6-C , 11-H ) :   0.9680 B(  7-O ,  8-H ) :   0.8982

Dispersion correction           -0.000208456
FINAL SINGLE POINT ENERGY      -115.730189997501

DIPOLE MOMENT
-------------
                                X             Y             Z
Electronic contribution:     -1.47854      -0.43921      -0.70297
Nuclear contribution   :      2.13170       0.38719       0.45935
                        -----------------------------------------
Total Dipole Moment    :      0.65316      -0.05202      -0.24361
                        -----------------------------------------
Magnitude (a.u.)       :      0.69905
Magnitude (Debye)      :      1.77685

Rotational constants in cm-1:     4.206711     0.846573     0.815925
Rotational constants in MHz : 126114.015221 25379.610499 24460.805760

                             ****ORCA TERMINATED NORMALLY****
TOTAL RUN TIME: 0 days 0 hours 1 minutes 5 seconds 840 msec
