                         Program Version 4.1.2  - RELEASE  -
|  1> #Run DFT-D3 single point of the dimer
|  2> ! wB97X-D3 def2-TZVP TIGHTSCF CHELPG PMODEL PAL8
|  3>
|  4> %base "7-166_DFT_AB"
|  5>
|  6> %scf
|  7> MaxIter 1000
|  8> end
|  9>
| 10> * xyz 0 1
| 11>   C                      -2.794217            -0.301711            -3.155988
| 12>   O                      -3.923334            -0.784241            -3.820213
| 13>   H                      -4.707109            -0.830497            -3.193386
| 14>   H                      -1.981174            -0.076518            -3.770836
| 15>   H                      -3.087698            0.587194             -2.615618
| 16>   H                      -2.514014            -0.911451            -2.360211
| 17>   C                      -2.596375            -2.383759            -6.837002
| 18>   O                      -3.630927            -1.525454            -6.525541
| 19>   H                      -3.770644            -1.520817            -5.588970
| 20>   H                      -2.336061            -3.048410            -5.995327
| 21>   H                      -2.952554            -3.047810            -7.579886
| 22>   H                      -1.659717            -1.903923            -7.106611
| 23> *
| 24>
| 25> #Run DFT-D3 single point of the molecule with dimer basis set
| 26> $new_job
| 27> %base "7-166_DFT_A"
| 28> ! wB97X-D3 def2-TZVP TIGHTSCF CHELPG PMODEL
| 29>
| 30> %scf
| 31> MaxIter 1000
| 32> end
| 33>
| 34> * xyz 0 1
| 35>   C                      -2.794217            -0.301711            -3.155988
| 36>   O                      -3.923334            -0.784241            -3.820213
| 37>   H                      -4.707109            -0.830497            -3.193386
| 38>   H                      -1.981174            -0.076518            -3.770836
| 39>   H                      -3.087698            0.587194             -2.615618
| 40>   H                      -2.514014            -0.911451            -2.360211
| 41>   C                    : -2.596375            -2.383759            -6.837002
| 42>   O                    : -3.630927            -1.525454            -6.525541
| 43>   H                    : -3.770644            -1.520817            -5.588970
| 44>   H                    : -2.336061            -3.048410            -5.995327
| 45>   H                    : -2.952554            -3.047810            -7.579886
| 46>   H                    : -1.659717            -1.903923            -7.106611
| 47> *
| 48>
| 49> #Run DFT-D3 single point of the particle with dimer basis set
| 50> $new_job
| 51> %base "7-166_DFT_B"
| 52> ! wB97X-D3 def2-TZVP TIGHTSCF CHELPG PMODEL
| 53>
| 54> %scf
| 55> MaxIter 1000
| 56> end
| 57>
| 58> * xyz 0 1
| 59>   C                    : -2.794217            -0.301711            -3.155988
| 60>   O                    : -3.923334            -0.784241            -3.820213
| 61>   H                    : -4.707109            -0.830497            -3.193386
| 62>   H                    : -1.981174            -0.076518            -3.770836
| 63>   H                    : -3.087698            0.587194             -2.615618
| 64>   H                    : -2.514014            -0.911451            -2.360211
| 65>   C                      -2.596375            -2.383759            -6.837002
| 66>   O                      -3.630927            -1.525454            -6.525541
| 67>   H                      -3.770644            -1.520817            -5.588970
| 68>   H                      -2.336061            -3.048410            -5.995327
| 69>   H                      -2.952554            -3.047810            -7.579886
| 70>   H                      -1.659717            -1.903923            -7.106611
| 71> *
| 72>
| 73>                          ****END OF INPUT****
 Total Charge           Charge          ....    0
 Multiplicity           Mult            ....    1
 Number of Electrons    NEL             ....   36
Dispersion correction           -0.001705327
FINAL SINGLE POINT ENERGY      -231.468065158414
Dispersion correction           -0.000215133
FINAL SINGLE POINT ENERGY      -115.727029146317

CARTESIAN COORDINATES (ANGSTROEM)
---------------------------------
  C     -2.794217   -0.301711   -3.155988
  O     -3.923334   -0.784241   -3.820213
  H     -4.707109   -0.830497   -3.193386
  H     -1.981174   -0.076518   -3.770836
  H     -3.087698    0.587194   -2.615618
  H     -2.514014   -0.911451   -2.360211
  C     -2.596375   -2.383759   -6.837002
  O     -3.630927   -1.525454   -6.525541
  H     -3.770644   -1.520817   -5.588970
  H     -2.336061   -3.048410   -5.995327
  H     -2.952554   -3.047810   -7.579886
  H     -1.659717   -1.903923   -7.106611

 Multiplicity           Mult            ....    1
 Number of Electrons    NEL             ....   18
 Basis Dimension        Dim             ....  172

ORBITAL ENERGIES
----------------

  NO   OCC          E(Eh)            E(eV)
   0   2.0000     -19.228727      -523.2403
   1   2.0000     -10.306083      -280.4428
   2   2.0000      -1.148932       -31.2640
   3   2.0000      -0.799223       -21.7480
   4   2.0000      -0.622145       -16.9294
   5   2.0000      -0.552849       -15.0438
   6   2.0000      -0.528342       -14.3769
   7   2.0000      -0.426433       -11.6038
   8   2.0000      -0.375644       -10.2218
   9   0.0000       0.070441         1.9168
  10   0.0000       0.134343         3.6556
  11   0.0000       0.145073         3.9476
  12   0.0000       0.172741         4.7005
  13   0.0000       0.189739         5.1631

MULLIKEN ATOMIC CHARGES
-----------------------
   0 C :   -0.003258
   1 O :   -0.003371
   2 H :   -0.000209
   3 H :   -0.000690
   4 H :   -0.000011
   5 H :    0.000050
   6 C :   -0.162561
   7 O :   -0.462173
   8 H :    0.314711
   9 H :    0.097476
  10 H :    0.117703
  11 H :    0.102334
Sum of atomic charges:   -0.0000000

LOEWDIN ATOMIC CHARGES
----------------------
   0 C :   -0.004940
   1 O :   -0.020895
   2 H :   -0.000934
   3 H :   -0.000848
   4 H :   -0.000102
   5 H :   -0.000089
   6 C :   -0.405220
   7 O :   -0.031882
   8 H :    0.173037
   9 H :    0.098835
  10 H :    0.097495
  11 H :    0.095542

  Mayer bond orders larger than 0.1
B(  6-C ,  7-O ) :   1.0008 B(  6-C ,  9-H ) :   0.9875 B(  6-C , 10-H ) :   0.9823
B(  6-C , 11-H ) :   0.9682 B(  7-O ,  8-H ) :   0.9043

Dispersion correction           -0.000232887
FINAL SINGLE POINT ENERGY      -115.733144921032

DIPOLE MOMENT
-------------
                                X             Y             Z
Electronic contribution:     -1.36142       1.24060       0.19955
Nuclear contribution   :      1.65752      -1.59038       0.30164
                        -----------------------------------------
Total Dipole Moment    :      0.29610      -0.34978       0.50119
                        -----------------------------------------
Magnitude (a.u.)       :      0.67913
Magnitude (Debye)      :      1.72621

Rotational constants in cm-1:     4.448736     0.860274     0.836311
Rotational constants in MHz : 133369.761922 25790.356632 25071.977200

                             ****ORCA TERMINATED NORMALLY****
TOTAL RUN TIME: 0 days 0 hours 1 minutes 15 seconds 68 msec
