                         Program Version 4.1.2  - RELEASE  -
|  1> #Run DFT-D3 single point of the dimer
|  2> ! wB97X-D3 def2-TZVP TIGHTSCF CHELPG PMODEL PAL8
|  3>
|  4> %base "17-34_DFT_AB"
|  5>
|  6> %scf
|  7> MaxIter 1000
|  8> end
|  9>
| 10> * xyz 0 1
| 11>   C                      -1.552654            -0.347999            4.263472
| 12>   O                      -0.675985            -0.786314            3.238730
| 13>   H                      -1.311521            -0.903148            2.507645
| 14>   H                      -1.893925            0.644904             3.934240
| 15>   H                      -2.420135            -0.936720            4.503697
| 16>   H                      -1.047543            -0.169033            5.200596
| 17>   C                      0.546155             -0.386009            -2.246830
| 18>   O                      -0.111670            -0.141035            -1.018801
| 19>   H                      -0.654529            0.653653             -1.151172
| 20>   H                      1.184324             0.479456             -2.585590
| 21>   H                      1.090515             -1.314380            -2.225483
| 22>   H                      -0.141371            -0.503635            -3.086953
| 23> *
| 24>
| 25> #Run DFT-D3 single point of the molecule with dimer basis set
| 26> $new_job
| 27> %base "17-34_DFT_A"
| 28> ! wB97X-D3 def2-TZVP TIGHTSCF CHELPG PMODEL
| 29>
| 30> %scf
| 31> MaxIter 1000
| 32> end
| 33>
| 34> * xyz 0 1
| 35>   C                      -1.552654            -0.347999            4.263472
| 36>   O                      -0.675985            -0.786314            3.238730
| 37>   H                      -1.311521            -0.903148            2.507645
| 38>   H                      -1.893925            0.644904             3.934240
| 39>   H                      -2.420135            -0.936720            4.503697
| 40>   H                      -1.047543            -0.169033            5.200596
| 41>   C                    : 0.546155             -0.386009            -2.246830
| 42>   O                    : -0.111670            -0.141035            -1.018801
| 43>   H                    : -0.654529            0.653653             -1.151172
| 44>   H                    : 1.184324             0.479456             -2.585590
| 45>   H                    : 1.090515             -1.314380            -2.225483
| 46>   H                    : -0.141371            -0.503635            -3.086953
| 47> *
| 48>
| 49> #Run DFT-D3 single point of the particle with dimer basis set
| 50> $new_job
| 51> %base "17-34_DFT_B"
| 52> ! wB97X-D3 def2-TZVP TIGHTSCF CHELPG PMODEL
| 53>
| 54> %scf
| 55> MaxIter 1000
| 56> end
| 57>
| 58> * xyz 0 1
| 59>   C                    : -1.552654            -0.347999            4.263472
| 60>   O                    : -0.675985            -0.786314            3.238730
| 61>   H                    : -1.311521            -0.903148            2.507645
| 62>   H                    : -1.893925            0.644904             3.934240
| 63>   H                    : -2.420135            -0.936720            4.503697
| 64>   H                    : -1.047543            -0.169033            5.200596
| 65>   C                      0.546155             -0.386009            -2.246830
| 66>   O                      -0.111670            -0.141035            -1.018801
| 67>   H                      -0.654529            0.653653             -1.151172
| 68>   H                      1.184324             0.479456             -2.585590
| 69>   H                      1.090515             -1.314380            -2.225483
| 70>   H                      -0.141371            -0.503635            -3.086953
| 71> *
| 72>
| 73>                          ****END OF INPUT****
 Total Charge           Charge          ....    0
 Multiplicity           Mult            ....    1
 Number of Electrons    NEL             ....   36
Dispersion correction           -0.000682325
FINAL SINGLE POINT ENERGY      -231.465445909034
Dispersion correction           -0.000224197
FINAL SINGLE POINT ENERGY      -115.730827501041

CARTESIAN COORDINATES (ANGSTROEM)
---------------------------------
  C     -1.552654   -0.347999    4.263472
  O     -0.675985   -0.786314    3.238730
  H     -1.311521   -0.903148    2.507645
  H     -1.893925    0.644904    3.934240
  H     -2.420135   -0.936720    4.503697
  H     -1.047543   -0.169033    5.200596
  C      0.546155   -0.386009   -2.246830
  O     -0.111670   -0.141035   -1.018801
  H     -0.654529    0.653653   -1.151172
  H      1.184324    0.479456   -2.585590
  H      1.090515   -1.314380   -2.225483
  H     -0.141371   -0.503635   -3.086953

 Multiplicity           Mult            ....    1
 Number of Electrons    NEL             ....   18
 Basis Dimension        Dim             ....  172

ORBITAL ENERGIES
----------------

  NO   OCC          E(Eh)            E(eV)
   0   2.0000     -19.234354      -523.3934
   1   2.0000     -10.314787      -280.6796
   2   2.0000      -1.136123       -30.9155
   3   2.0000      -0.794741       -21.6260
   4   2.0000      -0.612832       -16.6760
   5   2.0000      -0.537609       -14.6291
   6   2.0000      -0.525184       -14.2910
   7   2.0000      -0.440098       -11.9757
   8   2.0000      -0.371845       -10.1184
   9   0.0000       0.092776         2.5246
  10   0.0000       0.113491         3.0882
  11   0.0000       0.150531         4.0962
  12   0.0000       0.181101         4.9280
  13   0.0000       0.201944         5.4952

MULLIKEN ATOMIC CHARGES
-----------------------
   0 C :    0.000123
   1 O :    0.000013
   2 H :   -0.001222
   3 H :   -0.000019
   4 H :   -0.000005
   5 H :    0.000004
   6 C :   -0.173293
   7 O :   -0.468467
   8 H :    0.316778
   9 H :    0.099951
  10 H :    0.125859
  11 H :    0.100279
Sum of atomic charges:    0.0000000

LOEWDIN ATOMIC CHARGES
----------------------
   0 C :   -0.000010
   1 O :   -0.000080
   2 H :   -0.000704
   3 H :   -0.000001
   4 H :   -0.000000
   5 H :   -0.000001
   6 C :   -0.393236
   7 O :   -0.080321
   8 H :    0.177620
   9 H :    0.099570
  10 H :    0.105317
  11 H :    0.091846

  Mayer bond orders larger than 0.1
B(  6-C ,  7-O ) :   1.0002 B(  6-C ,  9-H ) :   0.9734 B(  6-C , 10-H ) :   0.9731
B(  6-C , 11-H ) :   0.9745 B(  7-O ,  8-H ) :   0.8968

Dispersion correction           -0.000244924
FINAL SINGLE POINT ENERGY      -115.734417749175

DIPOLE MOMENT
-------------
                                X             Y             Z
Electronic contribution:     -0.74920       0.13611       1.76827
Nuclear contribution   :      0.64933       0.24698      -2.34268
                        -----------------------------------------
Total Dipole Moment    :     -0.09987       0.38309      -0.57440
                        -----------------------------------------
Magnitude (a.u.)       :      0.69762
Magnitude (Debye)      :      1.77320

Rotational constants in cm-1:     4.303720     0.827743     0.791600
Rotational constants in MHz : 129022.277850 24815.121820 23731.567859

                             ****ORCA TERMINATED NORMALLY****
TOTAL RUN TIME: 0 days 0 hours 1 minutes 9 seconds 738 msec
