                         Program Version 4.1.2  - RELEASE  -
|  1> #Run DFT-D3 single point of the dimer
|  2> ! wB97X-D3 def2-TZVP TIGHTSCF CHELPG PMODEL PAL8
|  3>
|  4> %base "15-59_DFT_AB"
|  5>
|  6> %scf
|  7> MaxIter 1000
|  8> end
|  9>
| 10> * xyz 0 1
| 11>   C                      6.149197             0.279348             -9.433511
| 12>   O                      5.689921             -0.889510            -10.169131
| 13>   H                      5.935280             -1.668389            -9.656727
| 14>   H                      7.211657             0.500550             -9.393534
| 15>   H                      5.712407             1.245952             -9.815995
| 16>   H                      5.875382             0.154037             -8.369263
| 17>   C                      2.593408             1.629341             -8.783855
| 18>   O                      3.535555             2.431463             -9.270448
| 19>   H                      4.025981             2.848238             -8.530987
| 20>   H                      2.465876             1.917551             -7.720549
| 21>   H                      1.597055             1.853008             -9.172624
| 22>   H                      2.691403             0.589495             -8.837936
| 23> *
| 24>
| 25> #Run DFT-D3 single point of the molecule with dimer basis set
| 26> $new_job
| 27> %base "15-59_DFT_A"
| 28> ! wB97X-D3 def2-TZVP TIGHTSCF CHELPG PMODEL
| 29>
| 30> %scf
| 31> MaxIter 1000
| 32> end
| 33>
| 34> * xyz 0 1
| 35>   C                      6.149197             0.279348             -9.433511
| 36>   O                      5.689921             -0.889510            -10.169131
| 37>   H                      5.935280             -1.668389            -9.656727
| 38>   H                      7.211657             0.500550             -9.393534
| 39>   H                      5.712407             1.245952             -9.815995
| 40>   H                      5.875382             0.154037             -8.369263
| 41>   C                    : 2.593408             1.629341             -8.783855
| 42>   O                    : 3.535555             2.431463             -9.270448
| 43>   H                    : 4.025981             2.848238             -8.530987
| 44>   H                    : 2.465876             1.917551             -7.720549
| 45>   H                    : 1.597055             1.853008             -9.172624
| 46>   H                    : 2.691403             0.589495             -8.837936
| 47> *
| 48>
| 49> #Run DFT-D3 single point of the particle with dimer basis set
| 50> $new_job
| 51> %base "15-59_DFT_B"
| 52> ! wB97X-D3 def2-TZVP TIGHTSCF CHELPG PMODEL
| 53>
| 54> %scf
| 55> MaxIter 1000
| 56> end
| 57>
| 58> * xyz 0 1
| 59>   C                    : 6.149197             0.279348             -9.433511
| 60>   O                    : 5.689921             -0.889510            -10.169131
| 61>   H                    : 5.935280             -1.668389            -9.656727
| 62>   H                    : 7.211657             0.500550             -9.393534
| 63>   H                    : 5.712407             1.245952             -9.815995
| 64>   H                    : 5.875382             0.154037             -8.369263
| 65>   C                      2.593408             1.629341             -8.783855
| 66>   O                      3.535555             2.431463             -9.270448
| 67>   H                      4.025981             2.848238             -8.530987
| 68>   H                      2.465876             1.917551             -7.720549
| 69>   H                      1.597055             1.853008             -9.172624
| 70>   H                      2.691403             0.589495             -8.837936
| 71> *
| 72>
| 73>                          ****END OF INPUT****
 Total Charge           Charge          ....    0
 Multiplicity           Mult            ....    1
 Number of Electrons    NEL             ....   36
Dispersion correction           -0.001890093
FINAL SINGLE POINT ENERGY      -231.454820483086
Dispersion correction           -0.000278538
FINAL SINGLE POINT ENERGY      -115.730685961507

CARTESIAN COORDINATES (ANGSTROEM)
---------------------------------
  C      6.149197    0.279348   -9.433511
  O      5.689921   -0.889510  -10.169131
  H      5.935280   -1.668389   -9.656727
  H      7.211657    0.500550   -9.393534
  H      5.712407    1.245952   -9.815995
  H      5.875382    0.154037   -8.369263
  C      2.593408    1.629341   -8.783855
  O      3.535555    2.431463   -9.270448
  H      4.025981    2.848238   -8.530987
  H      2.465876    1.917551   -7.720549
  H      1.597055    1.853008   -9.172624
  H      2.691403    0.589495   -8.837936

 Multiplicity           Mult            ....    1
 Number of Electrons    NEL             ....   18
 Basis Dimension        Dim             ....  172

ORBITAL ENERGIES
----------------

  NO   OCC          E(Eh)            E(eV)
   0   2.0000     -19.233297      -523.3646
   1   2.0000     -10.302488      -280.3449
   2   2.0000      -1.162786       -31.6410
   3   2.0000      -0.795138       -21.6368
   4   2.0000      -0.629827       -17.1385
   5   2.0000      -0.558874       -15.2077
   6   2.0000      -0.541970       -14.7478
   7   2.0000      -0.413313       -11.2468
   8   2.0000      -0.373201       -10.1553
   9   0.0000       0.085450         2.3252
  10   0.0000       0.116420         3.1680
  11   0.0000       0.152236         4.1426
  12   0.0000       0.178889         4.8678
  13   0.0000       0.198140         5.3917

MULLIKEN ATOMIC CHARGES
-----------------------
   0 C :    0.001078
   1 O :   -0.000389
   2 H :   -0.000046
   3 H :   -0.000001
   4 H :   -0.008799
   5 H :   -0.000777
   6 C :   -0.155872
   7 O :   -0.454195
   8 H :    0.332025
   9 H :    0.081618
  10 H :    0.098541
  11 H :    0.106817
Sum of atomic charges:   -0.0000000

LOEWDIN ATOMIC CHARGES
----------------------
   0 C :   -0.007673
   1 O :   -0.000095
   2 H :   -0.000018
   3 H :   -0.000042
   4 H :   -0.012438
   5 H :   -0.000676
   6 C :   -0.453320
   7 O :   -0.004110
   8 H :    0.194846
   9 H :    0.099089
  10 H :    0.100206
  11 H :    0.084232

  Mayer bond orders larger than 0.1
B(  6-C ,  7-O ) :   1.0237 B(  6-C ,  9-H ) :   1.0047 B(  6-C , 10-H ) :   0.9760
B(  6-C , 11-H ) :   0.9703 B(  7-O ,  8-H ) :   0.8869

Dispersion correction           -0.000218826
FINAL SINGLE POINT ENERGY      -115.723359760331

DIPOLE MOMENT
-------------
                                X             Y             Z
Electronic contribution:      1.40680       0.94298      -0.96091
Nuclear contribution   :     -1.42506      -0.93073       1.62399
                        -----------------------------------------
Total Dipole Moment    :     -0.01826       0.01224       0.66308
                        -----------------------------------------
Magnitude (a.u.)       :      0.66344
Magnitude (Debye)      :      1.68634

Rotational constants in cm-1:     4.507659     0.909775     0.874126
Rotational constants in MHz : 135136.217463 27274.362356 26205.646551

                             ****ORCA TERMINATED NORMALLY****
TOTAL RUN TIME: 0 days 0 hours 0 minutes 58 seconds 64 msec
