                         Program Version 4.1.2  - RELEASE  -
|  1> #Run DFT-D3 single point of the dimer
|  2> ! wB97X-D3 def2-TZVP TIGHTSCF CHELPG PMODEL PAL8
|  3>
|  4> %base "22-209_DFT_AB"
|  5>
|  6> %scf
|  7> MaxIter 1000
|  8> end
|  9>
| 10> * xyz 0 1
| 11>   C                      8.253150             -0.381026            -4.914637
| 12>   O                      7.649367             0.751168             -5.503528
| 13>   H                      6.670793             0.918869             -5.362021
| 14>   H                      8.018873             -0.360801            -3.759233
| 15>   H                      7.836253             -1.266290            -5.414413
| 16>   H                      9.330935             -0.575877            -5.152643
| 17>   C                      10.925371            2.043176             -4.803599
| 18>   O                      9.954472             2.730684             -5.632411
| 19>   H                      9.231791             2.162595             -5.835105
| 20>   H                      10.733673            2.312400             -3.721582
| 21>   H                      10.877832            1.002632             -4.827015
| 22>   H                      11.898146            2.226696             -5.123197
| 23> *
| 24>
| 25> #Run DFT-D3 single point of the molecule with dimer basis set
| 26> $new_job
| 27> %base "22-209_DFT_A"
| 28> ! wB97X-D3 def2-TZVP TIGHTSCF CHELPG PMODEL
| 29>
| 30> %scf
| 31> MaxIter 1000
| 32> end
| 33>
| 34> * xyz 0 1
| 35>   C                      8.253150             -0.381026            -4.914637
| 36>   O                      7.649367             0.751168             -5.503528
| 37>   H                      6.670793             0.918869             -5.362021
| 38>   H                      8.018873             -0.360801            -3.759233
| 39>   H                      7.836253             -1.266290            -5.414413
| 40>   H                      9.330935             -0.575877            -5.152643
| 41>   C                    : 10.925371            2.043176             -4.803599
| 42>   O                    : 9.954472             2.730684             -5.632411
| 43>   H                    : 9.231791             2.162595             -5.835105
| 44>   H                    : 10.733673            2.312400             -3.721582
| 45>   H                    : 10.877832            1.002632             -4.827015
| 46>   H                    : 11.898146            2.226696             -5.123197
| 47> *
| 48>
| 49> #Run DFT-D3 single point of the particle with dimer basis set
| 50> $new_job
| 51> %base "22-209_DFT_B"
| 52> ! wB97X-D3 def2-TZVP TIGHTSCF CHELPG PMODEL
| 53>
| 54> %scf
| 55> MaxIter 1000
| 56> end
| 57>
| 58> * xyz 0 1
| 59>   C                    : 8.253150             -0.381026            -4.914637
| 60>   O                    : 7.649367             0.751168             -5.503528
| 61>   H                    : 6.670793             0.918869             -5.362021
| 62>   H                    : 8.018873             -0.360801            -3.759233
| 63>   H                    : 7.836253             -1.266290            -5.414413
| 64>   H                    : 9.330935             -0.575877            -5.152643
| 65>   C                      10.925371            2.043176             -4.803599
| 66>   O                      9.954472             2.730684             -5.632411
| 67>   H                      9.231791             2.162595             -5.835105
| 68>   H                      10.733673            2.312400             -3.721582
| 69>   H                      10.877832            1.002632             -4.827015
| 70>   H                      11.898146            2.226696             -5.123197
| 71> *
| 72>
| 73>                          ****END OF INPUT****
 Total Charge           Charge          ....    0
 Multiplicity           Mult            ....    1
 Number of Electrons    NEL             ....   36
Dispersion correction           -0.002187681
FINAL SINGLE POINT ENERGY      -231.454680288360
Dispersion correction           -0.000279751
FINAL SINGLE POINT ENERGY      -115.719472104343

CARTESIAN COORDINATES (ANGSTROEM)
---------------------------------
  C      8.253150   -0.381026   -4.914637
  O      7.649367    0.751168   -5.503528
  H      6.670793    0.918869   -5.362021
  H      8.018873   -0.360801   -3.759233
  H      7.836253   -1.266290   -5.414413
  H      9.330935   -0.575877   -5.152643
  C     10.925371    2.043176   -4.803599
  O      9.954472    2.730684   -5.632411
  H      9.231791    2.162595   -5.835105
  H     10.733673    2.312400   -3.721582
  H     10.877832    1.002632   -4.827015
  H     11.898146    2.226696   -5.123197

 Multiplicity           Mult            ....    1
 Number of Electrons    NEL             ....   18
 Basis Dimension        Dim             ....  172

ORBITAL ENERGIES
----------------

  NO   OCC          E(Eh)            E(eV)
   0   2.0000     -19.227827      -523.2158
   1   2.0000     -10.309362      -280.5320
   2   2.0000      -1.127389       -30.6778
   3   2.0000      -0.807799       -21.9813
   4   2.0000      -0.613295       -16.6886
   5   2.0000      -0.545372       -14.8403
   6   2.0000      -0.516028       -14.0418
   7   2.0000      -0.436875       -11.8880
   8   2.0000      -0.376365       -10.2414
   9   0.0000       0.070631         1.9220
  10   0.0000       0.137533         3.7425
  11   0.0000       0.145459         3.9582
  12   0.0000       0.167384         4.5547
  13   0.0000       0.187247         5.0952

MULLIKEN ATOMIC CHARGES
-----------------------
   0 C :   -0.002886
   1 O :   -0.002383
   2 H :   -0.000225
   3 H :   -0.000165
   4 H :    0.000155
   5 H :    0.001618
   6 C :   -0.176789
   7 O :   -0.479725
   8 H :    0.311135
   9 H :    0.106968
  10 H :    0.116333
  11 H :    0.125963
Sum of atomic charges:    0.0000000

LOEWDIN ATOMIC CHARGES
----------------------
   0 C :   -0.008785
   1 O :   -0.011785
   2 H :   -0.000661
   3 H :   -0.000149
   4 H :   -0.000073
   5 H :   -0.005179
   6 C :   -0.341638
   7 O :   -0.082471
   8 H :    0.156326
   9 H :    0.109507
  10 H :    0.090594
  11 H :    0.094315

  Mayer bond orders larger than 0.1
B(  6-C ,  7-O ) :   0.9898 B(  6-C ,  9-H ) :   0.9816 B(  6-C , 10-H ) :   0.9723
B(  6-C , 11-H ) :   0.9751 B(  7-O ,  8-H ) :   0.9122

Dispersion correction           -0.000262332
FINAL SINGLE POINT ENERGY      -115.728550573057

DIPOLE MOMENT
-------------
                                X             Y             Z
Electronic contribution:     -1.07508       0.95978      -1.11580
Nuclear contribution   :      1.02515      -1.66706       1.30712
                        -----------------------------------------
Total Dipole Moment    :     -0.04993      -0.70728       0.19132
                        -----------------------------------------
Magnitude (a.u.)       :      0.73439
Magnitude (Debye)      :      1.86668

Rotational constants in cm-1:     4.540921     0.788651     0.776682
Rotational constants in MHz : 136133.388873 23643.147986 23284.333349

                             ****ORCA TERMINATED NORMALLY****
TOTAL RUN TIME: 0 days 0 hours 1 minutes 7 seconds 71 msec
