                         Program Version 4.1.2  - RELEASE  -
|  1> #Run DFT-D3 single point of the dimer
|  2> ! wB97X-D3 def2-TZVP TIGHTSCF CHELPG PMODEL PAL8
|  3>
|  4> %base "9-160_DFT_AB"
|  5>
|  6> %scf
|  7> MaxIter 1000
|  8> end
|  9>
| 10> * xyz 0 1
| 11>   C                      -3.437521            1.743393             9.429279
| 12>   O                      -2.392920            2.601094             8.968135
| 13>   H                      -2.789431            3.445956             8.752653
| 14>   H                      -3.842162            2.153886             10.347907
| 15>   H                      -4.226505            1.590673             8.576255
| 16>   H                      -3.060894            0.726974             9.753936
| 17>   C                      1.134466             1.669467             7.854700
| 18>   O                      0.471927             2.156405             8.954086
| 19>   H                      -0.458943            1.970741             8.862738
| 20>   H                      1.134125             0.515744             7.875608
| 21>   H                      0.764826             1.840313             6.822769
| 22>   H                      2.204869             1.978863             7.814812
| 23> *
| 24>
| 25> #Run DFT-D3 single point of the molecule with dimer basis set
| 26> $new_job
| 27> %base "9-160_DFT_A"
| 28> ! wB97X-D3 def2-TZVP TIGHTSCF CHELPG PMODEL
| 29>
| 30> %scf
| 31> MaxIter 1000
| 32> end
| 33>
| 34> * xyz 0 1
| 35>   C                      -3.437521            1.743393             9.429279
| 36>   O                      -2.392920            2.601094             8.968135
| 37>   H                      -2.789431            3.445956             8.752653
| 38>   H                      -3.842162            2.153886             10.347907
| 39>   H                      -4.226505            1.590673             8.576255
| 40>   H                      -3.060894            0.726974             9.753936
| 41>   C                    : 1.134466             1.669467             7.854700
| 42>   O                    : 0.471927             2.156405             8.954086
| 43>   H                    : -0.458943            1.970741             8.862738
| 44>   H                    : 1.134125             0.515744             7.875608
| 45>   H                    : 0.764826             1.840313             6.822769
| 46>   H                    : 2.204869             1.978863             7.814812
| 47> *
| 48>
| 49> #Run DFT-D3 single point of the particle with dimer basis set
| 50> $new_job
| 51> %base "9-160_DFT_B"
| 52> ! wB97X-D3 def2-TZVP TIGHTSCF CHELPG PMODEL
| 53>
| 54> %scf
| 55> MaxIter 1000
| 56> end
| 57>
| 58> * xyz 0 1
| 59>   C                    : -3.437521            1.743393             9.429279
| 60>   O                    : -2.392920            2.601094             8.968135
| 61>   H                    : -2.789431            3.445956             8.752653
| 62>   H                    : -3.842162            2.153886             10.347907
| 63>   H                    : -4.226505            1.590673             8.576255
| 64>   H                    : -3.060894            0.726974             9.753936
| 65>   C                      1.134466             1.669467             7.854700
| 66>   O                      0.471927             2.156405             8.954086
| 67>   H                      -0.458943            1.970741             8.862738
| 68>   H                      1.134125             0.515744             7.875608
| 69>   H                      0.764826             1.840313             6.822769
| 70>   H                      2.204869             1.978863             7.814812
| 71> *
| 72>
| 73>                          ****END OF INPUT****
 Total Charge           Charge          ....    0
 Multiplicity           Mult            ....    1
 Number of Electrons    NEL             ....   36
Dispersion correction           -0.001489543
FINAL SINGLE POINT ENERGY      -231.468094670417
Dispersion correction           -0.000254101
FINAL SINGLE POINT ENERGY      -115.730849674946

CARTESIAN COORDINATES (ANGSTROEM)
---------------------------------
  C     -3.437521    1.743393    9.429279
  O     -2.392920    2.601094    8.968135
  H     -2.789431    3.445956    8.752653
  H     -3.842162    2.153886   10.347907
  H     -4.226505    1.590673    8.576255
  H     -3.060894    0.726974    9.753936
  C      1.134466    1.669467    7.854700
  O      0.471927    2.156405    8.954086
  H     -0.458943    1.970741    8.862738
  H      1.134125    0.515744    7.875608
  H      0.764826    1.840313    6.822769
  H      2.204869    1.978863    7.814812

 Multiplicity           Mult            ....    1
 Number of Electrons    NEL             ....   18
 Basis Dimension        Dim             ....  172

ORBITAL ENERGIES
----------------

  NO   OCC          E(Eh)            E(eV)
   0   2.0000     -19.237711      -523.4847
   1   2.0000     -10.320732      -280.8414
   2   2.0000      -1.154813       -31.4241
   3   2.0000      -0.791853       -21.5474
   4   2.0000      -0.626821       -17.0567
   5   2.0000      -0.537902       -14.6371
   6   2.0000      -0.527437       -14.3523
   7   2.0000      -0.434576       -11.8254
   8   2.0000      -0.369367       -10.0510
   9   0.0000       0.070498         1.9184
  10   0.0000       0.128203         3.4886
  11   0.0000       0.149418         4.0659
  12   0.0000       0.161219         4.3870
  13   0.0000       0.193690         5.2706

MULLIKEN ATOMIC CHARGES
-----------------------
   0 C :   -0.000867
   1 O :   -0.002372
   2 H :   -0.000421
   3 H :   -0.000029
   4 H :    0.000049
   5 H :   -0.000241
   6 C :   -0.177454
   7 O :   -0.449221
   8 H :    0.317504
   9 H :    0.090783
  10 H :    0.100254
  11 H :    0.122013
Sum of atomic charges:    0.0000000

LOEWDIN ATOMIC CHARGES
----------------------
   0 C :   -0.002464
   1 O :   -0.015735
   2 H :   -0.001056
   3 H :   -0.000054
   4 H :   -0.000029
   5 H :   -0.000395
   6 C :   -0.436559
   7 O :   -0.026278
   8 H :    0.178081
   9 H :    0.098395
  10 H :    0.093620
  11 H :    0.112473

  Mayer bond orders larger than 0.1
B(  6-C ,  7-O ) :   1.0103 B(  6-C ,  9-H ) :   0.9847 B(  6-C , 10-H ) :   0.9614
B(  6-C , 11-H ) :   0.9706 B(  7-O ,  8-H ) :   0.8981

Dispersion correction           -0.000259650
FINAL SINGLE POINT ENERGY      -115.730194050353

DIPOLE MOMENT
-------------
                                X             Y             Z
Electronic contribution:     -0.85820       0.94809       1.62976
Nuclear contribution   :      0.50460      -1.21389      -2.08700
                        -----------------------------------------
Total Dipole Moment    :     -0.35360      -0.26580      -0.45724
                        -----------------------------------------
Magnitude (a.u.)       :      0.63620
Magnitude (Debye)      :      1.61709

Rotational constants in cm-1:     4.333959     0.849379     0.814812
Rotational constants in MHz : 129928.827605 25463.737849 24427.434767

                             ****ORCA TERMINATED NORMALLY****
TOTAL RUN TIME: 0 days 0 hours 0 minutes 44 seconds 733 msec
