                         Program Version 4.1.2  - RELEASE  -
|  1> #Run DFT-D3 single point of the dimer
|  2> ! wB97X-D3 def2-TZVP TIGHTSCF CHELPG PMODEL PAL8
|  3>
|  4> %base "1-176_DFT_AB"
|  5>
|  6> %scf
|  7> MaxIter 1000
|  8> end
|  9>
| 10> * xyz 0 1
| 11>   C                      3.124411             6.760712             0.079226
| 12>   O                      3.436967             7.917179             -0.688378
| 13>   H                      4.331407             7.963091             -0.943924
| 14>   H                      3.279896             7.001139             1.161215
| 15>   H                      2.073027             6.448068             0.115483
| 16>   H                      3.707843             5.875850             -0.206455
| 17>   C                      6.137537             7.329484             -5.029090
| 18>   O                      4.993816             8.083205             -4.789981
| 19>   H                      5.298773             8.977023             -4.746202
| 20>   H                      5.937156             6.232689             -4.958911
| 21>   H                      6.633981             7.570980             -5.974501
| 22>   H                      6.921082             7.612239             -4.311870
| 23> *
| 24>
| 25> #Run DFT-D3 single point of the molecule with dimer basis set
| 26> $new_job
| 27> %base "1-176_DFT_A"
| 28> ! wB97X-D3 def2-TZVP TIGHTSCF CHELPG PMODEL
| 29>
| 30> %scf
| 31> MaxIter 1000
| 32> end
| 33>
| 34> * xyz 0 1
| 35>   C                      3.124411             6.760712             0.079226
| 36>   O                      3.436967             7.917179             -0.688378
| 37>   H                      4.331407             7.963091             -0.943924
| 38>   H                      3.279896             7.001139             1.161215
| 39>   H                      2.073027             6.448068             0.115483
| 40>   H                      3.707843             5.875850             -0.206455
| 41>   C                    : 6.137537             7.329484             -5.029090
| 42>   O                    : 4.993816             8.083205             -4.789981
| 43>   H                    : 5.298773             8.977023             -4.746202
| 44>   H                    : 5.937156             6.232689             -4.958911
| 45>   H                    : 6.633981             7.570980             -5.974501
| 46>   H                    : 6.921082             7.612239             -4.311870
| 47> *
| 48>
| 49> #Run DFT-D3 single point of the particle with dimer basis set
| 50> $new_job
| 51> %base "1-176_DFT_B"
| 52> ! wB97X-D3 def2-TZVP TIGHTSCF CHELPG PMODEL
| 53>
| 54> %scf
| 55> MaxIter 1000
| 56> end
| 57>
| 58> * xyz 0 1
| 59>   C                    : 3.124411             6.760712             0.079226
| 60>   O                    : 3.436967             7.917179             -0.688378
| 61>   H                    : 4.331407             7.963091             -0.943924
| 62>   H                    : 3.279896             7.001139             1.161215
| 63>   H                    : 2.073027             6.448068             0.115483
| 64>   H                    : 3.707843             5.875850             -0.206455
| 65>   C                      6.137537             7.329484             -5.029090
| 66>   O                      4.993816             8.083205             -4.789981
| 67>   H                      5.298773             8.977023             -4.746202
| 68>   H                      5.937156             6.232689             -4.958911
| 69>   H                      6.633981             7.570980             -5.974501
| 70>   H                      6.921082             7.612239             -4.311870
| 71> *
| 72>
| 73>                          ****END OF INPUT****
 Total Charge           Charge          ....    0
 Multiplicity           Mult            ....    1
 Number of Electrons    NEL             ....   36
Dispersion correction           -0.000768434
FINAL SINGLE POINT ENERGY      -231.463768065740
Dispersion correction           -0.000269780
FINAL SINGLE POINT ENERGY      -115.730281244781

CARTESIAN COORDINATES (ANGSTROEM)
---------------------------------
  C      3.124411    6.760712    0.079226
  O      3.436967    7.917179   -0.688378
  H      4.331407    7.963091   -0.943924
  H      3.279896    7.001139    1.161215
  H      2.073027    6.448068    0.115483
  H      3.707843    5.875850   -0.206455
  C      6.137537    7.329484   -5.029090
  O      4.993816    8.083205   -4.789981
  H      5.298773    8.977023   -4.746202
  H      5.937156    6.232689   -4.958911
  H      6.633981    7.570980   -5.974501
  H      6.921082    7.612239   -4.311870

 Multiplicity           Mult            ....    1
 Number of Electrons    NEL             ....   18
 Basis Dimension        Dim             ....  172

ORBITAL ENERGIES
----------------

  NO   OCC          E(Eh)            E(eV)
   0   2.0000     -19.230970      -523.3013
   1   2.0000     -10.314769      -280.6791
   2   2.0000      -1.150124       -31.2965
   3   2.0000      -0.792444       -21.5635
   4   2.0000      -0.621969       -16.9246
   5   2.0000      -0.536470       -14.5981
   6   2.0000      -0.531873       -14.4730
   7   2.0000      -0.440922       -11.9981
   8   2.0000      -0.369739       -10.0611
   9   0.0000       0.090656         2.4669
  10   0.0000       0.113565         3.0902
  11   0.0000       0.156309         4.2534
  12   0.0000       0.172001         4.6804
  13   0.0000       0.197009         5.3609

MULLIKEN ATOMIC CHARGES
-----------------------
   0 C :    0.000124
   1 O :   -0.000005
   2 H :   -0.001260
   3 H :   -0.000007
   4 H :    0.000012
   5 H :   -0.000026
   6 C :   -0.176026
   7 O :   -0.459275
   8 H :    0.313825
   9 H :    0.123346
  10 H :    0.098752
  11 H :    0.100539
Sum of atomic charges:    0.0000000

LOEWDIN ATOMIC CHARGES
----------------------
   0 C :   -0.000018
   1 O :   -0.000122
   2 H :   -0.000859
   3 H :   -0.000001
   4 H :   -0.000001
   5 H :   -0.000002
   6 C :   -0.410272
   7 O :   -0.052322
   8 H :    0.164496
   9 H :    0.113981
  10 H :    0.091409
  11 H :    0.093711

  Mayer bond orders larger than 0.1
B(  6-C ,  7-O ) :   0.9956 B(  6-C ,  9-H ) :   0.9716 B(  6-C , 10-H ) :   0.9711
B(  6-C , 11-H ) :   0.9835 B(  7-O ,  8-H ) :   0.9020

Dispersion correction           -0.000219287
FINAL SINGLE POINT ENERGY      -115.733551879163

DIPOLE MOMENT
-------------
                                X             Y             Z
Electronic contribution:     -1.70270       0.81357       0.28385
Nuclear contribution   :      2.33202      -0.52560      -0.34391
                        -----------------------------------------
Total Dipole Moment    :      0.62932       0.28798      -0.06006
                        -----------------------------------------
Magnitude (a.u.)       :      0.69468
Magnitude (Debye)      :      1.76574

Rotational constants in cm-1:     4.267871     0.861052     0.816274
Rotational constants in MHz : 127947.539219 25813.682288 24471.263910

                             ****ORCA TERMINATED NORMALLY****
TOTAL RUN TIME: 0 days 0 hours 6 minutes 0 seconds 757 msec
