                         Program Version 4.1.2  - RELEASE  -
|  1> #Run DFT-D3 single point of the dimer
|  2> ! wB97X-D3 def2-TZVP TIGHTSCF CHELPG PMODEL PAL8
|  3>
|  4> %base "15-174_DFT_AB"
|  5>
|  6> %scf
|  7> MaxIter 1000
|  8> end
|  9>
| 10> * xyz 0 1
| 11>   C                      10.114488            3.388685             -6.094929
| 12>   O                      10.661265            3.982292             -7.258183
| 13>   H                      11.574049            3.714930             -7.461793
| 14>   H                      10.777255            3.413291             -5.238512
| 15>   H                      9.110725             3.794082             -5.803747
| 16>   H                      9.979449             2.340929             -6.296372
| 17>   C                      9.067935             6.869541             -6.550864
| 18>   O                      10.073466            6.720959             -7.442767
| 19>   H                      10.100943            5.784547             -7.706407
| 20>   H                      9.405669             6.474098             -5.556078
| 21>   H                      8.753165             7.883409             -6.373694
| 22>   H                      8.188043             6.310657             -6.862010
| 23> *
| 24>
| 25> #Run DFT-D3 single point of the molecule with dimer basis set
| 26> $new_job
| 27> %base "15-174_DFT_A"
| 28> ! wB97X-D3 def2-TZVP TIGHTSCF CHELPG PMODEL
| 29>
| 30> %scf
| 31> MaxIter 1000
| 32> end
| 33>
| 34> * xyz 0 1
| 35>   C                      10.114488            3.388685             -6.094929
| 36>   O                      10.661265            3.982292             -7.258183
| 37>   H                      11.574049            3.714930             -7.461793
| 38>   H                      10.777255            3.413291             -5.238512
| 39>   H                      9.110725             3.794082             -5.803747
| 40>   H                      9.979449             2.340929             -6.296372
| 41>   C                    : 9.067935             6.869541             -6.550864
| 42>   O                    : 10.073466            6.720959             -7.442767
| 43>   H                    : 10.100943            5.784547             -7.706407
| 44>   H                    : 9.405669             6.474098             -5.556078
| 45>   H                    : 8.753165             7.883409             -6.373694
| 46>   H                    : 8.188043             6.310657             -6.862010
| 47> *
| 48>
| 49> #Run DFT-D3 single point of the particle with dimer basis set
| 50> $new_job
| 51> %base "15-174_DFT_B"
| 52> ! wB97X-D3 def2-TZVP TIGHTSCF CHELPG PMODEL
| 53>
| 54> %scf
| 55> MaxIter 1000
| 56> end
| 57>
| 58> * xyz 0 1
| 59>   C                    : 10.114488            3.388685             -6.094929
| 60>   O                    : 10.661265            3.982292             -7.258183
| 61>   H                    : 11.574049            3.714930             -7.461793
| 62>   H                    : 10.777255            3.413291             -5.238512
| 63>   H                    : 9.110725             3.794082             -5.803747
| 64>   H                    : 9.979449             2.340929             -6.296372
| 65>   C                      9.067935             6.869541             -6.550864
| 66>   O                      10.073466            6.720959             -7.442767
| 67>   H                      10.100943            5.784547             -7.706407
| 68>   H                      9.405669             6.474098             -5.556078
| 69>   H                      8.753165             7.883409             -6.373694
| 70>   H                      8.188043             6.310657             -6.862010
| 71> *
| 72>
| 73>                          ****END OF INPUT****
 Total Charge           Charge          ....    0
 Multiplicity           Mult            ....    1
 Number of Electrons    NEL             ....   36
Dispersion correction           -0.002199403
FINAL SINGLE POINT ENERGY      -231.472811540270
Dispersion correction           -0.000254008
FINAL SINGLE POINT ENERGY      -115.732525414943

CARTESIAN COORDINATES (ANGSTROEM)
---------------------------------
  C     10.114488    3.388685   -6.094929
  O     10.661265    3.982292   -7.258183
  H     11.574049    3.714930   -7.461793
  H     10.777255    3.413291   -5.238512
  H      9.110725    3.794082   -5.803747
  H      9.979449    2.340929   -6.296372
  C      9.067935    6.869541   -6.550864
  O     10.073466    6.720959   -7.442767
  H     10.100943    5.784547   -7.706407
  H      9.405669    6.474098   -5.556078
  H      8.753165    7.883409   -6.373694
  H      8.188043    6.310657   -6.862010

 Multiplicity           Mult            ....    1
 Number of Electrons    NEL             ....   18
 Basis Dimension        Dim             ....  172

ORBITAL ENERGIES
----------------

  NO   OCC          E(Eh)            E(eV)
   0   2.0000     -19.231771      -523.3231
   1   2.0000     -10.308125      -280.4983
   2   2.0000      -1.155650       -31.4468
   3   2.0000      -0.791609       -21.5408
   4   2.0000      -0.621248       -16.9050
   5   2.0000      -0.546900       -14.8819
   6   2.0000      -0.542512       -14.7625
   7   2.0000      -0.428077       -11.6486
   8   2.0000      -0.367370        -9.9967
   9   0.0000       0.070107         1.9077
  10   0.0000       0.135375         3.6837
  11   0.0000       0.141080         3.8390
  12   0.0000       0.174712         4.7542
  13   0.0000       0.189468         5.1557

MULLIKEN ATOMIC CHARGES
-----------------------
   0 C :    0.000482
   1 O :   -0.005157
   2 H :   -0.000744
   3 H :   -0.000337
   4 H :   -0.001862
   5 H :    0.000022
   6 C :   -0.158056
   7 O :   -0.451133
   8 H :    0.320463
   9 H :    0.083101
  10 H :    0.118571
  11 H :    0.094649
Sum of atomic charges:    0.0000000

LOEWDIN ATOMIC CHARGES
----------------------
   0 C :   -0.007021
   1 O :   -0.021599
   2 H :   -0.001605
   3 H :   -0.000181
   4 H :   -0.002382
   5 H :   -0.000081
   6 C :   -0.431772
   7 O :   -0.022619
   8 H :    0.194063
   9 H :    0.097384
  10 H :    0.102817
  11 H :    0.092996

  Mayer bond orders larger than 0.1
B(  6-C ,  7-O ) :   1.0093 B(  6-C ,  9-H ) :   0.9814 B(  6-C , 10-H ) :   0.9703
B(  6-C , 11-H ) :   0.9876 B(  7-O ,  8-H ) :   0.8960

Dispersion correction           -0.000211084
FINAL SINGLE POINT ENERGY      -115.732273164073

DIPOLE MOMENT
-------------
                                X             Y             Z
Electronic contribution:      1.37640       0.05136      -1.29330
Nuclear contribution   :     -1.73237      -0.56321       1.42304
                        -----------------------------------------
Total Dipole Moment    :     -0.35597      -0.51185       0.12974
                        -----------------------------------------
Magnitude (a.u.)       :      0.63682
Magnitude (Debye)      :      1.61866

Rotational constants in cm-1:     4.310179     0.889003     0.858573
Rotational constants in MHz : 129215.916250 26651.633069 25739.367191

                             ****ORCA TERMINATED NORMALLY****
TOTAL RUN TIME: 0 days 0 hours 1 minutes 8 seconds 467 msec
