                         Program Version 4.1.2  - RELEASE  -
|  1> #Run DFT-D3 single point of the dimer
|  2> ! wB97X-D3 def2-TZVP TIGHTSCF CHELPG PMODEL PAL8
|  3>
|  4> %base "19-9_DFT_AB"
|  5>
|  6> %scf
|  7> MaxIter 1000
|  8> end
|  9>
| 10> * xyz 0 1
| 11>   C                      -7.667179            -9.209066            3.339312
| 12>   O                      -8.331323            -9.779651            4.428187
| 13>   H                      -8.630029            -10.674345           4.174091
| 14>   H                      -6.594837            -9.317972            3.473686
| 15>   H                      -7.952272            -9.648018            2.417688
| 16>   H                      -7.931544            -8.142269            3.023550
| 17>   C                      -3.557479            -7.362390            3.519988
| 18>   O                      -2.721320            -8.442508            3.756280
| 19>   H                      -2.822372            -9.065009            3.006001
| 20>   H                      -3.327990            -6.455389            4.137939
| 21>   H                      -3.609330            -6.983526            2.487599
| 22>   H                      -4.582899            -7.558906            3.878854
| 23> *
| 24>
| 25> #Run DFT-D3 single point of the molecule with dimer basis set
| 26> $new_job
| 27> %base "19-9_DFT_A"
| 28> ! wB97X-D3 def2-TZVP TIGHTSCF CHELPG PMODEL
| 29>
| 30> %scf
| 31> MaxIter 1000
| 32> end
| 33>
| 34> * xyz 0 1
| 35>   C                      -7.667179            -9.209066            3.339312
| 36>   O                      -8.331323            -9.779651            4.428187
| 37>   H                      -8.630029            -10.674345           4.174091
| 38>   H                      -6.594837            -9.317972            3.473686
| 39>   H                      -7.952272            -9.648018            2.417688
| 40>   H                      -7.931544            -8.142269            3.023550
| 41>   C                    : -3.557479            -7.362390            3.519988
| 42>   O                    : -2.721320            -8.442508            3.756280
| 43>   H                    : -2.822372            -9.065009            3.006001
| 44>   H                    : -3.327990            -6.455389            4.137939
| 45>   H                    : -3.609330            -6.983526            2.487599
| 46>   H                    : -4.582899            -7.558906            3.878854
| 47> *
| 48>
| 49> #Run DFT-D3 single point of the particle with dimer basis set
| 50> $new_job
| 51> %base "19-9_DFT_B"
| 52> ! wB97X-D3 def2-TZVP TIGHTSCF CHELPG PMODEL
| 53>
| 54> %scf
| 55> MaxIter 1000
| 56> end
| 57>
| 58> * xyz 0 1
| 59>   C                    : -7.667179            -9.209066            3.339312
| 60>   O                    : -8.331323            -9.779651            4.428187
| 61>   H                    : -8.630029            -10.674345           4.174091
| 62>   H                    : -6.594837            -9.317972            3.473686
| 63>   H                    : -7.952272            -9.648018            2.417688
| 64>   H                    : -7.931544            -8.142269            3.023550
| 65>   C                      -3.557479            -7.362390            3.519988
| 66>   O                      -2.721320            -8.442508            3.756280
| 67>   H                      -2.822372            -9.065009            3.006001
| 68>   H                      -3.327990            -6.455389            4.137939
| 69>   H                      -3.609330            -6.983526            2.487599
| 70>   H                      -4.582899            -7.558906            3.878854
| 71> *
| 72>
| 73>                          ****END OF INPUT****
 Total Charge           Charge          ....    0
 Multiplicity           Mult            ....    1
 Number of Electrons    NEL             ....   36
Dispersion correction           -0.001116797
FINAL SINGLE POINT ENERGY      -231.459505880313
Dispersion correction           -0.000250984
FINAL SINGLE POINT ENERGY      -115.726836131069

CARTESIAN COORDINATES (ANGSTROEM)
---------------------------------
  C     -7.667179   -9.209066    3.339312
  O     -8.331323   -9.779651    4.428187
  H     -8.630029  -10.674345    4.174091
  H     -6.594837   -9.317972    3.473686
  H     -7.952272   -9.648018    2.417688
  H     -7.931544   -8.142269    3.023550
  C     -3.557479   -7.362390    3.519988
  O     -2.721320   -8.442508    3.756280
  H     -2.822372   -9.065009    3.006001
  H     -3.327990   -6.455389    4.137939
  H     -3.609330   -6.983526    2.487599
  H     -4.582899   -7.558906    3.878854

 Multiplicity           Mult            ....    1
 Number of Electrons    NEL             ....   18
 Basis Dimension        Dim             ....  172

ORBITAL ENERGIES
----------------

  NO   OCC          E(Eh)            E(eV)
   0   2.0000     -19.236795      -523.4598
   1   2.0000     -10.314782      -280.6795
   2   2.0000      -1.143810       -31.1247
   3   2.0000      -0.791756       -21.5448
   4   2.0000      -0.615758       -16.7556
   5   2.0000      -0.541520       -14.7355
   6   2.0000      -0.529061       -14.3965
   7   2.0000      -0.429413       -11.6849
   8   2.0000      -0.371933       -10.1208
   9   0.0000       0.083981         2.2852
  10   0.0000       0.115301         3.1375
  11   0.0000       0.145291         3.9536
  12   0.0000       0.170170         4.6306
  13   0.0000       0.186710         5.0806

MULLIKEN ATOMIC CHARGES
-----------------------
   0 C :   -0.003805
   1 O :    0.000058
   2 H :    0.000010
   3 H :    0.004718
   4 H :    0.000147
   5 H :    0.000013
   6 C :   -0.173743
   7 O :   -0.463405
   8 H :    0.321531
   9 H :    0.115453
  10 H :    0.104373
  11 H :    0.094651
Sum of atomic charges:    0.0000000

LOEWDIN ATOMIC CHARGES
----------------------
   0 C :   -0.001922
   1 O :   -0.000005
   2 H :   -0.000003
   3 H :   -0.001575
   4 H :   -0.000013
   5 H :   -0.000204
   6 C :   -0.424556
   7 O :   -0.060852
   8 H :    0.186779
   9 H :    0.112246
  10 H :    0.095350
  11 H :    0.094754

  Mayer bond orders larger than 0.1
B(  6-C ,  7-O ) :   1.0140 B(  6-C ,  9-H ) :   0.9731 B(  6-C , 10-H ) :   0.9748
B(  6-C , 11-H ) :   0.9776 B(  7-O ,  8-H ) :   0.8921

Dispersion correction           -0.000255659
FINAL SINGLE POINT ENERGY      -115.732324659544

DIPOLE MOMENT
-------------
                                X             Y             Z
Electronic contribution:      1.28871      -1.49710       0.34747
Nuclear contribution   :     -1.65294       1.51323      -0.90785
                        -----------------------------------------
Total Dipole Moment    :     -0.36423       0.01614      -0.56038
                        -----------------------------------------
Magnitude (a.u.)       :      0.66854
Magnitude (Debye)      :      1.69929

Rotational constants in cm-1:     4.355676     0.840539     0.808754
Rotational constants in MHz : 130579.869235 25198.728197 24245.844543

                             ****ORCA TERMINATED NORMALLY****
TOTAL RUN TIME: 0 days 0 hours 0 minutes 52 seconds 402 msec
