                         Program Version 4.1.2  - RELEASE  -
|  1> #Run DFT-D3 single point of the dimer
|  2> ! wB97X-D3 def2-TZVP TIGHTSCF CHELPG PMODEL PAL8
|  3>
|  4> %base "18-171_DFT_AB"
|  5>
|  6> %scf
|  7> MaxIter 1000
|  8> end
|  9>
| 10> * xyz 0 1
| 11>   C                      -3.115504            7.001241             2.301586
| 12>   O                      -3.053146            6.462424             0.964257
| 13>   H                      -2.899011            7.214064             0.348305
| 14>   H                      -3.798502            7.837995             2.319530
| 15>   H                      -3.430143            6.398298             3.171585
| 16>   H                      -2.108414            7.378747             2.531896
| 17>   C                      -1.190909            10.327106            1.281165
| 18>   O                      -2.215405            10.697744            0.441225
| 19>   H                      -2.278766            9.994102             -0.216100
| 20>   H                      -0.267089            10.114509            0.636570
| 21>   H                      -1.034651            11.061205            2.086478
| 22>   H                      -1.474296            9.360939             1.762400
| 23> *
| 24>
| 25> #Run DFT-D3 single point of the molecule with dimer basis set
| 26> $new_job
| 27> %base "18-171_DFT_A"
| 28> ! wB97X-D3 def2-TZVP TIGHTSCF CHELPG PMODEL
| 29>
| 30> %scf
| 31> MaxIter 1000
| 32> end
| 33>
| 34> * xyz 0 1
| 35>   C                      -3.115504            7.001241             2.301586
| 36>   O                      -3.053146            6.462424             0.964257
| 37>   H                      -2.899011            7.214064             0.348305
| 38>   H                      -3.798502            7.837995             2.319530
| 39>   H                      -3.430143            6.398298             3.171585
| 40>   H                      -2.108414            7.378747             2.531896
| 41>   C                    : -1.190909            10.327106            1.281165
| 42>   O                    : -2.215405            10.697744            0.441225
| 43>   H                    : -2.278766            9.994102             -0.216100
| 44>   H                    : -0.267089            10.114509            0.636570
| 45>   H                    : -1.034651            11.061205            2.086478
| 46>   H                    : -1.474296            9.360939             1.762400
| 47> *
| 48>
| 49> #Run DFT-D3 single point of the particle with dimer basis set
| 50> $new_job
| 51> %base "18-171_DFT_B"
| 52> ! wB97X-D3 def2-TZVP TIGHTSCF CHELPG PMODEL
| 53>
| 54> %scf
| 55> MaxIter 1000
| 56> end
| 57>
| 58> * xyz 0 1
| 59>   C                    : -3.115504            7.001241             2.301586
| 60>   O                    : -3.053146            6.462424             0.964257
| 61>   H                    : -2.899011            7.214064             0.348305
| 62>   H                    : -3.798502            7.837995             2.319530
| 63>   H                    : -3.430143            6.398298             3.171585
| 64>   H                    : -2.108414            7.378747             2.531896
| 65>   C                      -1.190909            10.327106            1.281165
| 66>   O                      -2.215405            10.697744            0.441225
| 67>   H                      -2.278766            9.994102             -0.216100
| 68>   H                      -0.267089            10.114509            0.636570
| 69>   H                      -1.034651            11.061205            2.086478
| 70>   H                      -1.474296            9.360939             1.762400
| 71> *
| 72>
| 73>                          ****END OF INPUT****
 Total Charge           Charge          ....    0
 Multiplicity           Mult            ....    1
 Number of Electrons    NEL             ....   36
Dispersion correction           -0.001815672
FINAL SINGLE POINT ENERGY      -231.458976562673
Dispersion correction           -0.000249049
FINAL SINGLE POINT ENERGY      -115.727641519453

CARTESIAN COORDINATES (ANGSTROEM)
---------------------------------
  C     -3.115504    7.001241    2.301586
  O     -3.053146    6.462424    0.964257
  H     -2.899011    7.214064    0.348305
  H     -3.798502    7.837995    2.319530
  H     -3.430143    6.398298    3.171585
  H     -2.108414    7.378747    2.531896
  C     -1.190909   10.327106    1.281165
  O     -2.215405   10.697744    0.441225
  H     -2.278766    9.994102   -0.216100
  H     -0.267089   10.114509    0.636570
  H     -1.034651   11.061205    2.086478
  H     -1.474296    9.360939    1.762400

 Multiplicity           Mult            ....    1
 Number of Electrons    NEL             ....   18
 Basis Dimension        Dim             ....  172

ORBITAL ENERGIES
----------------

  NO   OCC          E(Eh)            E(eV)
   0   2.0000     -19.229929      -523.2730
   1   2.0000     -10.319135      -280.7979
   2   2.0000      -1.150441       -31.3051
   3   2.0000      -0.785167       -21.3655
   4   2.0000      -0.614846       -16.7308
   5   2.0000      -0.543701       -14.7949
   6   2.0000      -0.534140       -14.5347
   7   2.0000      -0.433357       -11.7922
   8   2.0000      -0.366069        -9.9613
   9   0.0000       0.077256         2.1023
  10   0.0000       0.122667         3.3379
  11   0.0000       0.152731         4.1560
  12   0.0000       0.173537         4.7222
  13   0.0000       0.192445         5.2367

MULLIKEN ATOMIC CHARGES
-----------------------
   0 C :    0.005065
   1 O :   -0.000507
   2 H :   -0.000939
   3 H :   -0.000583
   4 H :    0.000540
   5 H :   -0.002536
   6 C :   -0.153160
   7 O :   -0.461481
   8 H :    0.317854
   9 H :    0.095212
  10 H :    0.120613
  11 H :    0.079922
Sum of atomic charges:    0.0000000

LOEWDIN ATOMIC CHARGES
----------------------
   0 C :   -0.005900
   1 O :   -0.000069
   2 H :   -0.001136
   3 H :   -0.000663
   4 H :   -0.000021
   5 H :   -0.007208
   6 C :   -0.419007
   7 O :   -0.053681
   8 H :    0.176917
   9 H :    0.101513
  10 H :    0.109276
  11 H :    0.099979

  Mayer bond orders larger than 0.1
B(  6-C ,  7-O ) :   0.9963 B(  6-C ,  9-H ) :   0.9859 B(  6-C , 10-H ) :   0.9678
B(  6-C , 11-H ) :   0.9809 B(  7-O ,  8-H ) :   0.8975

Dispersion correction           -0.000208839
FINAL SINGLE POINT ENERGY      -115.731663277663

DIPOLE MOMENT
-------------
                                X             Y             Z
Electronic contribution:     -1.36447       0.76780      -0.96477
Nuclear contribution   :      1.67343      -1.32917       0.86658
                        -----------------------------------------
Total Dipole Moment    :      0.30896      -0.56137      -0.09819
                        -----------------------------------------
Magnitude (a.u.)       :      0.64825
Magnitude (Debye)      :      1.64773

Rotational constants in cm-1:     4.031760     0.877869     0.838265
Rotational constants in MHz : 120869.136980 26317.845971 25130.556121

                             ****ORCA TERMINATED NORMALLY****
TOTAL RUN TIME: 0 days 0 hours 0 minutes 58 seconds 254 msec
