                         Program Version 4.1.2  - RELEASE  -
|  1> #Run DFT-D3 single point of the dimer
|  2> ! wB97X-D3 def2-TZVP TIGHTSCF CHELPG PMODEL PAL8
|  3>
|  4> %base "16-159_DFT_AB"
|  5>
|  6> %scf
|  7> MaxIter 1000
|  8> end
|  9>
| 10> * xyz 0 1
| 11>   C                      -5.781501            -5.319190            -2.092413
| 12>   O                      -5.712247            -6.053322            -3.296553
| 13>   H                      -6.555143            -6.160508            -3.721351
| 14>   H                      -4.870997            -4.785849            -1.919133
| 15>   H                      -6.527429            -4.506636            -2.203879
| 16>   H                      -6.080904            -5.932525            -1.301576
| 17>   C                      -8.143978            -6.388910            -5.973542
| 18>   O                      -8.120722            -5.771291            -4.736894
| 19>   H                      -8.424341            -4.836239            -4.837612
| 20>   H                      -8.094001            -7.457910            -5.794814
| 21>   H                      -9.053335            -6.044423            -6.514910
| 22>   H                      -7.270860            -6.161837            -6.612663
| 23> *
| 24>
| 25> #Run DFT-D3 single point of the molecule with dimer basis set
| 26> $new_job
| 27> %base "16-159_DFT_A"
| 28> ! wB97X-D3 def2-TZVP TIGHTSCF CHELPG PMODEL
| 29>
| 30> %scf
| 31> MaxIter 1000
| 32> end
| 33>
| 34> * xyz 0 1
| 35>   C                      -5.781501            -5.319190            -2.092413
| 36>   O                      -5.712247            -6.053322            -3.296553
| 37>   H                      -6.555143            -6.160508            -3.721351
| 38>   H                      -4.870997            -4.785849            -1.919133
| 39>   H                      -6.527429            -4.506636            -2.203879
| 40>   H                      -6.080904            -5.932525            -1.301576
| 41>   C                    : -8.143978            -6.388910            -5.973542
| 42>   O                    : -8.120722            -5.771291            -4.736894
| 43>   H                    : -8.424341            -4.836239            -4.837612
| 44>   H                    : -8.094001            -7.457910            -5.794814
| 45>   H                    : -9.053335            -6.044423            -6.514910
| 46>   H                    : -7.270860            -6.161837            -6.612663
| 47> *
| 48>
| 49> #Run DFT-D3 single point of the particle with dimer basis set
| 50> $new_job
| 51> %base "16-159_DFT_B"
| 52> ! wB97X-D3 def2-TZVP TIGHTSCF CHELPG PMODEL
| 53>
| 54> %scf
| 55> MaxIter 1000
| 56> end
| 57>
| 58> * xyz 0 1
| 59>   C                    : -5.781501            -5.319190            -2.092413
| 60>   O                    : -5.712247            -6.053322            -3.296553
| 61>   H                    : -6.555143            -6.160508            -3.721351
| 62>   H                    : -4.870997            -4.785849            -1.919133
| 63>   H                    : -6.527429            -4.506636            -2.203879
| 64>   H                    : -6.080904            -5.932525            -1.301576
| 65>   C                      -8.143978            -6.388910            -5.973542
| 66>   O                      -8.120722            -5.771291            -4.736894
| 67>   H                      -8.424341            -4.836239            -4.837612
| 68>   H                      -8.094001            -7.457910            -5.794814
| 69>   H                      -9.053335            -6.044423            -6.514910
| 70>   H                      -7.270860            -6.161837            -6.612663
| 71> *
| 72>
| 73>                          ****END OF INPUT****
 Total Charge           Charge          ....    0
 Multiplicity           Mult            ....    1
 Number of Electrons    NEL             ....   36
Dispersion correction           -0.001721326
FINAL SINGLE POINT ENERGY      -231.474682996381
Dispersion correction           -0.000235088
FINAL SINGLE POINT ENERGY      -115.733088453989

CARTESIAN COORDINATES (ANGSTROEM)
---------------------------------
  C     -5.781501   -5.319190   -2.092413
  O     -5.712247   -6.053322   -3.296553
  H     -6.555143   -6.160508   -3.721351
  H     -4.870997   -4.785849   -1.919133
  H     -6.527429   -4.506636   -2.203879
  H     -6.080904   -5.932525   -1.301576
  C     -8.143978   -6.388910   -5.973542
  O     -8.120722   -5.771291   -4.736894
  H     -8.424341   -4.836239   -4.837612
  H     -8.094001   -7.457910   -5.794814
  H     -9.053335   -6.044423   -6.514910
  H     -7.270860   -6.161837   -6.612663

 Multiplicity           Mult            ....    1
 Number of Electrons    NEL             ....   18
 Basis Dimension        Dim             ....  172

ORBITAL ENERGIES
----------------

  NO   OCC          E(Eh)            E(eV)
   0   2.0000     -19.232071      -523.3313
   1   2.0000     -10.312612      -280.6204
   2   2.0000      -1.141484       -31.0614
   3   2.0000      -0.789989       -21.4967
   4   2.0000      -0.614576       -16.7235
   5   2.0000      -0.544181       -14.8079
   6   2.0000      -0.530075       -14.4241
   7   2.0000      -0.432190       -11.7605
   8   2.0000      -0.368547       -10.0287
   9   0.0000       0.096196         2.6176
  10   0.0000       0.121299         3.3007
  11   0.0000       0.152237         4.1426
  12   0.0000       0.188286         5.1235
  13   0.0000       0.201074         5.4715

MULLIKEN ATOMIC CHARGES
-----------------------
   0 C :    0.001270
   1 O :   -0.002931
   2 H :   -0.001991
   3 H :    0.000017
   4 H :   -0.002521
   5 H :   -0.000483
   6 C :   -0.159207
   7 O :   -0.473449
   8 H :    0.318271
   9 H :    0.122701
  10 H :    0.100969
  11 H :    0.097352
Sum of atomic charges:   -0.0000000

LOEWDIN ATOMIC CHARGES
----------------------
   0 C :   -0.003588
   1 O :   -0.007297
   2 H :   -0.044595
   3 H :   -0.000036
   4 H :   -0.001153
   5 H :   -0.000084
   6 C :   -0.410310
   7 O :   -0.022762
   8 H :    0.187826
   9 H :    0.107879
  10 H :    0.100583
  11 H :    0.093538

  Mayer bond orders larger than 0.1
B(  6-C ,  7-O ) :   0.9871 B(  6-C ,  9-H ) :   0.9773 B(  6-C , 10-H ) :   0.9791
B(  6-C , 11-H ) :   0.9695 B(  7-O ,  8-H ) :   0.8907

Dispersion correction           -0.000230313
FINAL SINGLE POINT ENERGY      -115.734029232107

DIPOLE MOMENT
-------------
                                X             Y             Z
Electronic contribution:      0.05092       0.63419       1.67535
Nuclear contribution   :     -0.26195      -0.28778      -2.19807
                        -----------------------------------------
Total Dipole Moment    :     -0.21103       0.34641      -0.52272
                        -----------------------------------------
Magnitude (a.u.)       :      0.66164
Magnitude (Debye)      :      1.68176

Rotational constants in cm-1:     4.178163     0.867965     0.826000
Rotational constants in MHz : 125258.185563 26020.938223 24762.856294

                             ****ORCA TERMINATED NORMALLY****
TOTAL RUN TIME: 0 days 0 hours 1 minutes 2 seconds 512 msec
