                         Program Version 4.1.2  - RELEASE  -
|  1> #Run DFT-D3 single point of the dimer
|  2> ! wB97X-D3 def2-TZVP TIGHTSCF CHELPG PMODEL PAL8
|  3>
|  4> %base "5-169_DFT_AB"
|  5>
|  6> %scf
|  7> MaxIter 1000
|  8> end
|  9>
| 10> * xyz 0 1
| 11>   C                      1.407148             4.682785             -1.985167
| 12>   O                      0.389347             3.689952             -1.839461
| 13>   H                      0.932256             2.871912             -1.913617
| 14>   H                      2.081969             4.400590             -2.813521
| 15>   H                      0.881962             5.514447             -2.269096
| 16>   H                      1.978033             4.889483             -1.053356
| 17>   C                      1.586198             3.064769             1.258012
| 18>   O                      2.942958             3.362784             1.580281
| 19>   H                      3.444564             3.670223             0.817226
| 20>   H                      1.019516             3.962641             1.026956
| 21>   H                      1.526199             2.411293             0.366586
| 22>   H                      0.905983             2.694856             2.019195
| 23> *
| 24>
| 25> #Run DFT-D3 single point of the molecule with dimer basis set
| 26> $new_job
| 27> %base "5-169_DFT_A"
| 28> ! wB97X-D3 def2-TZVP TIGHTSCF CHELPG PMODEL
| 29>
| 30> %scf
| 31> MaxIter 1000
| 32> end
| 33>
| 34> * xyz 0 1
| 35>   C                      1.407148             4.682785             -1.985167
| 36>   O                      0.389347             3.689952             -1.839461
| 37>   H                      0.932256             2.871912             -1.913617
| 38>   H                      2.081969             4.400590             -2.813521
| 39>   H                      0.881962             5.514447             -2.269096
| 40>   H                      1.978033             4.889483             -1.053356
| 41>   C                    : 1.586198             3.064769             1.258012
| 42>   O                    : 2.942958             3.362784             1.580281
| 43>   H                    : 3.444564             3.670223             0.817226
| 44>   H                    : 1.019516             3.962641             1.026956
| 45>   H                    : 1.526199             2.411293             0.366586
| 46>   H                    : 0.905983             2.694856             2.019195
| 47> *
| 48>
| 49> #Run DFT-D3 single point of the particle with dimer basis set
| 50> $new_job
| 51> %base "5-169_DFT_B"
| 52> ! wB97X-D3 def2-TZVP TIGHTSCF CHELPG PMODEL
| 53>
| 54> %scf
| 55> MaxIter 1000
| 56> end
| 57>
| 58> * xyz 0 1
| 59>   C                    : 1.407148             4.682785             -1.985167
| 60>   O                    : 0.389347             3.689952             -1.839461
| 61>   H                    : 0.932256             2.871912             -1.913617
| 62>   H                    : 2.081969             4.400590             -2.813521
| 63>   H                    : 0.881962             5.514447             -2.269096
| 64>   H                    : 1.978033             4.889483             -1.053356
| 65>   C                      1.586198             3.064769             1.258012
| 66>   O                      2.942958             3.362784             1.580281
| 67>   H                      3.444564             3.670223             0.817226
| 68>   H                      1.019516             3.962641             1.026956
| 69>   H                      1.526199             2.411293             0.366586
| 70>   H                      0.905983             2.694856             2.019195
| 71> *
| 72>
| 73>                          ****END OF INPUT****
 Total Charge           Charge          ....    0
 Multiplicity           Mult            ....    1
 Number of Electrons    NEL             ....   36
Dispersion correction           -0.002263705
FINAL SINGLE POINT ENERGY      -231.459083829818
Dispersion correction           -0.000223118
FINAL SINGLE POINT ENERGY      -115.730576873136

CARTESIAN COORDINATES (ANGSTROEM)
---------------------------------
  C      1.407148    4.682785   -1.985167
  O      0.389347    3.689952   -1.839461
  H      0.932256    2.871912   -1.913617
  H      2.081969    4.400590   -2.813521
  H      0.881962    5.514447   -2.269096
  H      1.978033    4.889483   -1.053356
  C      1.586198    3.064769    1.258012
  O      2.942958    3.362784    1.580281
  H      3.444564    3.670223    0.817226
  H      1.019516    3.962641    1.026956
  H      1.526199    2.411293    0.366586
  H      0.905983    2.694856    2.019195

 Multiplicity           Mult            ....    1
 Number of Electrons    NEL             ....   18
 Basis Dimension        Dim             ....  172

ORBITAL ENERGIES
----------------

  NO   OCC          E(Eh)            E(eV)
   0   2.0000     -19.231479      -523.3152
   1   2.0000     -10.315099      -280.6881
   2   2.0000      -1.129859       -30.7450
   3   2.0000      -0.801565       -21.8117
   4   2.0000      -0.611286       -16.6339
   5   2.0000      -0.545194       -14.8355
   6   2.0000      -0.524042       -14.2599
   7   2.0000      -0.424831       -11.5602
   8   2.0000      -0.372646       -10.1402
   9   0.0000       0.078057         2.1240
  10   0.0000       0.125298         3.4095
  11   0.0000       0.147949         4.0259
  12   0.0000       0.164005         4.4628
  13   0.0000       0.191116         5.2005

MULLIKEN ATOMIC CHARGES
-----------------------
   0 C :   -0.002371
   1 O :   -0.001148
   2 H :   -0.001265
   3 H :   -0.000117
   4 H :    0.000522
   5 H :    0.000260
   6 C :   -0.172160
   7 O :   -0.483889
   8 H :    0.322514
   9 H :    0.101672
  10 H :    0.104052
  11 H :    0.131931
Sum of atomic charges:   -0.0000000

LOEWDIN ATOMIC CHARGES
----------------------
   0 C :   -0.007008
   1 O :   -0.003315
   2 H :   -0.004409
   3 H :   -0.000059
   4 H :   -0.000068
   5 H :   -0.004196
   6 C :   -0.376251
   7 O :   -0.085386
   8 H :    0.171609
   9 H :    0.096855
  10 H :    0.102257
  11 H :    0.109972

  Mayer bond orders larger than 0.1
B(  6-C ,  7-O ) :   0.9945 B(  6-C ,  9-H ) :   0.9778 B(  6-C , 10-H ) :   0.9830
B(  6-C , 11-H ) :   0.9667 B(  7-O ,  8-H ) :   0.8926

Dispersion correction           -0.000267075
FINAL SINGLE POINT ENERGY      -115.727937723887

DIPOLE MOMENT
-------------
                                X             Y             Z
Electronic contribution:      1.82578       0.25467       0.65109
Nuclear contribution   :     -2.08020      -0.16282      -1.25891
                        -----------------------------------------
Total Dipole Moment    :     -0.25442       0.09185      -0.60782
                        -----------------------------------------
Magnitude (a.u.)       :      0.66529
Magnitude (Debye)      :      1.69103

Rotational constants in cm-1:     4.565972     0.800397     0.773425
Rotational constants in MHz : 136884.400373 23995.305398 23186.710060

                             ****ORCA TERMINATED NORMALLY****
TOTAL RUN TIME: 0 days 0 hours 0 minutes 56 seconds 771 msec
