                         Program Version 4.1.2  - RELEASE  -
|  1> #Run DFT-D3 single point of the dimer
|  2> ! wB97X-D3 def2-TZVP TIGHTSCF CHELPG PMODEL PAL8
|  3>
|  4> %base "13-195_DFT_AB"
|  5>
|  6> %scf
|  7> MaxIter 1000
|  8> end
|  9>
| 10> * xyz 0 1
| 11>   C                      7.290253             -9.054922            -10.074489
| 12>   O                      7.748925             -9.996498            -10.992107
| 13>   H                      8.733493             -9.932072            -10.898153
| 14>   H                      6.194613             -8.997861            -10.159293
| 15>   H                      7.561863             -9.324519            -9.050190
| 16>   H                      7.677950             -8.070661            -10.304232
| 17>   C                      11.131063            -10.118161           -11.327609
| 18>   O                      10.422898            -9.446828            -10.378451
| 19>   H                      11.022477            -9.343888            -9.615207
| 20>   H                      10.498828            -10.682776           -11.989809
| 21>   H                      11.814692            -9.366196            -11.897765
| 22>   H                      11.764836            -10.897346           -10.847406
| 23> *
| 24>
| 25> #Run DFT-D3 single point of the molecule with dimer basis set
| 26> $new_job
| 27> %base "13-195_DFT_A"
| 28> ! wB97X-D3 def2-TZVP TIGHTSCF CHELPG PMODEL
| 29>
| 30> %scf
| 31> MaxIter 1000
| 32> end
| 33>
| 34> * xyz 0 1
| 35>   C                      7.290253             -9.054922            -10.074489
| 36>   O                      7.748925             -9.996498            -10.992107
| 37>   H                      8.733493             -9.932072            -10.898153
| 38>   H                      6.194613             -8.997861            -10.159293
| 39>   H                      7.561863             -9.324519            -9.050190
| 40>   H                      7.677950             -8.070661            -10.304232
| 41>   C                    : 11.131063            -10.118161           -11.327609
| 42>   O                    : 10.422898            -9.446828            -10.378451
| 43>   H                    : 11.022477            -9.343888            -9.615207
| 44>   H                    : 10.498828            -10.682776           -11.989809
| 45>   H                    : 11.814692            -9.366196            -11.897765
| 46>   H                    : 11.764836            -10.897346           -10.847406
| 47> *
| 48>
| 49> #Run DFT-D3 single point of the particle with dimer basis set
| 50> $new_job
| 51> %base "13-195_DFT_B"
| 52> ! wB97X-D3 def2-TZVP TIGHTSCF CHELPG PMODEL
| 53>
| 54> %scf
| 55> MaxIter 1000
| 56> end
| 57>
| 58> * xyz 0 1
| 59>   C                    : 7.290253             -9.054922            -10.074489
| 60>   O                    : 7.748925             -9.996498            -10.992107
| 61>   H                    : 8.733493             -9.932072            -10.898153
| 62>   H                    : 6.194613             -8.997861            -10.159293
| 63>   H                    : 7.561863             -9.324519            -9.050190
| 64>   H                    : 7.677950             -8.070661            -10.304232
| 65>   C                      11.131063            -10.118161           -11.327609
| 66>   O                      10.422898            -9.446828            -10.378451
| 67>   H                      11.022477            -9.343888            -9.615207
| 68>   H                      10.498828            -10.682776           -11.989809
| 69>   H                      11.814692            -9.366196            -11.897765
| 70>   H                      11.764836            -10.897346           -10.847406
| 71> *
| 72>
| 73>                          ****END OF INPUT****
 Total Charge           Charge          ....    0
 Multiplicity           Mult            ....    1
 Number of Electrons    NEL             ....   36
Dispersion correction           -0.001907493
FINAL SINGLE POINT ENERGY      -231.472209762426
Dispersion correction           -0.000212622
FINAL SINGLE POINT ENERGY      -115.735344209331

CARTESIAN COORDINATES (ANGSTROEM)
---------------------------------
  C      7.290253   -9.054922  -10.074489
  O      7.748925   -9.996498  -10.992107
  H      8.733493   -9.932072  -10.898153
  H      6.194613   -8.997861  -10.159293
  H      7.561863   -9.324519   -9.050190
  H      7.677950   -8.070661  -10.304232
  C     11.131063  -10.118161  -11.327609
  O     10.422898   -9.446828  -10.378451
  H     11.022477   -9.343888   -9.615207
  H     10.498828  -10.682776  -11.989809
  H     11.814692   -9.366196  -11.897765
  H     11.764836  -10.897346  -10.847406

 Multiplicity           Mult            ....    1
 Number of Electrons    NEL             ....   18
 Basis Dimension        Dim             ....  172

ORBITAL ENERGIES
----------------

  NO   OCC          E(Eh)            E(eV)
   0   2.0000     -19.233104      -523.3594
   1   2.0000     -10.316843      -280.7356
   2   2.0000      -1.153995       -31.4018
   3   2.0000      -0.786553       -21.4032
   4   2.0000      -0.617601       -16.8058
   5   2.0000      -0.549553       -14.9541
   6   2.0000      -0.533005       -14.5038
   7   2.0000      -0.427942       -11.6449
   8   2.0000      -0.369451       -10.0533
   9   0.0000       0.098856         2.6900
  10   0.0000       0.124803         3.3961
  11   0.0000       0.152794         4.1577
  12   0.0000       0.188301         5.1239
  13   0.0000       0.194583         5.2949

MULLIKEN ATOMIC CHARGES
-----------------------
   0 C :    0.010630
   1 O :   -0.001150
   2 H :   -0.005045
   3 H :   -0.000333
   4 H :   -0.004455
   5 H :   -0.005103
   6 C :   -0.156058
   7 O :   -0.453600
   8 H :    0.317230
   9 H :    0.117638
  10 H :    0.086832
  11 H :    0.093414
Sum of atomic charges:    0.0000000

LOEWDIN ATOMIC CHARGES
----------------------
   0 C :   -0.011226
   1 O :   -0.005145
   2 H :   -0.042041
   3 H :   -0.000127
   4 H :   -0.001659
   5 H :   -0.002172
   6 C :   -0.426365
   7 O :    0.000323
   8 H :    0.186061
   9 H :    0.102985
  10 H :    0.103052
  11 H :    0.096314

  Mayer bond orders larger than 0.1
B(  6-C ,  7-O ) :   0.9986 B(  6-C ,  9-H ) :   0.9771 B(  6-C , 10-H ) :   0.9713
B(  6-C , 11-H ) :   0.9822 B(  7-O ,  8-H ) :   0.8926

Dispersion correction           -0.000220650
FINAL SINGLE POINT ENERGY      -115.730278468467

DIPOLE MOMENT
-------------
                                X             Y             Z
Electronic contribution:     -1.19256       0.89243       1.15187
Nuclear contribution   :      1.79430      -1.10342      -0.98441
                        -----------------------------------------
Total Dipole Moment    :      0.60174      -0.21099       0.16747
                        -----------------------------------------
Magnitude (a.u.)       :      0.65928
Magnitude (Debye)      :      1.67575

Rotational constants in cm-1:     4.081404     0.877142     0.855263
Rotational constants in MHz : 122357.423786 26296.042662 25640.135446

                             ****ORCA TERMINATED NORMALLY****
TOTAL RUN TIME: 0 days 0 hours 1 minutes 9 seconds 431 msec
