                         Program Version 4.1.2  - RELEASE  -
|  1> #Run DFT-D3 single point of the dimer
|  2> ! wB97X-D3 def2-TZVP TIGHTSCF CHELPG PMODEL PAL8
|  3>
|  4> %base "2-14_DFT_AB"
|  5>
|  6> %scf
|  7> MaxIter 1000
|  8> end
|  9>
| 10> * xyz 0 1
| 11>   C                      3.632446             -6.994954            3.184119
| 12>   O                      4.407674             -7.329784            1.949356
| 13>   H                      4.084722             -6.757850            1.277197
| 14>   H                      3.654814             -7.907382            3.783212
| 15>   H                      4.085916             -6.202538            3.691906
| 16>   H                      2.536765             -6.837212            2.963092
| 17>   C                      1.119483             -6.538144            -0.680068
| 18>   O                      0.417428             -7.307162            -1.618554
| 19>   H                      0.481454             -6.720103            -2.408740
| 20>   H                      2.192324             -6.606482            -0.857920
| 21>   H                      0.863229             -5.464750            -0.748779
| 22>   H                      0.923597             -6.843216            0.363821
| 23> *
| 24>
| 25> #Run DFT-D3 single point of the molecule with dimer basis set
| 26> $new_job
| 27> %base "2-14_DFT_A"
| 28> ! wB97X-D3 def2-TZVP TIGHTSCF CHELPG PMODEL
| 29>
| 30> %scf
| 31> MaxIter 1000
| 32> end
| 33>
| 34> * xyz 0 1
| 35>   C                      3.632446             -6.994954            3.184119
| 36>   O                      4.407674             -7.329784            1.949356
| 37>   H                      4.084722             -6.757850            1.277197
| 38>   H                      3.654814             -7.907382            3.783212
| 39>   H                      4.085916             -6.202538            3.691906
| 40>   H                      2.536765             -6.837212            2.963092
| 41>   C                    : 1.119483             -6.538144            -0.680068
| 42>   O                    : 0.417428             -7.307162            -1.618554
| 43>   H                    : 0.481454             -6.720103            -2.408740
| 44>   H                    : 2.192324             -6.606482            -0.857920
| 45>   H                    : 0.863229             -5.464750            -0.748779
| 46>   H                    : 0.923597             -6.843216            0.363821
| 47> *
| 48>
| 49> #Run DFT-D3 single point of the particle with dimer basis set
| 50> $new_job
| 51> %base "2-14_DFT_B"
| 52> ! wB97X-D3 def2-TZVP TIGHTSCF CHELPG PMODEL
| 53>
| 54> %scf
| 55> MaxIter 1000
| 56> end
| 57>
| 58> * xyz 0 1
| 59>   C                    : 3.632446             -6.994954            3.184119
| 60>   O                    : 4.407674             -7.329784            1.949356
| 61>   H                    : 4.084722             -6.757850            1.277197
| 62>   H                    : 3.654814             -7.907382            3.783212
| 63>   H                    : 4.085916             -6.202538            3.691906
| 64>   H                    : 2.536765             -6.837212            2.963092
| 65>   C                      1.119483             -6.538144            -0.680068
| 66>   O                      0.417428             -7.307162            -1.618554
| 67>   H                      0.481454             -6.720103            -2.408740
| 68>   H                      2.192324             -6.606482            -0.857920
| 69>   H                      0.863229             -5.464750            -0.748779
| 70>   H                      0.923597             -6.843216            0.363821
| 71> *
| 72>
| 73>                          ****END OF INPUT****
 Total Charge           Charge          ....    0
 Multiplicity           Mult            ....    1
 Number of Electrons    NEL             ....   36
Dispersion correction           -0.001259546
FINAL SINGLE POINT ENERGY      -231.464032489712
Dispersion correction           -0.000266601
FINAL SINGLE POINT ENERGY      -115.730500653059

CARTESIAN COORDINATES (ANGSTROEM)
---------------------------------
  C      3.632446   -6.994954    3.184119
  O      4.407674   -7.329784    1.949356
  H      4.084722   -6.757850    1.277197
  H      3.654814   -7.907382    3.783212
  H      4.085916   -6.202538    3.691906
  H      2.536765   -6.837212    2.963092
  C      1.119483   -6.538144   -0.680068
  O      0.417428   -7.307162   -1.618554
  H      0.481454   -6.720103   -2.408740
  H      2.192324   -6.606482   -0.857920
  H      0.863229   -5.464750   -0.748779
  H      0.923597   -6.843216    0.363821

 Multiplicity           Mult            ....    1
 Number of Electrons    NEL             ....   18
 Basis Dimension        Dim             ....  172

ORBITAL ENERGIES
----------------

  NO   OCC          E(Eh)            E(eV)
   0   2.0000     -19.235540      -523.4257
   1   2.0000     -10.313746      -280.6513
   2   2.0000      -1.141363       -31.0581
   3   2.0000      -0.788160       -21.4469
   4   2.0000      -0.610446       -16.6111
   5   2.0000      -0.542821       -14.7709
   6   2.0000      -0.527705       -14.3596
   7   2.0000      -0.439264       -11.9530
   8   2.0000      -0.372515       -10.1367
   9   0.0000       0.085039         2.3140
  10   0.0000       0.110402         3.0042
  11   0.0000       0.147659         4.0180
  12   0.0000       0.167297         4.5524
  13   0.0000       0.194798         5.3007

MULLIKEN ATOMIC CHARGES
-----------------------
   0 C :    0.000081
   1 O :    0.000118
   2 H :   -0.000831
   3 H :    0.000003
   4 H :   -0.000024
   5 H :   -0.000295
   6 C :   -0.186621
   7 O :   -0.456146
   8 H :    0.318144
   9 H :    0.106095
  10 H :    0.101729
  11 H :    0.117747
Sum of atomic charges:    0.0000000

LOEWDIN ATOMIC CHARGES
----------------------
   0 C :   -0.000359
   1 O :   -0.000097
   2 H :   -0.001885
   3 H :   -0.000002
   4 H :   -0.000001
   5 H :   -0.000706
   6 C :   -0.408362
   7 O :   -0.077748
   8 H :    0.191539
   9 H :    0.093179
  10 H :    0.095731
  11 H :    0.108711

  Mayer bond orders larger than 0.1
B(  6-C ,  7-O ) :   1.0005 B(  6-C ,  9-H ) :   0.9754 B(  6-C , 10-H ) :   0.9799
B(  6-C , 11-H ) :   0.9723 B(  7-O ,  8-H ) :   0.8976

Dispersion correction           -0.000219972
FINAL SINGLE POINT ENERGY      -115.733273587020

DIPOLE MOMENT
-------------
                                X             Y             Z
Electronic contribution:     -1.00351      -1.21121      -1.11610
Nuclear contribution   :      1.29609       1.85988       0.98818
                        -----------------------------------------
Total Dipole Moment    :      0.29258       0.64866      -0.12792
                        -----------------------------------------
Magnitude (a.u.)       :      0.72300
Magnitude (Debye)      :      1.83772

Rotational constants in cm-1:     4.187933     0.848688     0.811600
Rotational constants in MHz : 125551.065411 25443.034773 24331.145871

                             ****ORCA TERMINATED NORMALLY****
TOTAL RUN TIME: 0 days 0 hours 6 minutes 19 seconds 134 msec
