                         Program Version 4.1.2  - RELEASE  -
|  1> #Run DFT-D3 single point of the dimer
|  2> ! wB97X-D3 def2-TZVP TIGHTSCF CHELPG PMODEL PAL8
|  3>
|  4> %base "18-204_DFT_AB"
|  5>
|  6> %scf
|  7> MaxIter 1000
|  8> end
|  9>
| 10> * xyz 0 1
| 11>   C                      1.842494             -5.490414            4.222264
| 12>   O                      0.779058             -4.891262            4.888618
| 13>   H                      0.293986             -5.565972            5.331256
| 14>   H                      2.573357             -4.701865            3.988026
| 15>   H                      2.324572             -6.211238            4.978611
| 16>   H                      1.640042             -6.048494            3.297003
| 17>   C                      -2.821279            -4.018960            3.426932
| 18>   O                      -1.694309            -4.510608            4.047991
| 19>   H                      -0.937718            -4.038095            3.738168
| 20>   H                      -2.660955            -4.031095            2.353406
| 21>   H                      -3.755240            -4.648577            3.567780
| 22>   H                      -3.052784            -2.989722            3.669558
| 23> *
| 24>
| 25> #Run DFT-D3 single point of the molecule with dimer basis set
| 26> $new_job
| 27> %base "18-204_DFT_A"
| 28> ! wB97X-D3 def2-TZVP TIGHTSCF CHELPG PMODEL
| 29>
| 30> %scf
| 31> MaxIter 1000
| 32> end
| 33>
| 34> * xyz 0 1
| 35>   C                      1.842494             -5.490414            4.222264
| 36>   O                      0.779058             -4.891262            4.888618
| 37>   H                      0.293986             -5.565972            5.331256
| 38>   H                      2.573357             -4.701865            3.988026
| 39>   H                      2.324572             -6.211238            4.978611
| 40>   H                      1.640042             -6.048494            3.297003
| 41>   C                    : -2.821279            -4.018960            3.426932
| 42>   O                    : -1.694309            -4.510608            4.047991
| 43>   H                    : -0.937718            -4.038095            3.738168
| 44>   H                    : -2.660955            -4.031095            2.353406
| 45>   H                    : -3.755240            -4.648577            3.567780
| 46>   H                    : -3.052784            -2.989722            3.669558
| 47> *
| 48>
| 49> #Run DFT-D3 single point of the particle with dimer basis set
| 50> $new_job
| 51> %base "18-204_DFT_B"
| 52> ! wB97X-D3 def2-TZVP TIGHTSCF CHELPG PMODEL
| 53>
| 54> %scf
| 55> MaxIter 1000
| 56> end
| 57>
| 58> * xyz 0 1
| 59>   C                    : 1.842494             -5.490414            4.222264
| 60>   O                    : 0.779058             -4.891262            4.888618
| 61>   H                    : 0.293986             -5.565972            5.331256
| 62>   H                    : 2.573357             -4.701865            3.988026
| 63>   H                    : 2.324572             -6.211238            4.978611
| 64>   H                    : 1.640042             -6.048494            3.297003
| 65>   C                      -2.821279            -4.018960            3.426932
| 66>   O                      -1.694309            -4.510608            4.047991
| 67>   H                      -0.937718            -4.038095            3.738168
| 68>   H                      -2.660955            -4.031095            2.353406
| 69>   H                      -3.755240            -4.648577            3.567780
| 70>   H                      -3.052784            -2.989722            3.669558
| 71> *
| 72>
| 73>                          ****END OF INPUT****
 Total Charge           Charge          ....    0
 Multiplicity           Mult            ....    1
 Number of Electrons    NEL             ....   36
Dispersion correction           -0.001463896
FINAL SINGLE POINT ENERGY      -231.469481394213
Dispersion correction           -0.000239286
FINAL SINGLE POINT ENERGY      -115.733215859329

CARTESIAN COORDINATES (ANGSTROEM)
---------------------------------
  C      1.842494   -5.490414    4.222264
  O      0.779058   -4.891262    4.888618
  H      0.293986   -5.565972    5.331256
  H      2.573357   -4.701865    3.988026
  H      2.324572   -6.211238    4.978611
  H      1.640042   -6.048494    3.297003
  C     -2.821279   -4.018960    3.426932
  O     -1.694309   -4.510608    4.047991
  H     -0.937718   -4.038095    3.738168
  H     -2.660955   -4.031095    2.353406
  H     -3.755240   -4.648577    3.567780
  H     -3.052784   -2.989722    3.669558

 Multiplicity           Mult            ....    1
 Number of Electrons    NEL             ....   18
 Basis Dimension        Dim             ....  172

ORBITAL ENERGIES
----------------

  NO   OCC          E(Eh)            E(eV)
   0   2.0000     -19.230355      -523.2846
   1   2.0000     -10.312688      -280.6225
   2   2.0000      -1.151725       -31.3400
   3   2.0000      -0.795576       -21.6487
   4   2.0000      -0.623131       -16.9563
   5   2.0000      -0.545913       -14.8550
   6   2.0000      -0.532511       -14.4904
   7   2.0000      -0.428011       -11.6468
   8   2.0000      -0.372405       -10.1337
   9   0.0000       0.083988         2.2854
  10   0.0000       0.127071         3.4578
  11   0.0000       0.154637         4.2079
  12   0.0000       0.181137         4.9290
  13   0.0000       0.197496         5.3742

MULLIKEN ATOMIC CHARGES
-----------------------
   0 C :   -0.001304
   1 O :   -0.000788
   2 H :   -0.004123
   3 H :   -0.000001
   4 H :    0.000000
   5 H :   -0.000341
   6 C :   -0.173875
   7 O :   -0.452557
   8 H :    0.318954
   9 H :    0.099568
  10 H :    0.118083
  11 H :    0.096383
Sum of atomic charges:   -0.0000000

LOEWDIN ATOMIC CHARGES
----------------------
   0 C :   -0.002683
   1 O :   -0.015069
   2 H :   -0.007444
   3 H :   -0.000048
   4 H :   -0.000039
   5 H :   -0.000346
   6 C :   -0.415232
   7 O :   -0.027665
   8 H :    0.169858
   9 H :    0.092139
  10 H :    0.117363
  11 H :    0.089166

  Mayer bond orders larger than 0.1
B(  6-C ,  7-O ) :   1.0015 B(  6-C ,  9-H ) :   0.9861 B(  6-C , 10-H ) :   0.9706
B(  6-C , 11-H ) :   0.9738 B(  7-O ,  8-H ) :   0.8944

Dispersion correction           -0.000227561
FINAL SINGLE POINT ENERGY      -115.732800155115

DIPOLE MOMENT
-------------
                                X             Y             Z
Electronic contribution:      1.43967      -0.72835       1.01206
Nuclear contribution   :     -1.38334       1.21952      -1.46963
                        -----------------------------------------
Total Dipole Moment    :      0.05633       0.49117      -0.45757
                        -----------------------------------------
Magnitude (a.u.)       :      0.67364
Magnitude (Debye)      :      1.71225

Rotational constants in cm-1:     4.398391     0.859720     0.825497
Rotational constants in MHz : 131860.430756 25773.770942 24747.782847

                             ****ORCA TERMINATED NORMALLY****
TOTAL RUN TIME: 0 days 0 hours 1 minutes 6 seconds 35 msec
