                         Program Version 4.1.2  - RELEASE  -
|  1> #Run DFT-D3 single point of the dimer
|  2> ! wB97X-D3 def2-TZVP TIGHTSCF CHELPG PMODEL PAL8
|  3>
|  4> %base "8-137_DFT_AB"
|  5>
|  6> %scf
|  7> MaxIter 1000
|  8> end
|  9>
| 10> * xyz 0 1
| 11>   C                      -3.245610            4.766604             5.925738
| 12>   O                      -2.105204            5.526825             5.753957
| 13>   H                      -2.061038            5.470847             4.812791
| 14>   H                      -3.398093            4.514218             6.964937
| 15>   H                      -4.115643            5.335577             5.674308
| 16>   H                      -3.145554            3.834048             5.296263
| 17>   C                      0.794844             5.585761             5.034224
| 18>   O                      0.764898             4.962424             3.767976
| 19>   H                      1.396828             4.241649             3.749836
| 20>   H                      0.183799             6.494684             4.973592
| 21>   H                      0.403332             4.896322             5.844179
| 22>   H                      1.791000             5.834054             5.307899
| 23> *
| 24>
| 25> #Run DFT-D3 single point of the molecule with dimer basis set
| 26> $new_job
| 27> %base "8-137_DFT_A"
| 28> ! wB97X-D3 def2-TZVP TIGHTSCF CHELPG PMODEL
| 29>
| 30> %scf
| 31> MaxIter 1000
| 32> end
| 33>
| 34> * xyz 0 1
| 35>   C                      -3.245610            4.766604             5.925738
| 36>   O                      -2.105204            5.526825             5.753957
| 37>   H                      -2.061038            5.470847             4.812791
| 38>   H                      -3.398093            4.514218             6.964937
| 39>   H                      -4.115643            5.335577             5.674308
| 40>   H                      -3.145554            3.834048             5.296263
| 41>   C                    : 0.794844             5.585761             5.034224
| 42>   O                    : 0.764898             4.962424             3.767976
| 43>   H                    : 1.396828             4.241649             3.749836
| 44>   H                    : 0.183799             6.494684             4.973592
| 45>   H                    : 0.403332             4.896322             5.844179
| 46>   H                    : 1.791000             5.834054             5.307899
| 47> *
| 48>
| 49> #Run DFT-D3 single point of the particle with dimer basis set
| 50> $new_job
| 51> %base "8-137_DFT_B"
| 52> ! wB97X-D3 def2-TZVP TIGHTSCF CHELPG PMODEL
| 53>
| 54> %scf
| 55> MaxIter 1000
| 56> end
| 57>
| 58> * xyz 0 1
| 59>   C                    : -3.245610            4.766604             5.925738
| 60>   O                    : -2.105204            5.526825             5.753957
| 61>   H                    : -2.061038            5.470847             4.812791
| 62>   H                    : -3.398093            4.514218             6.964937
| 63>   H                    : -4.115643            5.335577             5.674308
| 64>   H                    : -3.145554            3.834048             5.296263
| 65>   C                      0.794844             5.585761             5.034224
| 66>   O                      0.764898             4.962424             3.767976
| 67>   H                      1.396828             4.241649             3.749836
| 68>   H                      0.183799             6.494684             4.973592
| 69>   H                      0.403332             4.896322             5.844179
| 70>   H                      1.791000             5.834054             5.307899
| 71> *
| 72>
| 73>                          ****END OF INPUT****
 Total Charge           Charge          ....    0
 Multiplicity           Mult            ....    1
 Number of Electrons    NEL             ....   36
Dispersion correction           -0.001745323
FINAL SINGLE POINT ENERGY      -231.466998368459
Dispersion correction           -0.000191737
FINAL SINGLE POINT ENERGY      -115.729666967788

CARTESIAN COORDINATES (ANGSTROEM)
---------------------------------
  C     -3.245610    4.766604    5.925738
  O     -2.105204    5.526825    5.753957
  H     -2.061038    5.470847    4.812791
  H     -3.398093    4.514218    6.964937
  H     -4.115643    5.335577    5.674308
  H     -3.145554    3.834048    5.296263
  C      0.794844    5.585761    5.034224
  O      0.764898    4.962424    3.767976
  H      1.396828    4.241649    3.749836
  H      0.183799    6.494684    4.973592
  H      0.403332    4.896322    5.844179
  H      1.791000    5.834054    5.307899

 Multiplicity           Mult            ....    1
 Number of Electrons    NEL             ....   18
 Basis Dimension        Dim             ....  172

ORBITAL ENERGIES
----------------

  NO   OCC          E(Eh)            E(eV)
   0   2.0000     -19.228452      -523.2328
   1   2.0000     -10.314021      -280.6588
   2   2.0000      -1.135898       -30.9094
   3   2.0000      -0.794824       -21.6283
   4   2.0000      -0.613514       -16.6946
   5   2.0000      -0.537710       -14.6318
   6   2.0000      -0.528197       -14.3730
   7   2.0000      -0.434857       -11.8331
   8   2.0000      -0.371401       -10.1063
   9   0.0000       0.090566         2.4644
  10   0.0000       0.120118         3.2686
  11   0.0000       0.154790         4.2120
  12   0.0000       0.176827         4.8117
  13   0.0000       0.194276         5.2865

MULLIKEN ATOMIC CHARGES
-----------------------
   0 C :   -0.001498
   1 O :   -0.001514
   2 H :    0.001411
   3 H :   -0.000077
   4 H :    0.000061
   5 H :   -0.000108
   6 C :   -0.155150
   7 O :   -0.477315
   8 H :    0.312698
   9 H :    0.118485
  10 H :    0.094801
  11 H :    0.108205
Sum of atomic charges:    0.0000000

LOEWDIN ATOMIC CHARGES
----------------------
   0 C :   -0.001034
   1 O :   -0.009671
   2 H :   -0.004139
   3 H :   -0.000048
   4 H :   -0.000021
   5 H :   -0.000065
   6 C :   -0.379214
   7 O :   -0.074595
   8 H :    0.166136
   9 H :    0.113232
  10 H :    0.103050
  11 H :    0.086369

  Mayer bond orders larger than 0.1
B(  6-C ,  7-O ) :   0.9976 B(  6-C ,  9-H ) :   0.9732 B(  6-C , 10-H ) :   0.9754
B(  6-C , 11-H ) :   0.9739 B(  7-O ,  8-H ) :   0.8986

Dispersion correction           -0.000236896
FINAL SINGLE POINT ENERGY      -115.735857074867

DIPOLE MOMENT
-------------
                                X             Y             Z
Electronic contribution:     -0.10419      -0.63972      -1.66924
Nuclear contribution   :      0.54406       0.44509       2.14904
                        -----------------------------------------
Total Dipole Moment    :      0.43988      -0.19464       0.47980
                        -----------------------------------------
Magnitude (a.u.)       :      0.67940
Magnitude (Debye)      :      1.72690

Rotational constants in cm-1:     4.247894     0.836269     0.803340
Rotational constants in MHz : 127348.653263 25070.710966 24083.531698

                             ****ORCA TERMINATED NORMALLY****
TOTAL RUN TIME: 0 days 0 hours 0 minutes 47 seconds 85 msec
