                         Program Version 4.1.2  - RELEASE  -
|  1> #Run DFT-D3 single point of the dimer
|  2> ! wB97X-D3 def2-TZVP TIGHTSCF CHELPG PMODEL PAL8
|  3>
|  4> %base "19-174_DFT_AB"
|  5>
|  6> %scf
|  7> MaxIter 1000
|  8> end
|  9>
| 10> * xyz 0 1
| 11>   C                      -10.515816           -7.115298            -4.453699
| 12>   O                      -9.387827            -7.988762            -4.395006
| 13>   H                      -8.723203            -7.769116            -5.073158
| 14>   H                      -10.485551           -6.500536            -5.387973
| 15>   H                      -11.530329           -7.570905            -4.515946
| 16>   H                      -10.438081           -6.409289            -3.639123
| 17>   C                      -10.844184           -10.697958           -3.222567
| 18>   O                      -9.493523            -10.603823           -3.648624
| 19>   H                      -9.293478            -9.720435            -3.739133
| 20>   H                      -10.938164           -10.460629           -2.140745
| 21>   H                      -11.494168           -10.058969           -3.902708
| 22>   H                      -11.262790           -11.697949           -3.218183
| 23> *
| 24>
| 25> #Run DFT-D3 single point of the molecule with dimer basis set
| 26> $new_job
| 27> %base "19-174_DFT_A"
| 28> ! wB97X-D3 def2-TZVP TIGHTSCF CHELPG PMODEL
| 29>
| 30> %scf
| 31> MaxIter 1000
| 32> end
| 33>
| 34> * xyz 0 1
| 35>   C                      -10.515816           -7.115298            -4.453699
| 36>   O                      -9.387827            -7.988762            -4.395006
| 37>   H                      -8.723203            -7.769116            -5.073158
| 38>   H                      -10.485551           -6.500536            -5.387973
| 39>   H                      -11.530329           -7.570905            -4.515946
| 40>   H                      -10.438081           -6.409289            -3.639123
| 41>   C                    : -10.844184           -10.697958           -3.222567
| 42>   O                    : -9.493523            -10.603823           -3.648624
| 43>   H                    : -9.293478            -9.720435            -3.739133
| 44>   H                    : -10.938164           -10.460629           -2.140745
| 45>   H                    : -11.494168           -10.058969           -3.902708
| 46>   H                    : -11.262790           -11.697949           -3.218183
| 47> *
| 48>
| 49> #Run DFT-D3 single point of the particle with dimer basis set
| 50> $new_job
| 51> %base "19-174_DFT_B"
| 52> ! wB97X-D3 def2-TZVP TIGHTSCF CHELPG PMODEL
| 53>
| 54> %scf
| 55> MaxIter 1000
| 56> end
| 57>
| 58> * xyz 0 1
| 59>   C                    : -10.515816           -7.115298            -4.453699
| 60>   O                    : -9.387827            -7.988762            -4.395006
| 61>   H                    : -8.723203            -7.769116            -5.073158
| 62>   H                    : -10.485551           -6.500536            -5.387973
| 63>   H                    : -11.530329           -7.570905            -4.515946
| 64>   H                    : -10.438081           -6.409289            -3.639123
| 65>   C                      -10.844184           -10.697958           -3.222567
| 66>   O                      -9.493523            -10.603823           -3.648624
| 67>   H                      -9.293478            -9.720435            -3.739133
| 68>   H                      -10.938164           -10.460629           -2.140745
| 69>   H                      -11.494168           -10.058969           -3.902708
| 70>   H                      -11.262790           -11.697949           -3.218183
| 71> *
| 72>
| 73>                          ****END OF INPUT****
 Total Charge           Charge          ....    0
 Multiplicity           Mult            ....    1
 Number of Electrons    NEL             ....   36
Dispersion correction           -0.002063587
FINAL SINGLE POINT ENERGY      -231.467656536520
Dispersion correction           -0.000266984
FINAL SINGLE POINT ENERGY      -115.731049655448

CARTESIAN COORDINATES (ANGSTROEM)
---------------------------------
  C    -10.515816   -7.115298   -4.453699
  O     -9.387827   -7.988762   -4.395006
  H     -8.723203   -7.769116   -5.073158
  H    -10.485551   -6.500536   -5.387973
  H    -11.530329   -7.570905   -4.515946
  H    -10.438081   -6.409289   -3.639123
  C    -10.844184  -10.697958   -3.222567
  O     -9.493523  -10.603823   -3.648624
  H     -9.293478   -9.720435   -3.739133
  H    -10.938164  -10.460629   -2.140745
  H    -11.494168  -10.058969   -3.902708
  H    -11.262790  -11.697949   -3.218183

 Multiplicity           Mult            ....    1
 Number of Electrons    NEL             ....   18
 Basis Dimension        Dim             ....  172

ORBITAL ENERGIES
----------------

  NO   OCC          E(Eh)            E(eV)
   0   2.0000     -19.227413      -523.2045
   1   2.0000     -10.320720      -280.8411
   2   2.0000      -1.146277       -31.1918
   3   2.0000      -0.798703       -21.7338
   4   2.0000      -0.610883       -16.6230
   5   2.0000      -0.547159       -14.8890
   6   2.0000      -0.530223       -14.4281
   7   2.0000      -0.428964       -11.6727
   8   2.0000      -0.376197       -10.2368
   9   0.0000       0.071996         1.9591
  10   0.0000       0.138891         3.7794
  11   0.0000       0.141634         3.8541
  12   0.0000       0.177904         4.8410
  13   0.0000       0.181600         4.9416

MULLIKEN ATOMIC CHARGES
-----------------------
   0 C :    0.001119
   1 O :   -0.007385
   2 H :   -0.000751
   3 H :    0.000053
   4 H :   -0.001278
   5 H :   -0.000159
   6 C :   -0.171317
   7 O :   -0.457405
   8 H :    0.307854
   9 H :    0.102485
  10 H :    0.101229
  11 H :    0.125554
Sum of atomic charges:    0.0000000

LOEWDIN ATOMIC CHARGES
----------------------
   0 C :   -0.005504
   1 O :   -0.024794
   2 H :   -0.001711
   3 H :   -0.000051
   4 H :   -0.002483
   5 H :   -0.000079
   6 C :   -0.380630
   7 O :   -0.040330
   8 H :    0.143835
   9 H :    0.099591
  10 H :    0.106714
  11 H :    0.105443

  Mayer bond orders larger than 0.1
B(  6-C ,  7-O ) :   0.9908 B(  6-C ,  9-H ) :   0.9780 B(  6-C , 10-H ) :   0.9785
B(  6-C , 11-H ) :   0.9714 B(  7-O ,  8-H ) :   0.9168

Dispersion correction           -0.000247973
FINAL SINGLE POINT ENERGY      -115.729786177300

DIPOLE MOMENT
-------------
                                X             Y             Z
Electronic contribution:      1.78960      -0.03177      -0.58854
Nuclear contribution   :     -2.20270       0.52417       0.70461
                        -----------------------------------------
Total Dipole Moment    :     -0.41310       0.49240       0.11607
                        -----------------------------------------
Magnitude (a.u.)       :      0.65313
Magnitude (Debye)      :      1.66013

Rotational constants in cm-1:     4.328914     0.817664     0.796034
Rotational constants in MHz : 129777.584648 24512.942333 23864.506401

                             ****ORCA TERMINATED NORMALLY****
TOTAL RUN TIME: 0 days 0 hours 1 minutes 42 seconds 152 msec
