                         Program Version 4.1.2  - RELEASE  -
|  1> #Run DFT-D3 single point of the dimer
|  2> ! wB97X-D3 def2-TZVP TIGHTSCF CHELPG PMODEL PAL8
|  3>
|  4> %base "6-103_DFT_AB"
|  5>
|  6> %scf
|  7> MaxIter 1000
|  8> end
|  9>
| 10> * xyz 0 1
| 11>   C                      0.171239             3.868132             9.450334
| 12>   O                      -0.209914            3.238640             10.630685
| 13>   H                      0.561177             2.798170             11.029478
| 14>   H                      1.166986             3.610783             9.100167
| 15>   H                      -0.447695            3.453236             8.613938
| 16>   H                      0.012283             4.950917             9.402501
| 17>   C                      0.183462             0.452977             6.161411
| 18>   O                      0.088514             1.558360             6.965881
| 19>   H                      0.995912             1.881266             7.136302
| 20>   H                      -0.781948            0.267522             5.660353
| 21>   H                      0.841849             0.636354             5.347028
| 22>   H                      0.628040             -0.451358            6.668737
| 23> *
| 24>
| 25> #Run DFT-D3 single point of the molecule with dimer basis set
| 26> $new_job
| 27> %base "6-103_DFT_A"
| 28> ! wB97X-D3 def2-TZVP TIGHTSCF CHELPG PMODEL
| 29>
| 30> %scf
| 31> MaxIter 1000
| 32> end
| 33>
| 34> * xyz 0 1
| 35>   C                      0.171239             3.868132             9.450334
| 36>   O                      -0.209914            3.238640             10.630685
| 37>   H                      0.561177             2.798170             11.029478
| 38>   H                      1.166986             3.610783             9.100167
| 39>   H                      -0.447695            3.453236             8.613938
| 40>   H                      0.012283             4.950917             9.402501
| 41>   C                    : 0.183462             0.452977             6.161411
| 42>   O                    : 0.088514             1.558360             6.965881
| 43>   H                    : 0.995912             1.881266             7.136302
| 44>   H                    : -0.781948            0.267522             5.660353
| 45>   H                    : 0.841849             0.636354             5.347028
| 46>   H                    : 0.628040             -0.451358            6.668737
| 47> *
| 48>
| 49> #Run DFT-D3 single point of the particle with dimer basis set
| 50> $new_job
| 51> %base "6-103_DFT_B"
| 52> ! wB97X-D3 def2-TZVP TIGHTSCF CHELPG PMODEL
| 53>
| 54> %scf
| 55> MaxIter 1000
| 56> end
| 57>
| 58> * xyz 0 1
| 59>   C                    : 0.171239             3.868132             9.450334
| 60>   O                    : -0.209914            3.238640             10.630685
| 61>   H                    : 0.561177             2.798170             11.029478
| 62>   H                    : 1.166986             3.610783             9.100167
| 63>   H                    : -0.447695            3.453236             8.613938
| 64>   H                    : 0.012283             4.950917             9.402501
| 65>   C                      0.183462             0.452977             6.161411
| 66>   O                      0.088514             1.558360             6.965881
| 67>   H                      0.995912             1.881266             7.136302
| 68>   H                      -0.781948            0.267522             5.660353
| 69>   H                      0.841849             0.636354             5.347028
| 70>   H                      0.628040             -0.451358            6.668737
| 71> *
| 72>
| 73>                          ****END OF INPUT****
 Total Charge           Charge          ....    0
 Multiplicity           Mult            ....    1
 Number of Electrons    NEL             ....   36
Dispersion correction           -0.001477749
FINAL SINGLE POINT ENERGY      -231.464048617032
Dispersion correction           -0.000256473
FINAL SINGLE POINT ENERGY      -115.732072817821

CARTESIAN COORDINATES (ANGSTROEM)
---------------------------------
  C      0.171239    3.868132    9.450334
  O     -0.209914    3.238640   10.630685
  H      0.561177    2.798170   11.029478
  H      1.166986    3.610783    9.100167
  H     -0.447695    3.453236    8.613938
  H      0.012283    4.950917    9.402501
  C      0.183462    0.452977    6.161411
  O      0.088514    1.558360    6.965881
  H      0.995912    1.881266    7.136302
  H     -0.781948    0.267522    5.660353
  H      0.841849    0.636354    5.347028
  H      0.628040   -0.451358    6.668737

 Multiplicity           Mult            ....    1
 Number of Electrons    NEL             ....   18
 Basis Dimension        Dim             ....  172

ORBITAL ENERGIES
----------------

  NO   OCC          E(Eh)            E(eV)
   0   2.0000     -19.233446      -523.3687
   1   2.0000     -10.310148      -280.5534
   2   2.0000      -1.148764       -31.2595
   3   2.0000      -0.791866       -21.5478
   4   2.0000      -0.621485       -16.9115
   5   2.0000      -0.546425       -14.8690
   6   2.0000      -0.528676       -14.3860
   7   2.0000      -0.431088       -11.7305
   8   2.0000      -0.370822       -10.0906
   9   0.0000       0.087221         2.3734
  10   0.0000       0.124221         3.3802
  11   0.0000       0.154892         4.2148
  12   0.0000       0.174650         4.7525
  13   0.0000       0.197174         5.3654

MULLIKEN ATOMIC CHARGES
-----------------------
   0 C :   -0.001982
   1 O :    0.000390
   2 H :    0.000069
   3 H :   -0.000493
   4 H :   -0.005994
   5 H :   -0.000234
   6 C :   -0.160694
   7 O :   -0.455096
   8 H :    0.320209
   9 H :    0.115913
  10 H :    0.099829
  11 H :    0.088082
Sum of atomic charges:    0.0000000

LOEWDIN ATOMIC CHARGES
----------------------
   0 C :   -0.006660
   1 O :   -0.000063
   2 H :   -0.000045
   3 H :   -0.001371
   4 H :   -0.008807
   5 H :   -0.000062
   6 C :   -0.424652
   7 O :   -0.041313
   8 H :    0.187600
   9 H :    0.111589
  10 H :    0.086398
  11 H :    0.097385

  Mayer bond orders larger than 0.1
B(  6-C ,  7-O ) :   1.0065 B(  6-C ,  9-H ) :   0.9737 B(  6-C , 10-H ) :   0.9817
B(  6-C , 11-H ) :   0.9696 B(  7-O ,  8-H ) :   0.8901

Dispersion correction           -0.000224686
FINAL SINGLE POINT ENERGY      -115.732195546262

DIPOLE MOMENT
-------------
                                X             Y             Z
Electronic contribution:     -0.33603       1.45648       1.12714
Nuclear contribution   :      0.95589      -1.63530      -1.36474
                        -----------------------------------------
Total Dipole Moment    :      0.61986      -0.17882      -0.23760
                        -----------------------------------------
Magnitude (a.u.)       :      0.68750
Magnitude (Debye)      :      1.74748

Rotational constants in cm-1:     4.269271     0.873025     0.836081
Rotational constants in MHz : 127989.522918 26172.617757 25065.076590

                             ****ORCA TERMINATED NORMALLY****
TOTAL RUN TIME: 0 days 0 hours 1 minutes 5 seconds 869 msec
