                         Program Version 4.1.2  - RELEASE  -
|  1> #Run DFT-D3 single point of the dimer
|  2> ! wB97X-D3 def2-TZVP TIGHTSCF CHELPG PMODEL PAL8
|  3>
|  4> %base "6-28_DFT_AB"
|  5>
|  6> %scf
|  7> MaxIter 1000
|  8> end
|  9>
| 10> * xyz 0 1
| 11>   C                      -0.715228            1.050743             2.453242
| 12>   O                      -1.854007            0.340821             2.144338
| 13>   H                      -2.633239            0.803480             2.639829
| 14>   H                      -0.871798            2.130612             2.284487
| 15>   H                      -0.449429            0.971583             3.539397
| 16>   H                      0.102194             0.804007             1.757111
| 17>   C                      -4.879796            -0.509376            1.260039
| 18>   O                      -5.387422            0.817447             1.362583
| 19>   H                      -5.858975            0.885262             2.199319
| 20>   H                      -4.683871            -0.840258            0.265881
| 21>   H                      -3.955907            -0.558190            1.810354
| 22>   H                      -5.515917            -1.299171            1.741369
| 23> *
| 24>
| 25> #Run DFT-D3 single point of the molecule with dimer basis set
| 26> $new_job
| 27> %base "6-28_DFT_A"
| 28> ! wB97X-D3 def2-TZVP TIGHTSCF CHELPG PMODEL
| 29>
| 30> %scf
| 31> MaxIter 1000
| 32> end
| 33>
| 34> * xyz 0 1
| 35>   C                      -0.715228            1.050743             2.453242
| 36>   O                      -1.854007            0.340821             2.144338
| 37>   H                      -2.633239            0.803480             2.639829
| 38>   H                      -0.871798            2.130612             2.284487
| 39>   H                      -0.449429            0.971583             3.539397
| 40>   H                      0.102194             0.804007             1.757111
| 41>   C                    : -4.879796            -0.509376            1.260039
| 42>   O                    : -5.387422            0.817447             1.362583
| 43>   H                    : -5.858975            0.885262             2.199319
| 44>   H                    : -4.683871            -0.840258            0.265881
| 45>   H                    : -3.955907            -0.558190            1.810354
| 46>   H                    : -5.515917            -1.299171            1.741369
| 47> *
| 48>
| 49> #Run DFT-D3 single point of the particle with dimer basis set
| 50> $new_job
| 51> %base "6-28_DFT_B"
| 52> ! wB97X-D3 def2-TZVP TIGHTSCF CHELPG PMODEL
| 53>
| 54> %scf
| 55> MaxIter 1000
| 56> end
| 57>
| 58> * xyz 0 1
| 59>   C                    : -0.715228            1.050743             2.453242
| 60>   O                    : -1.854007            0.340821             2.144338
| 61>   H                    : -2.633239            0.803480             2.639829
| 62>   H                    : -0.871798            2.130612             2.284487
| 63>   H                    : -0.449429            0.971583             3.539397
| 64>   H                    : 0.102194             0.804007             1.757111
| 65>   C                      -4.879796            -0.509376            1.260039
| 66>   O                      -5.387422            0.817447             1.362583
| 67>   H                      -5.858975            0.885262             2.199319
| 68>   H                      -4.683871            -0.840258            0.265881
| 69>   H                      -3.955907            -0.558190            1.810354
| 70>   H                      -5.515917            -1.299171            1.741369
| 71> *
| 72>
| 73>                          ****END OF INPUT****
 Total Charge           Charge          ....    0
 Multiplicity           Mult            ....    1
 Number of Electrons    NEL             ....   36
Dispersion correction           -0.001536557
FINAL SINGLE POINT ENERGY      -231.463231175183
Dispersion correction           -0.000228270
FINAL SINGLE POINT ENERGY      -115.729431934861

CARTESIAN COORDINATES (ANGSTROEM)
---------------------------------
  C     -0.715228    1.050743    2.453242
  O     -1.854007    0.340821    2.144338
  H     -2.633239    0.803480    2.639829
  H     -0.871798    2.130612    2.284487
  H     -0.449429    0.971583    3.539397
  H      0.102194    0.804007    1.757111
  C     -4.879796   -0.509376    1.260039
  O     -5.387422    0.817447    1.362583
  H     -5.858975    0.885262    2.199319
  H     -4.683871   -0.840258    0.265881
  H     -3.955907   -0.558190    1.810354
  H     -5.515917   -1.299171    1.741369

 Multiplicity           Mult            ....    1
 Number of Electrons    NEL             ....   18
 Basis Dimension        Dim             ....  172

ORBITAL ENERGIES
----------------

  NO   OCC          E(Eh)            E(eV)
   0   2.0000     -19.232295      -523.3374
   1   2.0000     -10.312275      -280.6113
   2   2.0000      -1.133531       -30.8449
   3   2.0000      -0.798645       -21.7322
   4   2.0000      -0.610010       -16.5992
   5   2.0000      -0.541332       -14.7304
   6   2.0000      -0.527207       -14.3460
   7   2.0000      -0.436824       -11.8866
   8   2.0000      -0.372825       -10.1451
   9   0.0000       0.089272         2.4292
  10   0.0000       0.117444         3.1958
  11   0.0000       0.151189         4.1141
  12   0.0000       0.176879         4.8131
  13   0.0000       0.196184         5.3384

MULLIKEN ATOMIC CHARGES
-----------------------
   0 C :   -0.000317
   1 O :    0.002885
   2 H :    0.001713
   3 H :   -0.000044
   4 H :    0.000058
   5 H :   -0.000095
   6 C :   -0.160821
   7 O :   -0.475905
   8 H :    0.318313
   9 H :    0.123279
  10 H :    0.085440
  11 H :    0.105495
Sum of atomic charges:   -0.0000000

LOEWDIN ATOMIC CHARGES
----------------------
   0 C :   -0.000594
   1 O :   -0.010196
   2 H :   -0.006837
   3 H :   -0.000019
   4 H :   -0.000016
   5 H :   -0.000031
   6 C :   -0.372710
   7 O :   -0.082233
   8 H :    0.172195
   9 H :    0.100854
  10 H :    0.098496
  11 H :    0.101089

  Mayer bond orders larger than 0.1
B(  6-C ,  7-O ) :   1.0022 B(  6-C ,  9-H ) :   0.9754 B(  6-C , 10-H ) :   0.9793
B(  6-C , 11-H ) :   0.9822 B(  7-O ,  8-H ) :   0.8973

Dispersion correction           -0.000248532
FINAL SINGLE POINT ENERGY      -115.733316218684

DIPOLE MOMENT
-------------
                                X             Y             Z
Electronic contribution:     -0.63496       1.80053      -0.12227
Nuclear contribution   :      0.54129      -2.29180       0.60923
                        -----------------------------------------
Total Dipole Moment    :     -0.09367      -0.49127       0.48696
                        -----------------------------------------
Magnitude (a.u.)       :      0.69803
Magnitude (Debye)      :      1.77426

Rotational constants in cm-1:     4.415184     0.817459     0.785097
Rotational constants in MHz : 132363.889658 24506.811426 23536.607367

                             ****ORCA TERMINATED NORMALLY****
TOTAL RUN TIME: 0 days 0 hours 1 minutes 8 seconds 241 msec
