                         Program Version 4.1.2  - RELEASE  -
|  1> #Run DFT-D3 single point of the dimer
|  2> ! wB97X-D3 def2-TZVP TIGHTSCF CHELPG PMODEL PAL8
|  3>
|  4> %base "16-180_DFT_AB"
|  5>
|  6> %scf
|  7> MaxIter 1000
|  8> end
|  9>
| 10> * xyz 0 1
| 11>   C                      8.311484             3.143413             3.481825
| 12>   O                      8.056739             1.722813             3.508801
| 13>   H                      7.759695             1.512041             4.395008
| 14>   H                      8.607157             3.622186             4.397042
| 15>   H                      9.109676             3.424795             2.754939
| 16>   H                      7.404429             3.636642             3.164490
| 17>   C                      6.702892             0.779702             7.600748
| 18>   O                      7.121883             1.692307             6.609128
| 19>   H                      7.273720             2.593465             6.912985
| 20>   H                      7.038373             1.054997             8.600324
| 21>   H                      5.597028             0.886269             7.755625
| 22>   H                      6.986620             -0.200158            7.380845
| 23> *
| 24>
| 25> #Run DFT-D3 single point of the molecule with dimer basis set
| 26> $new_job
| 27> %base "16-180_DFT_A"
| 28> ! wB97X-D3 def2-TZVP TIGHTSCF CHELPG PMODEL
| 29>
| 30> %scf
| 31> MaxIter 1000
| 32> end
| 33>
| 34> * xyz 0 1
| 35>   C                      8.311484             3.143413             3.481825
| 36>   O                      8.056739             1.722813             3.508801
| 37>   H                      7.759695             1.512041             4.395008
| 38>   H                      8.607157             3.622186             4.397042
| 39>   H                      9.109676             3.424795             2.754939
| 40>   H                      7.404429             3.636642             3.164490
| 41>   C                    : 6.702892             0.779702             7.600748
| 42>   O                    : 7.121883             1.692307             6.609128
| 43>   H                    : 7.273720             2.593465             6.912985
| 44>   H                    : 7.038373             1.054997             8.600324
| 45>   H                    : 5.597028             0.886269             7.755625
| 46>   H                    : 6.986620             -0.200158            7.380845
| 47> *
| 48>
| 49> #Run DFT-D3 single point of the particle with dimer basis set
| 50> $new_job
| 51> %base "16-180_DFT_B"
| 52> ! wB97X-D3 def2-TZVP TIGHTSCF CHELPG PMODEL
| 53>
| 54> %scf
| 55> MaxIter 1000
| 56> end
| 57>
| 58> * xyz 0 1
| 59>   C                    : 8.311484             3.143413             3.481825
| 60>   O                    : 8.056739             1.722813             3.508801
| 61>   H                    : 7.759695             1.512041             4.395008
| 62>   H                    : 8.607157             3.622186             4.397042
| 63>   H                    : 9.109676             3.424795             2.754939
| 64>   H                    : 7.404429             3.636642             3.164490
| 65>   C                      6.702892             0.779702             7.600748
| 66>   O                      7.121883             1.692307             6.609128
| 67>   H                      7.273720             2.593465             6.912985
| 68>   H                      7.038373             1.054997             8.600324
| 69>   H                      5.597028             0.886269             7.755625
| 70>   H                      6.986620             -0.200158            7.380845
| 71> *
| 72>
| 73>                          ****END OF INPUT****
 Total Charge           Charge          ....    0
 Multiplicity           Mult            ....    1
 Number of Electrons    NEL             ....   36
Dispersion correction           -0.001577659
FINAL SINGLE POINT ENERGY      -231.470667581933
Dispersion correction           -0.000263468
FINAL SINGLE POINT ENERGY      -115.732933686270

CARTESIAN COORDINATES (ANGSTROEM)
---------------------------------
  C      8.311484    3.143413    3.481825
  O      8.056739    1.722813    3.508801
  H      7.759695    1.512041    4.395008
  H      8.607157    3.622186    4.397042
  H      9.109676    3.424795    2.754939
  H      7.404429    3.636642    3.164490
  C      6.702892    0.779702    7.600748
  O      7.121883    1.692307    6.609128
  H      7.273720    2.593465    6.912985
  H      7.038373    1.054997    8.600324
  H      5.597028    0.886269    7.755625
  H      6.986620   -0.200158    7.380845

 Multiplicity           Mult            ....    1
 Number of Electrons    NEL             ....   18
 Basis Dimension        Dim             ....  172

ORBITAL ENERGIES
----------------

  NO   OCC          E(Eh)            E(eV)
   0   2.0000     -19.227702      -523.2124
   1   2.0000     -10.311905      -280.6012
   2   2.0000      -1.131649       -30.7937
   3   2.0000      -0.801917       -21.8213
   4   2.0000      -0.616790       -16.7837
   5   2.0000      -0.547053       -14.8861
   6   2.0000      -0.523022       -14.2321
   7   2.0000      -0.430114       -11.7040
   8   2.0000      -0.368195       -10.0191
   9   0.0000       0.093887         2.5548
  10   0.0000       0.124454         3.3866
  11   0.0000       0.153617         4.1801
  12   0.0000       0.182190         4.9577
  13   0.0000       0.200669         5.4605

MULLIKEN ATOMIC CHARGES
-----------------------
   0 C :    0.001610
   1 O :   -0.000240
   2 H :   -0.008007
   3 H :   -0.002338
   4 H :   -0.000113
   5 H :   -0.000198
   6 C :   -0.144130
   7 O :   -0.485570
   8 H :    0.320385
   9 H :    0.095982
  10 H :    0.096226
  11 H :    0.126393
Sum of atomic charges:   -0.0000000

LOEWDIN ATOMIC CHARGES
----------------------
   0 C :   -0.002800
   1 O :   -0.001658
   2 H :   -0.020337
   3 H :   -0.000870
   4 H :   -0.000031
   5 H :   -0.000078
   6 C :   -0.375943
   7 O :   -0.060005
   8 H :    0.170258
   9 H :    0.094873
  10 H :    0.101250
  11 H :    0.095342

  Mayer bond orders larger than 0.1
B(  6-C ,  7-O ) :   0.9940 B(  6-C ,  9-H ) :   0.9772 B(  6-C , 10-H ) :   0.9776
B(  6-C , 11-H ) :   0.9743 B(  7-O ,  8-H ) :   0.8893

Dispersion correction           -0.000253015
FINAL SINGLE POINT ENERGY      -115.730964292735

DIPOLE MOMENT
-------------
                                X             Y             Z
Electronic contribution:      0.66100       0.92859      -1.41244
Nuclear contribution   :     -0.71300      -0.70675       2.05301
                        -----------------------------------------
Total Dipole Moment    :     -0.05200       0.22184       0.64057
                        -----------------------------------------
Magnitude (a.u.)       :      0.67989
Magnitude (Debye)      :      1.72814

Rotational constants in cm-1:     4.459442     0.826406     0.795594
Rotational constants in MHz : 133690.710579 24775.014705 23851.293735

                             ****ORCA TERMINATED NORMALLY****
TOTAL RUN TIME: 0 days 0 hours 1 minutes 6 seconds 825 msec
