                         Program Version 4.1.2  - RELEASE  -
|  1> #Run DFT-D3 single point of the dimer
|  2> ! wB97X-D3 def2-TZVP TIGHTSCF CHELPG PMODEL PAL8
|  3>
|  4> %base "12-34_DFT_AB"
|  5>
|  6> %scf
|  7> MaxIter 1000
|  8> end
|  9>
| 10> * xyz 0 1
| 11>   C                      -8.068520            9.350120             1.189583
| 12>   O                      -8.752625            10.376869            1.873308
| 13>   H                      -8.135761            11.181691            1.909176
| 14>   H                      -6.977706            9.408543             1.361703
| 15>   H                      -8.315950            8.386054             1.585649
| 16>   H                      -8.351789            9.399995             0.160666
| 17>   C                      -7.713229            4.227343             -0.511895
| 18>   O                      -8.035849            5.574030             -0.400636
| 19>   H                      -8.691770            5.566973             0.273674
| 20>   H                      -8.487679            3.694594             -1.122684
| 21>   H                      -6.772463            4.108117             -0.921444
| 22>   H                      -7.696652            3.838080             0.479152
| 23> *
| 24>
| 25> #Run DFT-D3 single point of the molecule with dimer basis set
| 26> $new_job
| 27> %base "12-34_DFT_A"
| 28> ! wB97X-D3 def2-TZVP TIGHTSCF CHELPG PMODEL
| 29>
| 30> %scf
| 31> MaxIter 1000
| 32> end
| 33>
| 34> * xyz 0 1
| 35>   C                      -8.068520            9.350120             1.189583
| 36>   O                      -8.752625            10.376869            1.873308
| 37>   H                      -8.135761            11.181691            1.909176
| 38>   H                      -6.977706            9.408543             1.361703
| 39>   H                      -8.315950            8.386054             1.585649
| 40>   H                      -8.351789            9.399995             0.160666
| 41>   C                    : -7.713229            4.227343             -0.511895
| 42>   O                    : -8.035849            5.574030             -0.400636
| 43>   H                    : -8.691770            5.566973             0.273674
| 44>   H                    : -8.487679            3.694594             -1.122684
| 45>   H                    : -6.772463            4.108117             -0.921444
| 46>   H                    : -7.696652            3.838080             0.479152
| 47> *
| 48>
| 49> #Run DFT-D3 single point of the particle with dimer basis set
| 50> $new_job
| 51> %base "12-34_DFT_B"
| 52> ! wB97X-D3 def2-TZVP TIGHTSCF CHELPG PMODEL
| 53>
| 54> %scf
| 55> MaxIter 1000
| 56> end
| 57>
| 58> * xyz 0 1
| 59>   C                    : -8.068520            9.350120             1.189583
| 60>   O                    : -8.752625            10.376869            1.873308
| 61>   H                    : -8.135761            11.181691            1.909176
| 62>   H                    : -6.977706            9.408543             1.361703
| 63>   H                    : -8.315950            8.386054             1.585649
| 64>   H                    : -8.351789            9.399995             0.160666
| 65>   C                      -7.713229            4.227343             -0.511895
| 66>   O                      -8.035849            5.574030             -0.400636
| 67>   H                      -8.691770            5.566973             0.273674
| 68>   H                      -8.487679            3.694594             -1.122684
| 69>   H                      -6.772463            4.108117             -0.921444
| 70>   H                      -7.696652            3.838080             0.479152
| 71> *
| 72>
| 73>                          ****END OF INPUT****
 Total Charge           Charge          ....    0
 Multiplicity           Mult            ....    1
 Number of Electrons    NEL             ....   36
Dispersion correction           -0.000917800
FINAL SINGLE POINT ENERGY      -231.462330932190
Dispersion correction           -0.000235555
FINAL SINGLE POINT ENERGY      -115.731081226411

CARTESIAN COORDINATES (ANGSTROEM)
---------------------------------
  C     -8.068520    9.350120    1.189583
  O     -8.752625   10.376869    1.873308
  H     -8.135761   11.181691    1.909176
  H     -6.977706    9.408543    1.361703
  H     -8.315950    8.386054    1.585649
  H     -8.351789    9.399995    0.160666
  C     -7.713229    4.227343   -0.511895
  O     -8.035849    5.574030   -0.400636
  H     -8.691770    5.566973    0.273674
  H     -8.487679    3.694594   -1.122684
  H     -6.772463    4.108117   -0.921444
  H     -7.696652    3.838080    0.479152

 Multiplicity           Mult            ....    1
 Number of Electrons    NEL             ....   18
 Basis Dimension        Dim             ....  172

ORBITAL ENERGIES
----------------

  NO   OCC          E(Eh)            E(eV)
   0   2.0000     -19.226248      -523.1728
   1   2.0000     -10.304008      -280.3863
   2   2.0000      -1.151381       -31.3307
   3   2.0000      -0.797491       -21.7008
   4   2.0000      -0.616939       -16.7878
   5   2.0000      -0.549078       -14.9412
   6   2.0000      -0.537692       -14.6313
   7   2.0000      -0.439176       -11.9506
   8   2.0000      -0.371343       -10.1048
   9   0.0000       0.090221         2.4550
  10   0.0000       0.117902         3.2083
  11   0.0000       0.156594         4.2611
  12   0.0000       0.187691         5.1073
  13   0.0000       0.199083         5.4173

MULLIKEN ATOMIC CHARGES
-----------------------
   0 C :    0.000730
   1 O :   -0.000047
   2 H :   -0.000007
   3 H :   -0.000148
   4 H :   -0.002681
   5 H :   -0.000445
   6 C :   -0.158752
   7 O :   -0.459106
   8 H :    0.312001
   9 H :    0.090729
  10 H :    0.119613
  11 H :    0.098114
Sum of atomic charges:    0.0000000

LOEWDIN ATOMIC CHARGES
----------------------
   0 C :   -0.001406
   1 O :   -0.000013
   2 H :   -0.000007
   3 H :   -0.000046
   4 H :   -0.001137
   5 H :   -0.000234
   6 C :   -0.390773
   7 O :   -0.050894
   8 H :    0.161419
   9 H :    0.099420
  10 H :    0.092412
  11 H :    0.091259

  Mayer bond orders larger than 0.1
B(  6-C ,  7-O ) :   0.9996 B(  6-C ,  9-H ) :   0.9748 B(  6-C , 10-H ) :   0.9758
B(  6-C , 11-H ) :   0.9928 B(  7-O ,  8-H ) :   0.9062

Dispersion correction           -0.000194412
FINAL SINGLE POINT ENERGY      -115.730297079852

DIPOLE MOMENT
-------------
                                X             Y             Z
Electronic contribution:     -0.20529       1.74950      -0.01178
Nuclear contribution   :     -0.05003      -2.26884       0.41224
                        -----------------------------------------
Total Dipole Moment    :     -0.25532      -0.51934       0.40046
                        -----------------------------------------
Magnitude (a.u.)       :      0.70376
Magnitude (Debye)      :      1.78881

Rotational constants in cm-1:     4.334488     0.872793     0.846994
Rotational constants in MHz : 129944.690238 26165.684070 25392.252607

                             ****ORCA TERMINATED NORMALLY****
TOTAL RUN TIME: 0 days 0 hours 1 minutes 10 seconds 563 msec
