                         Program Version 4.1.2  - RELEASE  -
|  1> #Run DFT-D3 single point of the dimer
|  2> ! wB97X-D3 def2-TZVP TIGHTSCF CHELPG PMODEL PAL8
|  3>
|  4> %base "20-32_DFT_AB"
|  5>
|  6> %scf
|  7> MaxIter 1000
|  8> end
|  9>
| 10> * xyz 0 1
| 11>   C                      -1.641794            5.307331             1.637861
| 12>   O                      -2.575965            4.229584             1.491744
| 13>   H                      -2.767324            3.875175             2.374490
| 14>   H                      -1.946451            5.984514             2.464272
| 15>   H                      -0.555480            5.066071             1.793109
| 16>   H                      -1.550788            5.846078             0.708489
| 17>   C                      -2.629353            0.751410             -0.072952
| 18>   O                      -2.026080            2.004343             -0.059670
| 19>   H                      -2.642368            2.604601             0.310254
| 20>   H                      -1.946076            0.063422             -0.479698
| 21>   H                      -2.841996            0.328647             0.935642
| 22>   H                      -3.550534            0.740549             -0.749496
| 23> *
| 24>
| 25> #Run DFT-D3 single point of the molecule with dimer basis set
| 26> $new_job
| 27> %base "20-32_DFT_A"
| 28> ! wB97X-D3 def2-TZVP TIGHTSCF CHELPG PMODEL
| 29>
| 30> %scf
| 31> MaxIter 1000
| 32> end
| 33>
| 34> * xyz 0 1
| 35>   C                      -1.641794            5.307331             1.637861
| 36>   O                      -2.575965            4.229584             1.491744
| 37>   H                      -2.767324            3.875175             2.374490
| 38>   H                      -1.946451            5.984514             2.464272
| 39>   H                      -0.555480            5.066071             1.793109
| 40>   H                      -1.550788            5.846078             0.708489
| 41>   C                    : -2.629353            0.751410             -0.072952
| 42>   O                    : -2.026080            2.004343             -0.059670
| 43>   H                    : -2.642368            2.604601             0.310254
| 44>   H                    : -1.946076            0.063422             -0.479698
| 45>   H                    : -2.841996            0.328647             0.935642
| 46>   H                    : -3.550534            0.740549             -0.749496
| 47> *
| 48>
| 49> #Run DFT-D3 single point of the particle with dimer basis set
| 50> $new_job
| 51> %base "20-32_DFT_B"
| 52> ! wB97X-D3 def2-TZVP TIGHTSCF CHELPG PMODEL
| 53>
| 54> %scf
| 55> MaxIter 1000
| 56> end
| 57>
| 58> * xyz 0 1
| 59>   C                    : -1.641794            5.307331             1.637861
| 60>   O                    : -2.575965            4.229584             1.491744
| 61>   H                    : -2.767324            3.875175             2.374490
| 62>   H                    : -1.946451            5.984514             2.464272
| 63>   H                    : -0.555480            5.066071             1.793109
| 64>   H                    : -1.550788            5.846078             0.708489
| 65>   C                      -2.629353            0.751410             -0.072952
| 66>   O                      -2.026080            2.004343             -0.059670
| 67>   H                      -2.642368            2.604601             0.310254
| 68>   H                      -1.946076            0.063422             -0.479698
| 69>   H                      -2.841996            0.328647             0.935642
| 70>   H                      -3.550534            0.740549             -0.749496
| 71> *
| 72>
| 73>                          ****END OF INPUT****
 Total Charge           Charge          ....    0
 Multiplicity           Mult            ....    1
 Number of Electrons    NEL             ....   36
Dispersion correction           -0.001516001
FINAL SINGLE POINT ENERGY      -231.470557120944
Dispersion correction           -0.000275766
FINAL SINGLE POINT ENERGY      -115.732722153494

CARTESIAN COORDINATES (ANGSTROEM)
---------------------------------
  C     -1.641794    5.307331    1.637861
  O     -2.575965    4.229584    1.491744
  H     -2.767324    3.875175    2.374490
  H     -1.946451    5.984514    2.464272
  H     -0.555480    5.066071    1.793109
  H     -1.550788    5.846078    0.708489
  C     -2.629353    0.751410   -0.072952
  O     -2.026080    2.004343   -0.059670
  H     -2.642368    2.604601    0.310254
  H     -1.946076    0.063422   -0.479698
  H     -2.841996    0.328647    0.935642
  H     -3.550534    0.740549   -0.749496

 Multiplicity           Mult            ....    1
 Number of Electrons    NEL             ....   18
 Basis Dimension        Dim             ....  172

ORBITAL ENERGIES
----------------

  NO   OCC          E(Eh)            E(eV)
   0   2.0000     -19.231150      -523.3062
   1   2.0000     -10.313886      -280.6551
   2   2.0000      -1.150430       -31.3048
   3   2.0000      -0.797421       -21.6989
   4   2.0000      -0.614360       -16.7176
   5   2.0000      -0.544917       -14.8279
   6   2.0000      -0.533144       -14.5076
   7   2.0000      -0.432461       -11.7679
   8   2.0000      -0.375838       -10.2271
   9   0.0000       0.080090         2.1794
  10   0.0000       0.126344         3.4380
  11   0.0000       0.154539         4.2052
  12   0.0000       0.172692         4.6992
  13   0.0000       0.199757         5.4357

MULLIKEN ATOMIC CHARGES
-----------------------
   0 C :   -0.000900
   1 O :   -0.003516
   2 H :   -0.001190
   3 H :    0.000012
   4 H :   -0.000362
   5 H :    0.000016
   6 C :   -0.163987
   7 O :   -0.452292
   8 H :    0.311299
   9 H :    0.122227
  10 H :    0.094302
  11 H :    0.094389
Sum of atomic charges:    0.0000000

LOEWDIN ATOMIC CHARGES
----------------------
   0 C :   -0.002556
   1 O :   -0.018415
   2 H :   -0.002368
   3 H :   -0.000040
   4 H :   -0.000232
   5 H :   -0.000094
   6 C :   -0.405033
   7 O :   -0.033157
   8 H :    0.163401
   9 H :    0.099096
  10 H :    0.096944
  11 H :    0.102454

  Mayer bond orders larger than 0.1
B(  6-C ,  7-O ) :   1.0116 B(  6-C ,  9-H ) :   0.9751 B(  6-C , 10-H ) :   0.9694
B(  6-C , 11-H ) :   0.9800 B(  7-O ,  8-H ) :   0.9040

Dispersion correction           -0.000239338
FINAL SINGLE POINT ENERGY      -115.733825471348

DIPOLE MOMENT
-------------
                                X             Y             Z
Electronic contribution:      0.92830       1.62613      -0.00975
Nuclear contribution   :     -1.50589      -1.73880       0.22808
                        -----------------------------------------
Total Dipole Moment    :     -0.57759      -0.11266       0.21834
                        -----------------------------------------
Magnitude (a.u.)       :      0.62767
Magnitude (Debye)      :      1.59541

Rotational constants in cm-1:     4.297082     0.845222     0.828106
Rotational constants in MHz : 128823.273615 25339.107173 24826.003167

                             ****ORCA TERMINATED NORMALLY****
TOTAL RUN TIME: 0 days 0 hours 1 minutes 9 seconds 295 msec
