                         Program Version 4.1.2  - RELEASE  -
|  1> #Run DFT-D3 single point of the dimer
|  2> ! wB97X-D3 def2-TZVP TIGHTSCF CHELPG PMODEL PAL8
|  3>
|  4> %base "10-165_DFT_AB"
|  5>
|  6> %scf
|  7> MaxIter 1000
|  8> end
|  9>
| 10> * xyz 0 1
| 11>   C                      -1.145266            4.923665             -10.625641
| 12>   O                      -0.482136            6.152050             -11.005660
| 13>   H                      -0.553224            6.163091             -11.985969
| 14>   H                      -1.385183            4.901109             -9.561415
| 15>   H                      -2.095786            4.768359             -11.067934
| 16>   H                      -0.523370            4.072885             -10.884621
| 17>   C                      -1.296609            7.293209             -7.531955
| 18>   O                      -1.946589            7.464727             -8.781406
| 19>   H                      -1.329584            7.170655             -9.429763
| 20>   H                      -1.560090            6.288227             -7.259894
| 21>   H                      -0.201861            7.420259             -7.582336
| 22>   H                      -1.695462            7.848368             -6.655559
| 23> *
| 24>
| 25> #Run DFT-D3 single point of the molecule with dimer basis set
| 26> $new_job
| 27> %base "10-165_DFT_A"
| 28> ! wB97X-D3 def2-TZVP TIGHTSCF CHELPG PMODEL
| 29>
| 30> %scf
| 31> MaxIter 1000
| 32> end
| 33>
| 34> * xyz 0 1
| 35>   C                      -1.145266            4.923665             -10.625641
| 36>   O                      -0.482136            6.152050             -11.005660
| 37>   H                      -0.553224            6.163091             -11.985969
| 38>   H                      -1.385183            4.901109             -9.561415
| 39>   H                      -2.095786            4.768359             -11.067934
| 40>   H                      -0.523370            4.072885             -10.884621
| 41>   C                    : -1.296609            7.293209             -7.531955
| 42>   O                    : -1.946589            7.464727             -8.781406
| 43>   H                    : -1.329584            7.170655             -9.429763
| 44>   H                    : -1.560090            6.288227             -7.259894
| 45>   H                    : -0.201861            7.420259             -7.582336
| 46>   H                    : -1.695462            7.848368             -6.655559
| 47> *
| 48>
| 49> #Run DFT-D3 single point of the particle with dimer basis set
| 50> $new_job
| 51> %base "10-165_DFT_B"
| 52> ! wB97X-D3 def2-TZVP TIGHTSCF CHELPG PMODEL
| 53>
| 54> %scf
| 55> MaxIter 1000
| 56> end
| 57>
| 58> * xyz 0 1
| 59>   C                    : -1.145266            4.923665             -10.625641
| 60>   O                    : -0.482136            6.152050             -11.005660
| 61>   H                    : -0.553224            6.163091             -11.985969
| 62>   H                    : -1.385183            4.901109             -9.561415
| 63>   H                    : -2.095786            4.768359             -11.067934
| 64>   H                    : -0.523370            4.072885             -10.884621
| 65>   C                      -1.296609            7.293209             -7.531955
| 66>   O                      -1.946589            7.464727             -8.781406
| 67>   H                      -1.329584            7.170655             -9.429763
| 68>   H                      -1.560090            6.288227             -7.259894
| 69>   H                      -0.201861            7.420259             -7.582336
| 70>   H                      -1.695462            7.848368             -6.655559
| 71> *
| 72>
| 73>                          ****END OF INPUT****
 Total Charge           Charge          ....    0
 Multiplicity           Mult            ....    1
 Number of Electrons    NEL             ....   36
Dispersion correction           -0.002009724
FINAL SINGLE POINT ENERGY      -231.469850991123
Dispersion correction           -0.000245846
FINAL SINGLE POINT ENERGY      -115.733258913220

CARTESIAN COORDINATES (ANGSTROEM)
---------------------------------
  C     -1.145266    4.923665  -10.625641
  O     -0.482136    6.152050  -11.005660
  H     -0.553224    6.163091  -11.985969
  H     -1.385183    4.901109   -9.561415
  H     -2.095786    4.768359  -11.067934
  H     -0.523370    4.072885  -10.884621
  C     -1.296609    7.293209   -7.531955
  O     -1.946589    7.464727   -8.781406
  H     -1.329584    7.170655   -9.429763
  H     -1.560090    6.288227   -7.259894
  H     -0.201861    7.420259   -7.582336
  H     -1.695462    7.848368   -6.655559

 Multiplicity           Mult            ....    1
 Number of Electrons    NEL             ....   18
 Basis Dimension        Dim             ....  172

ORBITAL ENERGIES
----------------

  NO   OCC          E(Eh)            E(eV)
   0   2.0000     -19.230157      -523.2792
   1   2.0000     -10.314784      -280.6795
   2   2.0000      -1.141201       -31.0536
   3   2.0000      -0.796870       -21.6839
   4   2.0000      -0.611116       -16.6293
   5   2.0000      -0.542739       -14.7687
   6   2.0000      -0.531939       -14.4748
   7   2.0000      -0.437044       -11.8926
   8   2.0000      -0.370022       -10.0688
   9   0.0000       0.075103         2.0436
  10   0.0000       0.135060         3.6752
  11   0.0000       0.147975         4.0266
  12   0.0000       0.167320         4.5530
  13   0.0000       0.195657         5.3241

MULLIKEN ATOMIC CHARGES
-----------------------
   0 C :   -0.009024
   1 O :   -0.000890
   2 H :   -0.000150
   3 H :   -0.001457
   4 H :    0.001009
   5 H :   -0.000515
   6 C :   -0.181495
   7 O :   -0.455881
   8 H :    0.309658
   9 H :    0.108507
  10 H :    0.109983
  11 H :    0.120254
Sum of atomic charges:    0.0000000

LOEWDIN ATOMIC CHARGES
----------------------
   0 C :   -0.013330
   1 O :   -0.012679
   2 H :   -0.000567
   3 H :   -0.005177
   4 H :   -0.000489
   5 H :   -0.000205
   6 C :   -0.384240
   7 O :   -0.055281
   8 H :    0.166476
   9 H :    0.094954
  10 H :    0.099238
  11 H :    0.111300

  Mayer bond orders larger than 0.1
B(  6-C ,  7-O ) :   0.9916 B(  6-C ,  9-H ) :   0.9862 B(  6-C , 10-H ) :   0.9781
B(  6-C , 11-H ) :   0.9713 B(  7-O ,  8-H ) :   0.9111

Dispersion correction           -0.000234001
FINAL SINGLE POINT ENERGY      -115.729139688536

DIPOLE MOMENT
-------------
                                X             Y             Z
Electronic contribution:     -0.90140       0.42626      -1.56673
Nuclear contribution   :      1.54051      -0.68513       1.67643
                        -----------------------------------------
Total Dipole Moment    :      0.63911      -0.25887       0.10971
                        -----------------------------------------
Magnitude (a.u.)       :      0.69822
Magnitude (Debye)      :      1.77474

Rotational constants in cm-1:     4.379656     0.829957     0.793132
Rotational constants in MHz : 131298.769652 24881.483781 23777.487850

                             ****ORCA TERMINATED NORMALLY****
TOTAL RUN TIME: 0 days 0 hours 1 minutes 7 seconds 570 msec
