                         Program Version 4.1.2  - RELEASE  -
|  1> #Run DFT-D3 single point of the dimer
|  2> ! wB97X-D3 def2-TZVP TIGHTSCF CHELPG PMODEL PAL8
|  3>
|  4> %base "19-79_DFT_AB"
|  5>
|  6> %scf
|  7> MaxIter 1000
|  8> end
|  9>
| 10> * xyz 0 1
| 11>   C                      -4.824653            -10.147423           5.995258
| 12>   O                      -3.540694            -9.794573            6.520729
| 13>   H                      -3.402781            -8.849417            6.277806
| 14>   H                      -5.412021            -9.291457            5.854448
| 15>   H                      -4.591156            -10.588656           5.073679
| 16>   H                      -5.447185            -10.807198           6.600243
| 17>   C                      -0.689859            -6.045129            10.141040
| 18>   O                      -1.623886            -6.700733            9.380281
| 19>   H                      -1.112781            -7.355313            8.860090
| 20>   H                      0.213045             -6.562357            10.054029
| 21>   H                      -0.605332            -4.968874            9.947013
| 22>   H                      -0.933497            -6.123105            11.212937
| 23> *
| 24>
| 25> #Run DFT-D3 single point of the molecule with dimer basis set
| 26> $new_job
| 27> %base "19-79_DFT_A"
| 28> ! wB97X-D3 def2-TZVP TIGHTSCF CHELPG PMODEL
| 29>
| 30> %scf
| 31> MaxIter 1000
| 32> end
| 33>
| 34> * xyz 0 1
| 35>   C                      -4.824653            -10.147423           5.995258
| 36>   O                      -3.540694            -9.794573            6.520729
| 37>   H                      -3.402781            -8.849417            6.277806
| 38>   H                      -5.412021            -9.291457            5.854448
| 39>   H                      -4.591156            -10.588656           5.073679
| 40>   H                      -5.447185            -10.807198           6.600243
| 41>   C                    : -0.689859            -6.045129            10.141040
| 42>   O                    : -1.623886            -6.700733            9.380281
| 43>   H                    : -1.112781            -7.355313            8.860090
| 44>   H                    : 0.213045             -6.562357            10.054029
| 45>   H                    : -0.605332            -4.968874            9.947013
| 46>   H                    : -0.933497            -6.123105            11.212937
| 47> *
| 48>
| 49> #Run DFT-D3 single point of the particle with dimer basis set
| 50> $new_job
| 51> %base "19-79_DFT_B"
| 52> ! wB97X-D3 def2-TZVP TIGHTSCF CHELPG PMODEL
| 53>
| 54> %scf
| 55> MaxIter 1000
| 56> end
| 57>
| 58> * xyz 0 1
| 59>   C                    : -4.824653            -10.147423           5.995258
| 60>   O                    : -3.540694            -9.794573            6.520729
| 61>   H                    : -3.402781            -8.849417            6.277806
| 62>   H                    : -5.412021            -9.291457            5.854448
| 63>   H                    : -4.591156            -10.588656           5.073679
| 64>   H                    : -5.447185            -10.807198           6.600243
| 65>   C                      -0.689859            -6.045129            10.141040
| 66>   O                      -1.623886            -6.700733            9.380281
| 67>   H                      -1.112781            -7.355313            8.860090
| 68>   H                      0.213045             -6.562357            10.054029
| 69>   H                      -0.605332            -4.968874            9.947013
| 70>   H                      -0.933497            -6.123105            11.212937
| 71> *
| 72>
| 73>                          ****END OF INPUT****
 Total Charge           Charge          ....    0
 Multiplicity           Mult            ....    1
 Number of Electrons    NEL             ....   36
Dispersion correction           -0.000627401
FINAL SINGLE POINT ENERGY      -231.457762928076
Dispersion correction           -0.000224396
FINAL SINGLE POINT ENERGY      -115.727955633086

CARTESIAN COORDINATES (ANGSTROEM)
---------------------------------
  C     -4.824653  -10.147423    5.995258
  O     -3.540694   -9.794573    6.520729
  H     -3.402781   -8.849417    6.277806
  H     -5.412021   -9.291457    5.854448
  H     -4.591156  -10.588656    5.073679
  H     -5.447185  -10.807198    6.600243
  C     -0.689859   -6.045129   10.141040
  O     -1.623886   -6.700733    9.380281
  H     -1.112781   -7.355313    8.860090
  H      0.213045   -6.562357   10.054029
  H     -0.605332   -4.968874    9.947013
  H     -0.933497   -6.123105   11.212937

 Multiplicity           Mult            ....    1
 Number of Electrons    NEL             ....   18
 Basis Dimension        Dim             ....  172

ORBITAL ENERGIES
----------------

  NO   OCC          E(Eh)            E(eV)
   0   2.0000     -19.231354      -523.3118
   1   2.0000     -10.304172      -280.3908
   2   2.0000      -1.149023       -31.2665
   3   2.0000      -0.792616       -21.5682
   4   2.0000      -0.621946       -16.9240
   5   2.0000      -0.546383       -14.8678
   6   2.0000      -0.534661       -14.5489
   7   2.0000      -0.432142       -11.7592
   8   2.0000      -0.369384       -10.0515
   9   0.0000       0.087547         2.3823
  10   0.0000       0.108924         2.9640
  11   0.0000       0.151941         4.1345
  12   0.0000       0.176563         4.8045
  13   0.0000       0.200983         5.4690

MULLIKEN ATOMIC CHARGES
-----------------------
   0 C :    0.000022
   1 O :    0.000001
   2 H :   -0.000240
   3 H :   -0.000002
   4 H :   -0.000002
   5 H :    0.000001
   6 C :   -0.162970
   7 O :   -0.458316
   8 H :    0.320245
   9 H :    0.100083
  10 H :    0.101971
  11 H :    0.099207
Sum of atomic charges:    0.0000000

LOEWDIN ATOMIC CHARGES
----------------------
   0 C :   -0.000004
   1 O :   -0.000014
   2 H :   -0.000125
   3 H :   -0.000000
   4 H :   -0.000000
   5 H :   -0.000000
   6 C :   -0.418952
   7 O :   -0.054196
   8 H :    0.188131
   9 H :    0.086303
  10 H :    0.098107
  11 H :    0.100752

  Mayer bond orders larger than 0.1
B(  6-C ,  7-O ) :   1.0235 B(  6-C ,  9-H ) :   0.9974 B(  6-C , 10-H ) :   0.9721
B(  6-C , 11-H ) :   0.9770 B(  7-O ,  8-H ) :   0.8974

Dispersion correction           -0.000222802
FINAL SINGLE POINT ENERGY      -115.729074513463

DIPOLE MOMENT
-------------
                                X             Y             Z
Electronic contribution:     -1.31872      -0.74857      -1.06823
Nuclear contribution   :      2.00625       0.54400       1.01815
                        -----------------------------------------
Total Dipole Moment    :      0.68752      -0.20458      -0.05008
                        -----------------------------------------
Magnitude (a.u.)       :      0.71906
Magnitude (Debye)      :      1.82770

Rotational constants in cm-1:     4.360288     0.878391     0.844089
Rotational constants in MHz : 130718.138852 26333.502091 25305.163664

                             ****ORCA TERMINATED NORMALLY****
TOTAL RUN TIME: 0 days 0 hours 2 minutes 12 seconds 932 msec
