                         Program Version 4.1.2  - RELEASE  -
|  1> #Run DFT-D3 single point of the dimer
|  2> ! wB97X-D3 def2-TZVP TIGHTSCF CHELPG PMODEL PAL8
|  3>
|  4> %base "6-112_DFT_AB"
|  5>
|  6> %scf
|  7> MaxIter 1000
|  8> end
|  9>
| 10> * xyz 0 1
| 11>   C                      6.494887             -9.319664            0.599304
| 12>   O                      6.530466             -9.264981            2.010500
| 13>   H                      6.957669             -10.100235           2.248466
| 14>   H                      5.656828             -9.905448            0.193507
| 15>   H                      6.395575             -8.342034            0.169458
| 16>   H                      7.472226             -9.620610            0.188917
| 17>   C                      7.921592             -9.643380            5.268875
| 18>   O                      8.729613             -8.573952            4.837167
| 19>   H                      8.174072             -7.825036            4.434077
| 20>   H                      8.433361             -10.193491           6.014222
| 21>   H                      6.942352             -9.413133            5.582032
| 22>   H                      7.760987             -10.375064           4.441845
| 23> *
| 24>
| 25> #Run DFT-D3 single point of the molecule with dimer basis set
| 26> $new_job
| 27> %base "6-112_DFT_A"
| 28> ! wB97X-D3 def2-TZVP TIGHTSCF CHELPG PMODEL
| 29>
| 30> %scf
| 31> MaxIter 1000
| 32> end
| 33>
| 34> * xyz 0 1
| 35>   C                      6.494887             -9.319664            0.599304
| 36>   O                      6.530466             -9.264981            2.010500
| 37>   H                      6.957669             -10.100235           2.248466
| 38>   H                      5.656828             -9.905448            0.193507
| 39>   H                      6.395575             -8.342034            0.169458
| 40>   H                      7.472226             -9.620610            0.188917
| 41>   C                    : 7.921592             -9.643380            5.268875
| 42>   O                    : 8.729613             -8.573952            4.837167
| 43>   H                    : 8.174072             -7.825036            4.434077
| 44>   H                    : 8.433361             -10.193491           6.014222
| 45>   H                    : 6.942352             -9.413133            5.582032
| 46>   H                    : 7.760987             -10.375064           4.441845
| 47> *
| 48>
| 49> #Run DFT-D3 single point of the particle with dimer basis set
| 50> $new_job
| 51> %base "6-112_DFT_B"
| 52> ! wB97X-D3 def2-TZVP TIGHTSCF CHELPG PMODEL
| 53>
| 54> %scf
| 55> MaxIter 1000
| 56> end
| 57>
| 58> * xyz 0 1
| 59>   C                    : 6.494887             -9.319664            0.599304
| 60>   O                    : 6.530466             -9.264981            2.010500
| 61>   H                    : 6.957669             -10.100235           2.248466
| 62>   H                    : 5.656828             -9.905448            0.193507
| 63>   H                    : 6.395575             -8.342034            0.169458
| 64>   H                    : 7.472226             -9.620610            0.188917
| 65>   C                      7.921592             -9.643380            5.268875
| 66>   O                      8.729613             -8.573952            4.837167
| 67>   H                      8.174072             -7.825036            4.434077
| 68>   H                      8.433361             -10.193491           6.014222
| 69>   H                      6.942352             -9.413133            5.582032
| 70>   H                      7.760987             -10.375064           4.441845
| 71> *
| 72>
| 73>                          ****END OF INPUT****
 Total Charge           Charge          ....    0
 Multiplicity           Mult            ....    1
 Number of Electrons    NEL             ....   36
Dispersion correction           -0.001558480
FINAL SINGLE POINT ENERGY      -231.466749336935
Dispersion correction           -0.000238372
FINAL SINGLE POINT ENERGY      -115.733960245257

CARTESIAN COORDINATES (ANGSTROEM)
---------------------------------
  C      6.494887   -9.319664    0.599304
  O      6.530466   -9.264981    2.010500
  H      6.957669  -10.100235    2.248466
  H      5.656828   -9.905448    0.193507
  H      6.395575   -8.342034    0.169458
  H      7.472226   -9.620610    0.188917
  C      7.921592   -9.643380    5.268875
  O      8.729613   -8.573952    4.837167
  H      8.174072   -7.825036    4.434077
  H      8.433361  -10.193491    6.014222
  H      6.942352   -9.413133    5.582032
  H      7.760987  -10.375064    4.441845

 Multiplicity           Mult            ....    1
 Number of Electrons    NEL             ....   18
 Basis Dimension        Dim             ....  172

ORBITAL ENERGIES
----------------

  NO   OCC          E(Eh)            E(eV)
   0   2.0000     -19.234690      -523.4025
   1   2.0000     -10.306064      -280.4423
   2   2.0000      -1.126086       -30.6424
   3   2.0000      -0.797839       -21.7103
   4   2.0000      -0.612715       -16.6728
   5   2.0000      -0.532801       -14.4982
   6   2.0000      -0.529739       -14.4149
   7   2.0000      -0.436220       -11.8702
   8   2.0000      -0.367912       -10.0114
   9   0.0000       0.081485         2.2173
  10   0.0000       0.113603         3.0913
  11   0.0000       0.147903         4.0246
  12   0.0000       0.180126         4.9015
  13   0.0000       0.197527         5.3750

MULLIKEN ATOMIC CHARGES
-----------------------
   0 C :   -0.000331
   1 O :   -0.000024
   2 H :    0.001382
   3 H :    0.000006
   4 H :    0.000018
   5 H :    0.000011
   6 C :   -0.155797
   7 O :   -0.484115
   8 H :    0.319106
   9 H :    0.124502
  10 H :    0.106143
  11 H :    0.089097
Sum of atomic charges:   -0.0000000

LOEWDIN ATOMIC CHARGES
----------------------
   0 C :   -0.000153
   1 O :   -0.001548
   2 H :   -0.004727
   3 H :   -0.000005
   4 H :   -0.000003
   5 H :   -0.000007
   6 C :   -0.386859
   7 O :   -0.094162
   8 H :    0.199703
   9 H :    0.100712
  10 H :    0.086898
  11 H :    0.100151

  Mayer bond orders larger than 0.1
B(  6-C ,  7-O ) :   1.0089 B(  6-C ,  9-H ) :   0.9772 B(  6-C , 10-H ) :   0.9767
B(  6-C , 11-H ) :   0.9793 B(  7-O ,  8-H ) :   0.8888

Dispersion correction           -0.000257863
FINAL SINGLE POINT ENERGY      -115.730176014288

DIPOLE MOMENT
-------------
                                X             Y             Z
Electronic contribution:      1.13514       1.42391      -0.37112
Nuclear contribution   :     -1.81593      -1.36744       0.31121
                        -----------------------------------------
Total Dipole Moment    :     -0.68078       0.05647      -0.05991
                        -----------------------------------------
Magnitude (a.u.)       :      0.68574
Magnitude (Debye)      :      1.74302

Rotational constants in cm-1:     4.436889     0.828938     0.795010
Rotational constants in MHz : 133014.599993 24850.934765 23833.786623

                             ****ORCA TERMINATED NORMALLY****
TOTAL RUN TIME: 0 days 0 hours 1 minutes 6 seconds 428 msec
