                         Program Version 4.1.2  - RELEASE  -
|  1> #Run DFT-D3 single point of the dimer
|  2> ! wB97X-D3 def2-TZVP TIGHTSCF CHELPG PMODEL PAL8
|  3>
|  4> %base "5-13_DFT_AB"
|  5>
|  6> %scf
|  7> MaxIter 1000
|  8> end
|  9>
| 10> * xyz 0 1
| 11>   C                      4.682052             -4.285258            7.565120
| 12>   O                      4.866444             -3.775011            6.253769
| 13>   H                      4.430609             -2.921144            6.243393
| 14>   H                      4.396078             -3.482571            8.277853
| 15>   H                      3.896837             -5.017560            7.602140
| 16>   H                      5.548066             -4.676643            7.981622
| 17>   C                      7.263758             -1.690919            6.811487
| 18>   O                      8.265075             -0.704323            6.669180
| 19>   H                      7.838670             -0.036129            6.110007
| 20>   H                      6.411662             -1.323292            7.479096
| 21>   H                      6.727346             -1.871947            5.897698
| 22>   H                      7.798512             -2.602327            7.203925
| 23> *
| 24>
| 25> #Run DFT-D3 single point of the molecule with dimer basis set
| 26> $new_job
| 27> %base "5-13_DFT_A"
| 28> ! wB97X-D3 def2-TZVP TIGHTSCF CHELPG PMODEL
| 29>
| 30> %scf
| 31> MaxIter 1000
| 32> end
| 33>
| 34> * xyz 0 1
| 35>   C                      4.682052             -4.285258            7.565120
| 36>   O                      4.866444             -3.775011            6.253769
| 37>   H                      4.430609             -2.921144            6.243393
| 38>   H                      4.396078             -3.482571            8.277853
| 39>   H                      3.896837             -5.017560            7.602140
| 40>   H                      5.548066             -4.676643            7.981622
| 41>   C                    : 7.263758             -1.690919            6.811487
| 42>   O                    : 8.265075             -0.704323            6.669180
| 43>   H                    : 7.838670             -0.036129            6.110007
| 44>   H                    : 6.411662             -1.323292            7.479096
| 45>   H                    : 6.727346             -1.871947            5.897698
| 46>   H                    : 7.798512             -2.602327            7.203925
| 47> *
| 48>
| 49> #Run DFT-D3 single point of the particle with dimer basis set
| 50> $new_job
| 51> %base "5-13_DFT_B"
| 52> ! wB97X-D3 def2-TZVP TIGHTSCF CHELPG PMODEL
| 53>
| 54> %scf
| 55> MaxIter 1000
| 56> end
| 57>
| 58> * xyz 0 1
| 59>   C                    : 4.682052             -4.285258            7.565120
| 60>   O                    : 4.866444             -3.775011            6.253769
| 61>   H                    : 4.430609             -2.921144            6.243393
| 62>   H                    : 4.396078             -3.482571            8.277853
| 63>   H                    : 3.896837             -5.017560            7.602140
| 64>   H                    : 5.548066             -4.676643            7.981622
| 65>   C                      7.263758             -1.690919            6.811487
| 66>   O                      8.265075             -0.704323            6.669180
| 67>   H                      7.838670             -0.036129            6.110007
| 68>   H                      6.411662             -1.323292            7.479096
| 69>   H                      6.727346             -1.871947            5.897698
| 70>   H                      7.798512             -2.602327            7.203925
| 71> *
| 72>
| 73>                          ****END OF INPUT****
 Total Charge           Charge          ....    0
 Multiplicity           Mult            ....    1
 Number of Electrons    NEL             ....   36
Dispersion correction           -0.002019367
FINAL SINGLE POINT ENERGY      -231.465160451319
Dispersion correction           -0.000239376
FINAL SINGLE POINT ENERGY      -115.732982213393

CARTESIAN COORDINATES (ANGSTROEM)
---------------------------------
  C      4.682052   -4.285258    7.565120
  O      4.866444   -3.775011    6.253769
  H      4.430609   -2.921144    6.243393
  H      4.396078   -3.482571    8.277853
  H      3.896837   -5.017560    7.602140
  H      5.548066   -4.676643    7.981622
  C      7.263758   -1.690919    6.811487
  O      8.265075   -0.704323    6.669180
  H      7.838670   -0.036129    6.110007
  H      6.411662   -1.323292    7.479096
  H      6.727346   -1.871947    5.897698
  H      7.798512   -2.602327    7.203925

 Multiplicity           Mult            ....    1
 Number of Electrons    NEL             ....   18
 Basis Dimension        Dim             ....  172

ORBITAL ENERGIES
----------------

  NO   OCC          E(Eh)            E(eV)
   0   2.0000     -19.233013      -523.3569
   1   2.0000     -10.319385      -280.8048
   2   2.0000      -1.139033       -30.9947
   3   2.0000      -0.787078       -21.4175
   4   2.0000      -0.617766       -16.8103
   5   2.0000      -0.531223       -14.4553
   6   2.0000      -0.519407       -14.1338
   7   2.0000      -0.446420       -12.1477
   8   2.0000      -0.369606       -10.0575
   9   0.0000       0.082295         2.2393
  10   0.0000       0.111396         3.0312
  11   0.0000       0.156125         4.2484
  12   0.0000       0.165184         4.4949
  13   0.0000       0.177701         4.8355

MULLIKEN ATOMIC CHARGES
-----------------------
   0 C :    0.002266
   1 O :   -0.000518
   2 H :   -0.001460
   3 H :   -0.000872
   4 H :   -0.000009
   5 H :   -0.000804
   6 C :   -0.181044
   7 O :   -0.458736
   8 H :    0.311361
   9 H :    0.095635
  10 H :    0.107830
  11 H :    0.126351
Sum of atomic charges:    0.0000000

LOEWDIN ATOMIC CHARGES
----------------------
   0 C :   -0.003090
   1 O :   -0.003708
   2 H :   -0.002845
   3 H :   -0.000808
   4 H :   -0.000017
   5 H :   -0.000499
   6 C :   -0.397573
   7 O :   -0.078132
   8 H :    0.175824
   9 H :    0.101905
  10 H :    0.090350
  11 H :    0.118594

  Mayer bond orders larger than 0.1
B(  6-C ,  7-O ) :   1.0049 B(  6-C ,  9-H ) :   0.9693 B(  6-C , 10-H ) :   0.9740
B(  6-C , 11-H ) :   0.9701 B(  7-O ,  8-H ) :   0.9021

Dispersion correction           -0.000229662
FINAL SINGLE POINT ENERGY      -115.731198821667

DIPOLE MOMENT
-------------
                                X             Y             Z
Electronic contribution:      1.46333       1.12354      -0.13971
Nuclear contribution   :     -2.09738      -1.07909      -0.18949
                        -----------------------------------------
Total Dipole Moment    :     -0.63406       0.04445      -0.32921
                        -----------------------------------------
Magnitude (a.u.)       :      0.71581
Magnitude (Debye)      :      1.81944

Rotational constants in cm-1:     4.047612     0.846309     0.799721
Rotational constants in MHz : 121344.355016 25371.715394 23975.045506

                             ****ORCA TERMINATED NORMALLY****
TOTAL RUN TIME: 0 days 0 hours 0 minutes 52 seconds 688 msec
