                         Program Version 4.1.2  - RELEASE  -
|  1> #Run DFT-D3 single point of the dimer
|  2> ! wB97X-D3 def2-TZVP TIGHTSCF CHELPG PMODEL PAL8
|  3>
|  4> %base "2-119_DFT_AB"
|  5>
|  6> %scf
|  7> MaxIter 1000
|  8> end
|  9>
| 10> * xyz 0 1
| 11>   C                      4.903913             0.406796             5.553629
| 12>   O                      4.965341             0.096374             6.927694
| 13>   H                      4.245651             0.443145             7.449929
| 14>   H                      3.890953             0.251996             5.036663
| 15>   H                      5.294555             1.436939             5.352639
| 16>   H                      5.521654             -0.336337            5.032475
| 17>   C                      2.492265             -3.653953            7.810245
| 18>   O                      1.979740             -3.030911            6.688068
| 19>   H                      1.023517             -3.067040            6.668463
| 20>   H                      1.866012             -4.501827            8.206209
| 21>   H                      3.500447             -3.916700            7.706908
| 22>   H                      2.438727             -2.953075            8.659785
| 23> *
| 24>
| 25> #Run DFT-D3 single point of the molecule with dimer basis set
| 26> $new_job
| 27> %base "2-119_DFT_A"
| 28> ! wB97X-D3 def2-TZVP TIGHTSCF CHELPG PMODEL
| 29>
| 30> %scf
| 31> MaxIter 1000
| 32> end
| 33>
| 34> * xyz 0 1
| 35>   C                      4.903913             0.406796             5.553629
| 36>   O                      4.965341             0.096374             6.927694
| 37>   H                      4.245651             0.443145             7.449929
| 38>   H                      3.890953             0.251996             5.036663
| 39>   H                      5.294555             1.436939             5.352639
| 40>   H                      5.521654             -0.336337            5.032475
| 41>   C                    : 2.492265             -3.653953            7.810245
| 42>   O                    : 1.979740             -3.030911            6.688068
| 43>   H                    : 1.023517             -3.067040            6.668463
| 44>   H                    : 1.866012             -4.501827            8.206209
| 45>   H                    : 3.500447             -3.916700            7.706908
| 46>   H                    : 2.438727             -2.953075            8.659785
| 47> *
| 48>
| 49> #Run DFT-D3 single point of the particle with dimer basis set
| 50> $new_job
| 51> %base "2-119_DFT_B"
| 52> ! wB97X-D3 def2-TZVP TIGHTSCF CHELPG PMODEL
| 53>
| 54> %scf
| 55> MaxIter 1000
| 56> end
| 57>
| 58> * xyz 0 1
| 59>   C                    : 4.903913             0.406796             5.553629
| 60>   O                    : 4.965341             0.096374             6.927694
| 61>   H                    : 4.245651             0.443145             7.449929
| 62>   H                    : 3.890953             0.251996             5.036663
| 63>   H                    : 5.294555             1.436939             5.352639
| 64>   H                    : 5.521654             -0.336337            5.032475
| 65>   C                      2.492265             -3.653953            7.810245
| 66>   O                      1.979740             -3.030911            6.688068
| 67>   H                      1.023517             -3.067040            6.668463
| 68>   H                      1.866012             -4.501827            8.206209
| 69>   H                      3.500447             -3.916700            7.706908
| 70>   H                      2.438727             -2.953075            8.659785
| 71> *
| 72>
| 73>                          ****END OF INPUT****
 Total Charge           Charge          ....    0
 Multiplicity           Mult            ....    1
 Number of Electrons    NEL             ....   36
Dispersion correction           -0.000950312
FINAL SINGLE POINT ENERGY      -231.465157626269
Dispersion correction           -0.000283545
FINAL SINGLE POINT ENERGY      -115.733115695819

CARTESIAN COORDINATES (ANGSTROEM)
---------------------------------
  C      4.903913    0.406796    5.553629
  O      4.965341    0.096374    6.927694
  H      4.245651    0.443145    7.449929
  H      3.890953    0.251996    5.036663
  H      5.294555    1.436939    5.352639
  H      5.521654   -0.336337    5.032475
  C      2.492265   -3.653953    7.810245
  O      1.979740   -3.030911    6.688068
  H      1.023517   -3.067040    6.668463
  H      1.866012   -4.501827    8.206209
  H      3.500447   -3.916700    7.706908
  H      2.438727   -2.953075    8.659785

 Multiplicity           Mult            ....    1
 Number of Electrons    NEL             ....   18
 Basis Dimension        Dim             ....  172

ORBITAL ENERGIES
----------------

  NO   OCC          E(Eh)            E(eV)
   0   2.0000     -19.229316      -523.2563
   1   2.0000     -10.309838      -280.5450
   2   2.0000      -1.144955       -31.1558
   3   2.0000      -0.798596       -21.7309
   4   2.0000      -0.620264       -16.8782
   5   2.0000      -0.544333       -14.8120
   6   2.0000      -0.531011       -14.4496
   7   2.0000      -0.434024       -11.8104
   8   2.0000      -0.365771        -9.9531
   9   0.0000       0.092129         2.5070
  10   0.0000       0.116764         3.1773
  11   0.0000       0.153036         4.1643
  12   0.0000       0.172255         4.6873
  13   0.0000       0.196345         5.3428

MULLIKEN ATOMIC CHARGES
-----------------------
   0 C :   -0.000258
   1 O :   -0.000026
   2 H :   -0.000095
   3 H :   -0.000595
   4 H :   -0.000038
   5 H :    0.000069
   6 C :   -0.152647
   7 O :   -0.472425
   8 H :    0.317723
   9 H :    0.095203
  10 H :    0.121921
  11 H :    0.091168
Sum of atomic charges:   -0.0000000

LOEWDIN ATOMIC CHARGES
----------------------
   0 C :   -0.000387
   1 O :   -0.000052
   2 H :   -0.000099
   3 H :   -0.000286
   4 H :   -0.000012
   5 H :   -0.000006
   6 C :   -0.407251
   7 O :   -0.051995
   8 H :    0.170051
   9 H :    0.100044
  10 H :    0.096056
  11 H :    0.093939

  Mayer bond orders larger than 0.1
B(  6-C ,  7-O ) :   1.0010 B(  6-C ,  9-H ) :   0.9777 B(  6-C , 10-H ) :   0.9734
B(  6-C , 11-H ) :   0.9813 B(  7-O ,  8-H ) :   0.8959

Dispersion correction           -0.000237515
FINAL SINGLE POINT ENERGY      -115.731527747486

DIPOLE MOMENT
-------------
                                X             Y             Z
Electronic contribution:     -0.44390       0.75188      -1.67970
Nuclear contribution   :      0.02186      -1.01761       2.09471
                        -----------------------------------------
Total Dipole Moment    :     -0.42204      -0.26573       0.41501
                        -----------------------------------------
Magnitude (a.u.)       :      0.64882
Magnitude (Debye)      :      1.64916

Rotational constants in cm-1:     4.415614     0.858963     0.819721
Rotational constants in MHz : 132376.769432 25751.058007 24574.616560

                             ****ORCA TERMINATED NORMALLY****
TOTAL RUN TIME: 0 days 0 hours 6 minutes 21 seconds 340 msec
