                         Program Version 4.1.2  - RELEASE  -
|  1> #Run DFT-D3 single point of the dimer
|  2> ! wB97X-D3 def2-TZVP TIGHTSCF CHELPG PMODEL PAL8
|  3>
|  4> %base "15-190_DFT_AB"
|  5>
|  6> %scf
|  7> MaxIter 1000
|  8> end
|  9>
| 10> * xyz 0 1
| 11>   C                      6.012046             9.114795             10.896765
| 12>   O                      4.612683             9.301395             11.248286
| 13>   H                      4.219593             8.451475             11.427223
| 14>   H                      6.083966             8.606878             9.913786
| 15>   H                      6.563335             10.074568            10.709526
| 16>   H                      6.603153             8.510267             11.631314
| 17>   C                      2.886451             6.089401             11.037753
| 18>   O                      4.041157             6.683180             11.490274
| 19>   H                      4.744214             6.116429             11.163121
| 20>   H                      2.217283             6.806699             10.805423
| 21>   H                      3.131328             5.432262             10.233305
| 22>   H                      2.362541             5.562157             11.812722
| 23> *
| 24>
| 25> #Run DFT-D3 single point of the molecule with dimer basis set
| 26> $new_job
| 27> %base "15-190_DFT_A"
| 28> ! wB97X-D3 def2-TZVP TIGHTSCF CHELPG PMODEL
| 29>
| 30> %scf
| 31> MaxIter 1000
| 32> end
| 33>
| 34> * xyz 0 1
| 35>   C                      6.012046             9.114795             10.896765
| 36>   O                      4.612683             9.301395             11.248286
| 37>   H                      4.219593             8.451475             11.427223
| 38>   H                      6.083966             8.606878             9.913786
| 39>   H                      6.563335             10.074568            10.709526
| 40>   H                      6.603153             8.510267             11.631314
| 41>   C                    : 2.886451             6.089401             11.037753
| 42>   O                    : 4.041157             6.683180             11.490274
| 43>   H                    : 4.744214             6.116429             11.163121
| 44>   H                    : 2.217283             6.806699             10.805423
| 45>   H                    : 3.131328             5.432262             10.233305
| 46>   H                    : 2.362541             5.562157             11.812722
| 47> *
| 48>
| 49> #Run DFT-D3 single point of the particle with dimer basis set
| 50> $new_job
| 51> %base "15-190_DFT_B"
| 52> ! wB97X-D3 def2-TZVP TIGHTSCF CHELPG PMODEL
| 53>
| 54> %scf
| 55> MaxIter 1000
| 56> end
| 57>
| 58> * xyz 0 1
| 59>   C                    : 6.012046             9.114795             10.896765
| 60>   O                    : 4.612683             9.301395             11.248286
| 61>   H                    : 4.219593             8.451475             11.427223
| 62>   H                    : 6.083966             8.606878             9.913786
| 63>   H                    : 6.563335             10.074568            10.709526
| 64>   H                    : 6.603153             8.510267             11.631314
| 65>   C                      2.886451             6.089401             11.037753
| 66>   O                      4.041157             6.683180             11.490274
| 67>   H                      4.744214             6.116429             11.163121
| 68>   H                      2.217283             6.806699             10.805423
| 69>   H                      3.131328             5.432262             10.233305
| 70>   H                      2.362541             5.562157             11.812722
| 71> *
| 72>
| 73>                          ****END OF INPUT****
 Total Charge           Charge          ....    0
 Multiplicity           Mult            ....    1
 Number of Electrons    NEL             ....   36
Dispersion correction           -0.001949654
FINAL SINGLE POINT ENERGY      -231.465045003062
Dispersion correction           -0.000280911
FINAL SINGLE POINT ENERGY      -115.732816207973

CARTESIAN COORDINATES (ANGSTROEM)
---------------------------------
  C      6.012046    9.114795   10.896765
  O      4.612683    9.301395   11.248286
  H      4.219593    8.451475   11.427223
  H      6.083966    8.606878    9.913786
  H      6.563335   10.074568   10.709526
  H      6.603153    8.510267   11.631314
  C      2.886451    6.089401   11.037753
  O      4.041157    6.683180   11.490274
  H      4.744214    6.116429   11.163121
  H      2.217283    6.806699   10.805423
  H      3.131328    5.432262   10.233305
  H      2.362541    5.562157   11.812722

 Multiplicity           Mult            ....    1
 Number of Electrons    NEL             ....   18
 Basis Dimension        Dim             ....  172

ORBITAL ENERGIES
----------------

  NO   OCC          E(Eh)            E(eV)
   0   2.0000     -19.228816      -523.2427
   1   2.0000     -10.294254      -280.1209
   2   2.0000      -1.151030       -31.3211
   3   2.0000      -0.803228       -21.8569
   4   2.0000      -0.621268       -16.9056
   5   2.0000      -0.549971       -14.9655
   6   2.0000      -0.541915       -14.7462
   7   2.0000      -0.440881       -11.9970
   8   2.0000      -0.368597       -10.0300
   9   0.0000       0.094070         2.5598
  10   0.0000       0.127824         3.4783
  11   0.0000       0.160099         4.3565
  12   0.0000       0.185091         5.0366
  13   0.0000       0.206476         5.6185

MULLIKEN ATOMIC CHARGES
-----------------------
   0 C :   -0.003065
   1 O :    0.002147
   2 H :   -0.006535
   3 H :   -0.002904
   4 H :   -0.000526
   5 H :   -0.000779
   6 C :   -0.153116
   7 O :   -0.457291
   8 H :    0.315533
   9 H :    0.119429
  10 H :    0.097669
  11 H :    0.089439
Sum of atomic charges:    0.0000000

LOEWDIN ATOMIC CHARGES
----------------------
   0 C :   -0.010637
   1 O :   -0.009508
   2 H :   -0.056818
   3 H :   -0.001730
   4 H :   -0.000175
   5 H :   -0.000964
   6 C :   -0.392132
   7 O :    0.018218
   8 H :    0.177094
   9 H :    0.087198
  10 H :    0.095096
  11 H :    0.094357

  Mayer bond orders larger than 0.1
B(  6-C ,  7-O ) :   1.0002 B(  6-C ,  9-H ) :   0.9870 B(  6-C , 10-H ) :   0.9923
B(  6-C , 11-H ) :   0.9743 B(  7-O ,  8-H ) :   0.9000

Dispersion correction           -0.000202061
FINAL SINGLE POINT ENERGY      -115.726152798660

DIPOLE MOMENT
-------------
                                X             Y             Z
Electronic contribution:      1.39802       0.89390       0.56830
Nuclear contribution   :     -1.40958      -1.46891      -0.95641
                        -----------------------------------------
Total Dipole Moment    :     -0.01156      -0.57500      -0.38811
                        -----------------------------------------
Magnitude (a.u.)       :      0.69382
Magnitude (Debye)      :      1.76356

Rotational constants in cm-1:     4.524558     0.895774     0.848131
Rotational constants in MHz : 135642.831152 26854.634743 25426.314477

                             ****ORCA TERMINATED NORMALLY****
TOTAL RUN TIME: 0 days 0 hours 1 minutes 8 seconds 103 msec
