                         Program Version 4.1.2  - RELEASE  -
|  1> #Run DFT-D3 single point of the dimer
|  2> ! wB97X-D3 def2-TZVP TIGHTSCF CHELPG PMODEL PAL8
|  3>
|  4> %base "11-211_DFT_AB"
|  5>
|  6> %scf
|  7> MaxIter 1000
|  8> end
|  9>
| 10> * xyz 0 1
| 11>   C                      3.050934             -10.665024           -4.307386
| 12>   O                      2.092074             -10.525762           -5.298851
| 13>   H                      1.976535             -9.579363            -5.514077
| 14>   H                      2.688544             -10.157992           -3.413439
| 15>   H                      3.253577             -11.725895           -4.103417
| 16>   H                      4.051600             -10.308682           -4.484244
| 17>   C                      3.768563             -10.521496           -9.356716
| 18>   O                      3.342263             -10.307915           -8.030770
| 19>   H                      2.407537             -10.446156           -8.036449
| 20>   H                      3.783018             -11.621557           -9.523668
| 21>   H                      3.205777             -10.116418           -10.128131
| 22>   H                      4.831256             -10.227154           -9.505641
| 23> *
| 24>
| 25> #Run DFT-D3 single point of the molecule with dimer basis set
| 26> $new_job
| 27> %base "11-211_DFT_A"
| 28> ! wB97X-D3 def2-TZVP TIGHTSCF CHELPG PMODEL
| 29>
| 30> %scf
| 31> MaxIter 1000
| 32> end
| 33>
| 34> * xyz 0 1
| 35>   C                      3.050934             -10.665024           -4.307386
| 36>   O                      2.092074             -10.525762           -5.298851
| 37>   H                      1.976535             -9.579363            -5.514077
| 38>   H                      2.688544             -10.157992           -3.413439
| 39>   H                      3.253577             -11.725895           -4.103417
| 40>   H                      4.051600             -10.308682           -4.484244
| 41>   C                    : 3.768563             -10.521496           -9.356716
| 42>   O                    : 3.342263             -10.307915           -8.030770
| 43>   H                    : 2.407537             -10.446156           -8.036449
| 44>   H                    : 3.783018             -11.621557           -9.523668
| 45>   H                    : 3.205777             -10.116418           -10.128131
| 46>   H                    : 4.831256             -10.227154           -9.505641
| 47> *
| 48>
| 49> #Run DFT-D3 single point of the particle with dimer basis set
| 50> $new_job
| 51> %base "11-211_DFT_B"
| 52> ! wB97X-D3 def2-TZVP TIGHTSCF CHELPG PMODEL
| 53>
| 54> %scf
| 55> MaxIter 1000
| 56> end
| 57>
| 58> * xyz 0 1
| 59>   C                    : 3.050934             -10.665024           -4.307386
| 60>   O                    : 2.092074             -10.525762           -5.298851
| 61>   H                    : 1.976535             -9.579363            -5.514077
| 62>   H                    : 2.688544             -10.157992           -3.413439
| 63>   H                    : 3.253577             -11.725895           -4.103417
| 64>   H                    : 4.051600             -10.308682           -4.484244
| 65>   C                      3.768563             -10.521496           -9.356716
| 66>   O                      3.342263             -10.307915           -8.030770
| 67>   H                      2.407537             -10.446156           -8.036449
| 68>   H                      3.783018             -11.621557           -9.523668
| 69>   H                      3.205777             -10.116418           -10.128131
| 70>   H                      4.831256             -10.227154           -9.505641
| 71> *
| 72>
| 73>                          ****END OF INPUT****
 Total Charge           Charge          ....    0
 Multiplicity           Mult            ....    1
 Number of Electrons    NEL             ....   36
Dispersion correction           -0.001438231
FINAL SINGLE POINT ENERGY      -231.465927922096
Dispersion correction           -0.000240361
FINAL SINGLE POINT ENERGY      -115.733279526878

CARTESIAN COORDINATES (ANGSTROEM)
---------------------------------
  C      3.050934  -10.665024   -4.307386
  O      2.092074  -10.525762   -5.298851
  H      1.976535   -9.579363   -5.514077
  H      2.688544  -10.157992   -3.413439
  H      3.253577  -11.725895   -4.103417
  H      4.051600  -10.308682   -4.484244
  C      3.768563  -10.521496   -9.356716
  O      3.342263  -10.307915   -8.030770
  H      2.407537  -10.446156   -8.036449
  H      3.783018  -11.621557   -9.523668
  H      3.205777  -10.116418  -10.128131
  H      4.831256  -10.227154   -9.505641

 Multiplicity           Mult            ....    1
 Number of Electrons    NEL             ....   18
 Basis Dimension        Dim             ....  172

ORBITAL ENERGIES
----------------

  NO   OCC          E(Eh)            E(eV)
   0   2.0000     -19.231809      -523.3241
   1   2.0000     -10.310259      -280.5564
   2   2.0000      -1.143468       -31.1154
   3   2.0000      -0.799031       -21.7427
   4   2.0000      -0.619261       -16.8510
   5   2.0000      -0.539699       -14.6860
   6   2.0000      -0.527758       -14.3610
   7   2.0000      -0.440966       -11.9993
   8   2.0000      -0.372209       -10.1283
   9   0.0000       0.092764         2.5242
  10   0.0000       0.123603         3.3634
  11   0.0000       0.151818         4.1312
  12   0.0000       0.186220         5.0673
  13   0.0000       0.200105         5.4451

MULLIKEN ATOMIC CHARGES
-----------------------
   0 C :   -0.002567
   1 O :    0.001090
   2 H :   -0.001958
   3 H :   -0.000112
   4 H :    0.000104
   5 H :   -0.000821
   6 C :   -0.176994
   7 O :   -0.458173
   8 H :    0.313165
   9 H :    0.097733
  10 H :    0.111874
  11 H :    0.116657
Sum of atomic charges:    0.0000000

LOEWDIN ATOMIC CHARGES
----------------------
   0 C :   -0.003158
   1 O :   -0.004012
   2 H :   -0.002694
   3 H :   -0.000058
   4 H :   -0.000077
   5 H :   -0.000588
   6 C :   -0.388644
   7 O :   -0.057540
   8 H :    0.163014
   9 H :    0.098998
  10 H :    0.081374
  11 H :    0.113386

  Mayer bond orders larger than 0.1
B(  6-C ,  7-O ) :   1.0013 B(  6-C ,  9-H ) :   0.9859 B(  6-C , 10-H ) :   0.9684
B(  6-C , 11-H ) :   0.9749 B(  7-O ,  8-H ) :   0.9012

Dispersion correction           -0.000233244
FINAL SINGLE POINT ENERGY      -115.731541823845

DIPOLE MOMENT
-------------
                                X             Y             Z
Electronic contribution:     -0.53321       0.50606       1.73777
Nuclear contribution   :      0.10166      -0.66526      -2.28375
                        -----------------------------------------
Total Dipole Moment    :     -0.43155      -0.15920      -0.54597
                        -----------------------------------------
Magnitude (a.u.)       :      0.71391
Magnitude (Debye)      :      1.81461

Rotational constants in cm-1:     4.431849     0.835367     0.803408
Rotational constants in MHz : 132863.477123 25043.675929 24085.577285

                             ****ORCA TERMINATED NORMALLY****
TOTAL RUN TIME: 0 days 0 hours 1 minutes 5 seconds 896 msec
