                         Program Version 4.1.2  - RELEASE  -
|  1> #Run DFT-D3 single point of the dimer
|  2> ! wB97X-D3 def2-TZVP TIGHTSCF CHELPG PMODEL PAL8
|  3>
|  4> %base "2-120_DFT_AB"
|  5>
|  6> %scf
|  7> MaxIter 1000
|  8> end
|  9>
| 10> * xyz 0 1
| 11>   C                      4.903913             0.406796             5.553629
| 12>   O                      4.965341             0.096374             6.927694
| 13>   H                      4.245651             0.443145             7.449929
| 14>   H                      3.890953             0.251996             5.036663
| 15>   H                      5.294555             1.436939             5.352639
| 16>   H                      5.521654             -0.336337            5.032475
| 17>   C                      4.574681             -0.210124            9.952315
| 18>   O                      4.409818             -0.724356            11.301559
| 19>   H                      4.051911             -1.632650            11.382013
| 20>   H                      3.563831             0.165569             9.495236
| 21>   H                      5.265943             0.683470             9.881298
| 22>   H                      5.116978             -0.946608            9.333530
| 23> *
| 24>
| 25> #Run DFT-D3 single point of the molecule with dimer basis set
| 26> $new_job
| 27> %base "2-120_DFT_A"
| 28> ! wB97X-D3 def2-TZVP TIGHTSCF CHELPG PMODEL
| 29>
| 30> %scf
| 31> MaxIter 1000
| 32> end
| 33>
| 34> * xyz 0 1
| 35>   C                      4.903913             0.406796             5.553629
| 36>   O                      4.965341             0.096374             6.927694
| 37>   H                      4.245651             0.443145             7.449929
| 38>   H                      3.890953             0.251996             5.036663
| 39>   H                      5.294555             1.436939             5.352639
| 40>   H                      5.521654             -0.336337            5.032475
| 41>   C                    : 4.574681             -0.210124            9.952315
| 42>   O                    : 4.409818             -0.724356            11.301559
| 43>   H                    : 4.051911             -1.632650            11.382013
| 44>   H                    : 3.563831             0.165569             9.495236
| 45>   H                    : 5.265943             0.683470             9.881298
| 46>   H                    : 5.116978             -0.946608            9.333530
| 47> *
| 48>
| 49> #Run DFT-D3 single point of the particle with dimer basis set
| 50> $new_job
| 51> %base "2-120_DFT_B"
| 52> ! wB97X-D3 def2-TZVP TIGHTSCF CHELPG PMODEL
| 53>
| 54> %scf
| 55> MaxIter 1000
| 56> end
| 57>
| 58> * xyz 0 1
| 59>   C                    : 4.903913             0.406796             5.553629
| 60>   O                    : 4.965341             0.096374             6.927694
| 61>   H                    : 4.245651             0.443145             7.449929
| 62>   H                    : 3.890953             0.251996             5.036663
| 63>   H                    : 5.294555             1.436939             5.352639
| 64>   H                    : 5.521654             -0.336337            5.032475
| 65>   C                      4.574681             -0.210124            9.952315
| 66>   O                      4.409818             -0.724356            11.301559
| 67>   H                      4.051911             -1.632650            11.382013
| 68>   H                      3.563831             0.165569             9.495236
| 69>   H                      5.265943             0.683470             9.881298
| 70>   H                      5.116978             -0.946608            9.333530
| 71> *
| 72>
| 73>                          ****END OF INPUT****
 Total Charge           Charge          ....    0
 Multiplicity           Mult            ....    1
 Number of Electrons    NEL             ....   36
Dispersion correction           -0.001646284
FINAL SINGLE POINT ENERGY      -231.459486034708
Dispersion correction           -0.000283545
FINAL SINGLE POINT ENERGY      -115.733303602371

CARTESIAN COORDINATES (ANGSTROEM)
---------------------------------
  C      4.903913    0.406796    5.553629
  O      4.965341    0.096374    6.927694
  H      4.245651    0.443145    7.449929
  H      3.890953    0.251996    5.036663
  H      5.294555    1.436939    5.352639
  H      5.521654   -0.336337    5.032475
  C      4.574681   -0.210124    9.952315
  O      4.409818   -0.724356   11.301559
  H      4.051911   -1.632650   11.382013
  H      3.563831    0.165569    9.495236
  H      5.265943    0.683470    9.881298
  H      5.116978   -0.946608    9.333530

 Multiplicity           Mult            ....    1
 Number of Electrons    NEL             ....   18
 Basis Dimension        Dim             ....  172

ORBITAL ENERGIES
----------------

  NO   OCC          E(Eh)            E(eV)
   0   2.0000     -19.230673      -523.2932
   1   2.0000     -10.332048      -281.1493
   2   2.0000      -1.116532       -30.3824
   3   2.0000      -0.791019       -21.5247
   4   2.0000      -0.599919       -16.3246
   5   2.0000      -0.534756       -14.5514
   6   2.0000      -0.519177       -14.1275
   7   2.0000      -0.416235       -11.3263
   8   2.0000      -0.375133       -10.2079
   9   0.0000       0.082389         2.2419
  10   0.0000       0.114221         3.1081
  11   0.0000       0.135207         3.6792
  12   0.0000       0.180759         4.9187
  13   0.0000       0.188994         5.1428

MULLIKEN ATOMIC CHARGES
-----------------------
   0 C :   -0.000144
   1 O :   -0.000194
   2 H :   -0.003188
   3 H :   -0.000045
   4 H :   -0.000003
   5 H :    0.000023
   6 C :   -0.166158
   7 O :   -0.500487
   8 H :    0.324202
   9 H :    0.106226
  10 H :    0.127924
  11 H :    0.111845
Sum of atomic charges:   -0.0000000

LOEWDIN ATOMIC CHARGES
----------------------
   0 C :   -0.000277
   1 O :   -0.006027
   2 H :   -0.010711
   3 H :   -0.000006
   4 H :   -0.000007
   5 H :   -0.000011
   6 C :   -0.370838
   7 O :   -0.118131
   8 H :    0.176534
   9 H :    0.112825
  10 H :    0.116398
  11 H :    0.100252

  Mayer bond orders larger than 0.1
B(  6-C ,  7-O ) :   0.9925 B(  6-C ,  9-H ) :   0.9680 B(  6-C , 10-H ) :   0.9656
B(  6-C , 11-H ) :   0.9745 B(  7-O ,  8-H ) :   0.8864

Dispersion correction           -0.000308432
FINAL SINGLE POINT ENERGY      -115.725511540664

DIPOLE MOMENT
-------------
                                X             Y             Z
Electronic contribution:     -0.18187      -0.60515       1.77250
Nuclear contribution   :      0.06175       0.23048      -2.28638
                        -----------------------------------------
Total Dipole Moment    :     -0.12012      -0.37467      -0.51388
                        -----------------------------------------
Magnitude (a.u.)       :      0.64721
Magnitude (Debye)      :      1.64507

Rotational constants in cm-1:     4.187572     0.761970     0.752684
Rotational constants in MHz : 125540.254272 22843.274902 22564.891239

                             ****ORCA TERMINATED NORMALLY****
TOTAL RUN TIME: 0 days 0 hours 6 minutes 24 seconds 860 msec
