                         Program Version 4.1.2  - RELEASE  -
|  1> #Run DFT-D3 single point of the dimer
|  2> ! wB97X-D3 def2-TZVP TIGHTSCF CHELPG PMODEL PAL8
|  3>
|  4> %base "11-97_DFT_AB"
|  5>
|  6> %scf
|  7> MaxIter 1000
|  8> end
|  9>
| 10> * xyz 0 1
| 11>   C                      -3.641882            -6.013494            -3.653541
| 12>   O                      -3.109496            -5.033797            -2.834084
| 13>   H                      -2.177298            -4.956198            -2.865698
| 14>   H                      -3.149717            -6.980031            -3.450855
| 15>   H                      -4.734627            -6.165777            -3.567122
| 16>   H                      -3.537758            -5.813317            -4.687027
| 17>   C                      -6.805916            -6.748151            -5.901701
| 18>   O                      -5.681329            -7.510598            -6.026313
| 19>   H                      -5.736484            -8.379775            -5.658797
| 20>   H                      -7.200829            -6.626899            -4.873511
| 21>   H                      -6.523811            -5.749640            -6.282327
| 22>   H                      -7.607116            -7.095424            -6.519180
| 23> *
| 24>
| 25> #Run DFT-D3 single point of the molecule with dimer basis set
| 26> $new_job
| 27> %base "11-97_DFT_A"
| 28> ! wB97X-D3 def2-TZVP TIGHTSCF CHELPG PMODEL
| 29>
| 30> %scf
| 31> MaxIter 1000
| 32> end
| 33>
| 34> * xyz 0 1
| 35>   C                      -3.641882            -6.013494            -3.653541
| 36>   O                      -3.109496            -5.033797            -2.834084
| 37>   H                      -2.177298            -4.956198            -2.865698
| 38>   H                      -3.149717            -6.980031            -3.450855
| 39>   H                      -4.734627            -6.165777            -3.567122
| 40>   H                      -3.537758            -5.813317            -4.687027
| 41>   C                    : -6.805916            -6.748151            -5.901701
| 42>   O                    : -5.681329            -7.510598            -6.026313
| 43>   H                    : -5.736484            -8.379775            -5.658797
| 44>   H                    : -7.200829            -6.626899            -4.873511
| 45>   H                    : -6.523811            -5.749640            -6.282327
| 46>   H                    : -7.607116            -7.095424            -6.519180
| 47> *
| 48>
| 49> #Run DFT-D3 single point of the particle with dimer basis set
| 50> $new_job
| 51> %base "11-97_DFT_B"
| 52> ! wB97X-D3 def2-TZVP TIGHTSCF CHELPG PMODEL
| 53>
| 54> %scf
| 55> MaxIter 1000
| 56> end
| 57>
| 58> * xyz 0 1
| 59>   C                    : -3.641882            -6.013494            -3.653541
| 60>   O                    : -3.109496            -5.033797            -2.834084
| 61>   H                    : -2.177298            -4.956198            -2.865698
| 62>   H                    : -3.149717            -6.980031            -3.450855
| 63>   H                    : -4.734627            -6.165777            -3.567122
| 64>   H                    : -3.537758            -5.813317            -4.687027
| 65>   C                      -6.805916            -6.748151            -5.901701
| 66>   O                      -5.681329            -7.510598            -6.026313
| 67>   H                      -5.736484            -8.379775            -5.658797
| 68>   H                      -7.200829            -6.626899            -4.873511
| 69>   H                      -6.523811            -5.749640            -6.282327
| 70>   H                      -7.607116            -7.095424            -6.519180
| 71> *
| 72>
| 73>                          ****END OF INPUT****
 Total Charge           Charge          ....    0
 Multiplicity           Mult            ....    1
 Number of Electrons    NEL             ....   36
Dispersion correction           -0.001799058
FINAL SINGLE POINT ENERGY      -231.468163812410
Dispersion correction           -0.000242879
FINAL SINGLE POINT ENERGY      -115.731559070201

CARTESIAN COORDINATES (ANGSTROEM)
---------------------------------
  C     -3.641882   -6.013494   -3.653541
  O     -3.109496   -5.033797   -2.834084
  H     -2.177298   -4.956198   -2.865698
  H     -3.149717   -6.980031   -3.450855
  H     -4.734627   -6.165777   -3.567122
  H     -3.537758   -5.813317   -4.687027
  C     -6.805916   -6.748151   -5.901701
  O     -5.681329   -7.510598   -6.026313
  H     -5.736484   -8.379775   -5.658797
  H     -7.200829   -6.626899   -4.873511
  H     -6.523811   -5.749640   -6.282327
  H     -7.607116   -7.095424   -6.519180

 Multiplicity           Mult            ....    1
 Number of Electrons    NEL             ....   18
 Basis Dimension        Dim             ....  172

ORBITAL ENERGIES
----------------

  NO   OCC          E(Eh)            E(eV)
   0   2.0000     -19.227770      -523.2142
   1   2.0000     -10.308625      -280.5120
   2   2.0000      -1.151066       -31.3221
   3   2.0000      -0.799801       -21.7637
   4   2.0000      -0.625174       -17.0119
   5   2.0000      -0.546517       -14.8715
   6   2.0000      -0.531560       -14.4645
   7   2.0000      -0.422943       -11.5089
   8   2.0000      -0.372674       -10.1410
   9   0.0000       0.091599         2.4925
  10   0.0000       0.125025         3.4021
  11   0.0000       0.152497         4.1497
  12   0.0000       0.183424         4.9912
  13   0.0000       0.188696         5.1347

MULLIKEN ATOMIC CHARGES
-----------------------
   0 C :    0.002267
   1 O :   -0.000207
   2 H :   -0.000030
   3 H :   -0.001353
   4 H :   -0.002116
   5 H :   -0.003491
   6 C :   -0.140800
   7 O :   -0.475831
   8 H :    0.315260
   9 H :    0.092690
  10 H :    0.111336
  11 H :    0.102275
Sum of atomic charges:   -0.0000000

LOEWDIN ATOMIC CHARGES
----------------------
   0 C :   -0.008171
   1 O :   -0.000040
   2 H :   -0.000020
   3 H :   -0.000529
   4 H :   -0.002793
   5 H :   -0.002834
   6 C :   -0.420357
   7 O :   -0.022550
   8 H :    0.160425
   9 H :    0.094495
  10 H :    0.113999
  11 H :    0.088375

  Mayer bond orders larger than 0.1
B(  6-C ,  7-O ) :   0.9944 B(  6-C ,  9-H ) :   0.9745 B(  6-C , 10-H ) :   0.9773
B(  6-C , 11-H ) :   0.9753 B(  7-O ,  8-H ) :   0.8944

Dispersion correction           -0.000243027
FINAL SINGLE POINT ENERGY      -115.734532202832

DIPOLE MOMENT
-------------
                                X             Y             Z
Electronic contribution:      1.50276      -1.01182      -0.18375
Nuclear contribution   :     -1.97150       0.71882       0.45633
                        -----------------------------------------
Total Dipole Moment    :     -0.46875      -0.29301       0.27258
                        -----------------------------------------
Magnitude (a.u.)       :      0.61634
Magnitude (Debye)      :      1.56662

Rotational constants in cm-1:     4.445360     0.871089     0.840388
Rotational constants in MHz : 133268.530114 26114.602090 25194.186061

                             ****ORCA TERMINATED NORMALLY****
TOTAL RUN TIME: 0 days 0 hours 0 minutes 50 seconds 899 msec
