                         Program Version 4.1.2  - RELEASE  -
|  1> #Run DFT-D3 single point of the dimer
|  2> ! wB97X-D3 def2-TZVP TIGHTSCF CHELPG PMODEL PAL8
|  3>
|  4> %base "6-143_DFT_AB"
|  5>
|  6> %scf
|  7> MaxIter 1000
|  8> end
|  9>
| 10> * xyz 0 1
| 11>   C                      -4.761511            4.033597             0.644561
| 12>   O                      -5.840978            3.433233             0.049642
| 13>   H                      -5.492849            2.523633             0.104784
| 14>   H                      -3.783085            3.629081             0.423102
| 15>   H                      -4.640133            5.102742             0.387107
| 16>   H                      -4.887416            4.115966             1.738798
| 17>   C                      -1.975254            6.692017             -1.033404
| 18>   O                      -2.120310            5.270043             -0.797083
| 19>   H                      -2.657110            4.902343             -1.459374
| 20>   H                      -2.902032            7.264502             -1.136159
| 21>   H                      -1.451563            7.112902             -0.276647
| 22>   H                      -1.472944            6.901009             -1.961477
| 23> *
| 24>
| 25> #Run DFT-D3 single point of the molecule with dimer basis set
| 26> $new_job
| 27> %base "6-143_DFT_A"
| 28> ! wB97X-D3 def2-TZVP TIGHTSCF CHELPG PMODEL
| 29>
| 30> %scf
| 31> MaxIter 1000
| 32> end
| 33>
| 34> * xyz 0 1
| 35>   C                      -4.761511            4.033597             0.644561
| 36>   O                      -5.840978            3.433233             0.049642
| 37>   H                      -5.492849            2.523633             0.104784
| 38>   H                      -3.783085            3.629081             0.423102
| 39>   H                      -4.640133            5.102742             0.387107
| 40>   H                      -4.887416            4.115966             1.738798
| 41>   C                    : -1.975254            6.692017             -1.033404
| 42>   O                    : -2.120310            5.270043             -0.797083
| 43>   H                    : -2.657110            4.902343             -1.459374
| 44>   H                    : -2.902032            7.264502             -1.136159
| 45>   H                    : -1.451563            7.112902             -0.276647
| 46>   H                    : -1.472944            6.901009             -1.961477
| 47> *
| 48>
| 49> #Run DFT-D3 single point of the particle with dimer basis set
| 50> $new_job
| 51> %base "6-143_DFT_B"
| 52> ! wB97X-D3 def2-TZVP TIGHTSCF CHELPG PMODEL
| 53>
| 54> %scf
| 55> MaxIter 1000
| 56> end
| 57>
| 58> * xyz 0 1
| 59>   C                    : -4.761511            4.033597             0.644561
| 60>   O                    : -5.840978            3.433233             0.049642
| 61>   H                    : -5.492849            2.523633             0.104784
| 62>   H                    : -3.783085            3.629081             0.423102
| 63>   H                    : -4.640133            5.102742             0.387107
| 64>   H                    : -4.887416            4.115966             1.738798
| 65>   C                      -1.975254            6.692017             -1.033404
| 66>   O                      -2.120310            5.270043             -0.797083
| 67>   H                      -2.657110            4.902343             -1.459374
| 68>   H                      -2.902032            7.264502             -1.136159
| 69>   H                      -1.451563            7.112902             -0.276647
| 70>   H                      -1.472944            6.901009             -1.961477
| 71> *
| 72>
| 73>                          ****END OF INPUT****
 Total Charge           Charge          ....    0
 Multiplicity           Mult            ....    1
 Number of Electrons    NEL             ....   36
Dispersion correction           -0.001739928
FINAL SINGLE POINT ENERGY      -231.458393671256
Dispersion correction           -0.000218104
FINAL SINGLE POINT ENERGY      -115.726818882198

CARTESIAN COORDINATES (ANGSTROEM)
---------------------------------
  C     -4.761511    4.033597    0.644561
  O     -5.840978    3.433233    0.049642
  H     -5.492849    2.523633    0.104784
  H     -3.783085    3.629081    0.423102
  H     -4.640133    5.102742    0.387107
  H     -4.887416    4.115966    1.738798
  C     -1.975254    6.692017   -1.033404
  O     -2.120310    5.270043   -0.797083
  H     -2.657110    4.902343   -1.459374
  H     -2.902032    7.264502   -1.136159
  H     -1.451563    7.112902   -0.276647
  H     -1.472944    6.901009   -1.961477

 Multiplicity           Mult            ....    1
 Number of Electrons    NEL             ....   18
 Basis Dimension        Dim             ....  172

ORBITAL ENERGIES
----------------

  NO   OCC          E(Eh)            E(eV)
   0   2.0000     -19.229845      -523.2707
   1   2.0000     -10.306120      -280.4438
   2   2.0000      -1.132600       -30.8196
   3   2.0000      -0.811725       -22.0881
   4   2.0000      -0.614202       -16.7133
   5   2.0000      -0.538341       -14.6490
   6   2.0000      -0.528728       -14.3874
   7   2.0000      -0.444623       -12.0988
   8   2.0000      -0.376579       -10.2472
   9   0.0000       0.091190         2.4814
  10   0.0000       0.130886         3.5616
  11   0.0000       0.152418         4.1475
  12   0.0000       0.176933         4.8146
  13   0.0000       0.195196         5.3115

MULLIKEN ATOMIC CHARGES
-----------------------
   0 C :   -0.004400
   1 O :    0.000453
   2 H :    0.000110
   3 H :   -0.002419
   4 H :   -0.004615
   5 H :   -0.001647
   6 C :   -0.172390
   7 O :   -0.468195
   8 H :    0.310227
   9 H :    0.103149
  10 H :    0.131421
  11 H :    0.108304
Sum of atomic charges:    0.0000000

LOEWDIN ATOMIC CHARGES
----------------------
   0 C :   -0.013016
   1 O :   -0.000040
   2 H :   -0.000016
   3 H :   -0.007475
   4 H :   -0.005164
   5 H :   -0.000240
   6 C :   -0.343352
   7 O :   -0.060301
   8 H :    0.146516
   9 H :    0.097967
  10 H :    0.089874
  11 H :    0.095246

  Mayer bond orders larger than 0.1
B(  6-C ,  7-O ) :   0.9937 B(  6-C ,  9-H ) :   0.9719 B(  6-C , 10-H ) :   0.9781
B(  6-C , 11-H ) :   0.9774 B(  7-O ,  8-H ) :   0.9060

Dispersion correction           -0.000256595
FINAL SINGLE POINT ENERGY      -115.730077244047

DIPOLE MOMENT
-------------
                                X             Y             Z
Electronic contribution:     -0.05569      -1.78535       0.48172
Nuclear contribution   :     -0.20683       2.17254      -1.01486
                        -----------------------------------------
Total Dipole Moment    :     -0.26252       0.38719      -0.53314
                        -----------------------------------------
Magnitude (a.u.)       :      0.70928
Magnitude (Debye)      :      1.80284

Rotational constants in cm-1:     4.682675     0.797423     0.770995
Rotational constants in MHz : 140383.072462 23906.134077 23113.835367

                             ****ORCA TERMINATED NORMALLY****
TOTAL RUN TIME: 0 days 0 hours 1 minutes 2 seconds 159 msec
