                         Program Version 4.1.2  - RELEASE  -
|  1> #Run DFT-D3 single point of the dimer
|  2> ! wB97X-D3 def2-TZVP TIGHTSCF CHELPG PMODEL PAL8
|  3>
|  4> %base "7-71_DFT_AB"
|  5>
|  6> %scf
|  7> MaxIter 1000
|  8> end
|  9>
| 10> * xyz 0 1
| 11>   C                      -3.843015            3.387278             11.452532
| 12>   O                      -4.433860            3.915718             10.307268
| 13>   H                      -3.773737            3.785140             9.575087
| 14>   H                      -2.782898            3.479782             11.476008
| 15>   H                      -4.203933            3.855851             12.326470
| 16>   H                      -4.218804            2.365851             11.573091
| 17>   C                      -1.636888            0.125822             9.817240
| 18>   O                      -2.485465            0.222041             8.703885
| 19>   H                      -3.295915            0.624738             9.007962
| 20>   H                      -1.491694            1.081340             10.297061
| 21>   H                      -2.118231            -0.588185            10.509969
| 22>   H                      -0.667232            -0.283175            9.432262
| 23> *
| 24>
| 25> #Run DFT-D3 single point of the molecule with dimer basis set
| 26> $new_job
| 27> %base "7-71_DFT_A"
| 28> ! wB97X-D3 def2-TZVP TIGHTSCF CHELPG PMODEL
| 29>
| 30> %scf
| 31> MaxIter 1000
| 32> end
| 33>
| 34> * xyz 0 1
| 35>   C                      -3.843015            3.387278             11.452532
| 36>   O                      -4.433860            3.915718             10.307268
| 37>   H                      -3.773737            3.785140             9.575087
| 38>   H                      -2.782898            3.479782             11.476008
| 39>   H                      -4.203933            3.855851             12.326470
| 40>   H                      -4.218804            2.365851             11.573091
| 41>   C                    : -1.636888            0.125822             9.817240
| 42>   O                    : -2.485465            0.222041             8.703885
| 43>   H                    : -3.295915            0.624738             9.007962
| 44>   H                    : -1.491694            1.081340             10.297061
| 45>   H                    : -2.118231            -0.588185            10.509969
| 46>   H                    : -0.667232            -0.283175            9.432262
| 47> *
| 48>
| 49> #Run DFT-D3 single point of the particle with dimer basis set
| 50> $new_job
| 51> %base "7-71_DFT_B"
| 52> ! wB97X-D3 def2-TZVP TIGHTSCF CHELPG PMODEL
| 53>
| 54> %scf
| 55> MaxIter 1000
| 56> end
| 57>
| 58> * xyz 0 1
| 59>   C                    : -3.843015            3.387278             11.452532
| 60>   O                    : -4.433860            3.915718             10.307268
| 61>   H                    : -3.773737            3.785140             9.575087
| 62>   H                    : -2.782898            3.479782             11.476008
| 63>   H                    : -4.203933            3.855851             12.326470
| 64>   H                    : -4.218804            2.365851             11.573091
| 65>   C                      -1.636888            0.125822             9.817240
| 66>   O                      -2.485465            0.222041             8.703885
| 67>   H                      -3.295915            0.624738             9.007962
| 68>   H                      -1.491694            1.081340             10.297061
| 69>   H                      -2.118231            -0.588185            10.509969
| 70>   H                      -0.667232            -0.283175            9.432262
| 71> *
| 72>
| 73>                          ****END OF INPUT****
 Total Charge           Charge          ....    0
 Multiplicity           Mult            ....    1
 Number of Electrons    NEL             ....   36
Dispersion correction           -0.001513707
FINAL SINGLE POINT ENERGY      -231.467256837209
Dispersion correction           -0.000225766
FINAL SINGLE POINT ENERGY      -115.730877240577

CARTESIAN COORDINATES (ANGSTROEM)
---------------------------------
  C     -3.843015    3.387278   11.452532
  O     -4.433860    3.915718   10.307268
  H     -3.773737    3.785140    9.575087
  H     -2.782898    3.479782   11.476008
  H     -4.203933    3.855851   12.326470
  H     -4.218804    2.365851   11.573091
  C     -1.636888    0.125822    9.817240
  O     -2.485465    0.222041    8.703885
  H     -3.295915    0.624738    9.007962
  H     -1.491694    1.081340   10.297061
  H     -2.118231   -0.588185   10.509969
  H     -0.667232   -0.283175    9.432262

 Multiplicity           Mult            ....    1
 Number of Electrons    NEL             ....   18
 Basis Dimension        Dim             ....  172

ORBITAL ENERGIES
----------------

  NO   OCC          E(Eh)            E(eV)
   0   2.0000     -19.226365      -523.1760
   1   2.0000     -10.314107      -280.6611
   2   2.0000      -1.140554       -31.0361
   3   2.0000      -0.790829       -21.5195
   4   2.0000      -0.612105       -16.6562
   5   2.0000      -0.547376       -14.8949
   6   2.0000      -0.523565       -14.2469
   7   2.0000      -0.434019       -11.8103
   8   2.0000      -0.370919       -10.0932
   9   0.0000       0.070724         1.9245
  10   0.0000       0.130182         3.5424
  11   0.0000       0.149468         4.0672
  12   0.0000       0.164935         4.4881
  13   0.0000       0.186684         5.0799

MULLIKEN ATOMIC CHARGES
-----------------------
   0 C :    0.000365
   1 O :    0.000149
   2 H :   -0.000640
   3 H :   -0.000676
   4 H :    0.000086
   5 H :   -0.000079
   6 C :   -0.159065
   7 O :   -0.472184
   8 H :    0.311106
   9 H :    0.103267
  10 H :    0.100558
  11 H :    0.117113
Sum of atomic charges:    0.0000000

LOEWDIN ATOMIC CHARGES
----------------------
   0 C :   -0.001466
   1 O :   -0.000060
   2 H :   -0.000542
   3 H :   -0.000877
   4 H :   -0.000014
   5 H :   -0.000306
   6 C :   -0.391408
   7 O :   -0.071120
   8 H :    0.163554
   9 H :    0.089789
  10 H :    0.097385
  11 H :    0.115065

  Mayer bond orders larger than 0.1
B(  6-C ,  7-O ) :   0.9906 B(  6-C ,  9-H ) :   0.9716 B(  6-C , 10-H ) :   0.9846
B(  6-C , 11-H ) :   0.9731 B(  7-O ,  8-H ) :   0.9030

Dispersion correction           -0.000214603
FINAL SINGLE POINT ENERGY      -115.735170368816

DIPOLE MOMENT
-------------
                                X             Y             Z
Electronic contribution:     -0.92402       0.13230      -1.44225
Nuclear contribution   :      0.74319       0.09208       2.06014
                        -----------------------------------------
Total Dipole Moment    :     -0.18083       0.22438       0.61789
                        -----------------------------------------
Magnitude (a.u.)       :      0.68179
Magnitude (Debye)      :      1.73298

Rotational constants in cm-1:     4.129426     0.855604     0.821032
Rotational constants in MHz : 123797.064851 25650.374300 24613.932060

                             ****ORCA TERMINATED NORMALLY****
TOTAL RUN TIME: 0 days 0 hours 1 minutes 4 seconds 241 msec
