                         Program Version 4.1.2  - RELEASE  -
|  1> #Run DFT-D3 single point of the dimer
|  2> ! wB97X-D3 def2-TZVP TIGHTSCF CHELPG PMODEL PAL8
|  3>
|  4> %base "22-42_DFT_AB"
|  5>
|  6> %scf
|  7> MaxIter 1000
|  8> end
|  9>
| 10> * xyz 0 1
| 11>   C                      3.346385             5.166609             -0.324777
| 12>   O                      4.605433             4.856927             -0.851271
| 13>   H                      4.735588             5.658297             -1.389277
| 14>   H                      2.939554             4.225934             -0.016089
| 15>   H                      3.411675             5.727115             0.579502
| 16>   H                      2.613158             5.716876             -1.000328
| 17>   C                      7.574667             3.752111             -1.261682
| 18>   O                      9.029965             3.918598             -1.638505
| 19>   H                      9.057636             4.427649             -2.475635
| 20>   H                      6.872869             4.605150             -1.513020
| 21>   H                      7.229245             2.833688             -1.760961
| 22>   H                      7.528767             3.614182             -0.165421
| 23> *
| 24>
| 25> #Run DFT-D3 single point of the molecule with dimer basis set
| 26> $new_job
| 27> %base "22-42_DFT_A"
| 28> ! wB97X-D3 def2-TZVP TIGHTSCF CHELPG PMODEL
| 29>
| 30> %scf
| 31> MaxIter 1000
| 32> end
| 33>
| 34> * xyz 0 1
| 35>   C                      3.346385             5.166609             -0.324777
| 36>   O                      4.605433             4.856927             -0.851271
| 37>   H                      4.735588             5.658297             -1.389277
| 38>   H                      2.939554             4.225934             -0.016089
| 39>   H                      3.411675             5.727115             0.579502
| 40>   H                      2.613158             5.716876             -1.000328
| 41>   C                    : 7.574667             3.752111             -1.261682
| 42>   O                    : 9.029965             3.918598             -1.638505
| 43>   H                    : 9.057636             4.427649             -2.475635
| 44>   H                    : 6.872869             4.605150             -1.513020
| 45>   H                    : 7.229245             2.833688             -1.760961
| 46>   H                    : 7.528767             3.614182             -0.165421
| 47> *
| 48>
| 49> #Run DFT-D3 single point of the particle with dimer basis set
| 50> $new_job
| 51> %base "22-42_DFT_B"
| 52> ! wB97X-D3 def2-TZVP TIGHTSCF CHELPG PMODEL
| 53>
| 54> %scf
| 55> MaxIter 1000
| 56> end
| 57>
| 58> * xyz 0 1
| 59>   C                    : 3.346385             5.166609             -0.324777
| 60>   O                    : 4.605433             4.856927             -0.851271
| 61>   H                    : 4.735588             5.658297             -1.389277
| 62>   H                    : 2.939554             4.225934             -0.016089
| 63>   H                    : 3.411675             5.727115             0.579502
| 64>   H                    : 2.613158             5.716876             -1.000328
| 65>   C                      7.574667             3.752111             -1.261682
| 66>   O                      9.029965             3.918598             -1.638505
| 67>   H                      9.057636             4.427649             -2.475635
| 68>   H                      6.872869             4.605150             -1.513020
| 69>   H                      7.229245             2.833688             -1.760961
| 70>   H                      7.528767             3.614182             -0.165421
| 71> *
| 72>
| 73>                          ****END OF INPUT****
 Total Charge           Charge          ....    0
 Multiplicity           Mult            ....    1
 Number of Electrons    NEL             ....   36
Dispersion correction           -0.001444171
FINAL SINGLE POINT ENERGY      -231.458941786610
Dispersion correction           -0.000224358
FINAL SINGLE POINT ENERGY      -115.729485208403

CARTESIAN COORDINATES (ANGSTROEM)
---------------------------------
  C      3.346385    5.166609   -0.324777
  O      4.605433    4.856927   -0.851271
  H      4.735588    5.658297   -1.389277
  H      2.939554    4.225934   -0.016089
  H      3.411675    5.727115    0.579502
  H      2.613158    5.716876   -1.000328
  C      7.574667    3.752111   -1.261682
  O      9.029965    3.918598   -1.638505
  H      9.057636    4.427649   -2.475635
  H      6.872869    4.605150   -1.513020
  H      7.229245    2.833688   -1.760961
  H      7.528767    3.614182   -0.165421

 Multiplicity           Mult            ....    1
 Number of Electrons    NEL             ....   18
 Basis Dimension        Dim             ....  172

ORBITAL ENERGIES
----------------

  NO   OCC          E(Eh)            E(eV)
   0   2.0000     -19.232367      -523.3393
   1   2.0000     -10.327660      -281.0299
   2   2.0000      -1.105420       -30.0800
   3   2.0000      -0.793236       -21.5850
   4   2.0000      -0.589484       -16.0407
   5   2.0000      -0.533267       -14.5109
   6   2.0000      -0.508134       -13.8270
   7   2.0000      -0.440729       -11.9928
   8   2.0000      -0.375618       -10.2211
   9   0.0000       0.080770         2.1979
  10   0.0000       0.112522         3.0619
  11   0.0000       0.138104         3.7580
  12   0.0000       0.169902         4.6233
  13   0.0000       0.189240         5.1495

MULLIKEN ATOMIC CHARGES
-----------------------
   0 C :   -0.000546
   1 O :   -0.000396
   2 H :   -0.000680
   3 H :    0.000027
   4 H :   -0.000016
   5 H :    0.000011
   6 C :   -0.187590
   7 O :   -0.488976
   8 H :    0.313140
   9 H :    0.115691
  10 H :    0.119247
  11 H :    0.130086
Sum of atomic charges:    0.0000000

LOEWDIN ATOMIC CHARGES
----------------------
   0 C :   -0.000454
   1 O :   -0.008772
   2 H :   -0.003925
   3 H :   -0.000018
   4 H :   -0.000016
   5 H :   -0.000006
   6 C :   -0.329372
   7 O :   -0.151879
   8 H :    0.171396
   9 H :    0.110769
  10 H :    0.101126
  11 H :    0.111151

  Mayer bond orders larger than 0.1
B(  6-C ,  7-O ) :   0.9907 B(  6-C ,  9-H ) :   0.9696 B(  6-C , 10-H ) :   0.9729
B(  6-C , 11-H ) :   0.9708 B(  7-O ,  8-H ) :   0.9012

Dispersion correction           -0.000305908
FINAL SINGLE POINT ENERGY      -115.728913595560

DIPOLE MOMENT
-------------
                                X             Y             Z
Electronic contribution:      1.77539       0.16604      -0.33867
Nuclear contribution   :     -2.39658       0.07634      -0.00842
                        -----------------------------------------
Total Dipole Moment    :     -0.62119       0.24237      -0.34709
                        -----------------------------------------
Magnitude (a.u.)       :      0.75173
Magnitude (Debye)      :      1.91074

Rotational constants in cm-1:     4.127822     0.739590     0.715444
Rotational constants in MHz : 123748.988710 22172.350654 21448.456993

                             ****ORCA TERMINATED NORMALLY****
TOTAL RUN TIME: 0 days 0 hours 0 minutes 59 seconds 550 msec
