                         Program Version 4.1.2  - RELEASE  -
|  1> #Run DFT-D3 single point of the dimer
|  2> ! wB97X-D3 def2-TZVP TIGHTSCF CHELPG PMODEL PAL8
|  3>
|  4> %base "8-175_DFT_AB"
|  5>
|  6> %scf
|  7> MaxIter 1000
|  8> end
|  9>
| 10> * xyz 0 1
| 11>   C                      -0.275978            -1.399052            9.199394
| 12>   O                      -0.958128            -2.355190            10.019750
| 13>   H                      -0.339695            -3.022243            10.280683
| 14>   H                      -0.951116            -1.011180            8.357782
| 15>   H                      0.011920             -0.481083            9.730996
| 16>   H                      0.554783             -1.852173            8.677638
| 17>   C                      -3.344770            -3.847323            8.213863
| 18>   O                      -2.864211            -4.271480            9.437341
| 19>   H                      -2.253268            -3.623229            9.808167
| 20>   H                      -2.556921            -3.812804            7.449268
| 21>   H                      -4.130952            -4.533478            7.770131
| 22>   H                      -3.644031            -2.798656            8.229549
| 23> *
| 24>
| 25> #Run DFT-D3 single point of the molecule with dimer basis set
| 26> $new_job
| 27> %base "8-175_DFT_A"
| 28> ! wB97X-D3 def2-TZVP TIGHTSCF CHELPG PMODEL
| 29>
| 30> %scf
| 31> MaxIter 1000
| 32> end
| 33>
| 34> * xyz 0 1
| 35>   C                      -0.275978            -1.399052            9.199394
| 36>   O                      -0.958128            -2.355190            10.019750
| 37>   H                      -0.339695            -3.022243            10.280683
| 38>   H                      -0.951116            -1.011180            8.357782
| 39>   H                      0.011920             -0.481083            9.730996
| 40>   H                      0.554783             -1.852173            8.677638
| 41>   C                    : -3.344770            -3.847323            8.213863
| 42>   O                    : -2.864211            -4.271480            9.437341
| 43>   H                    : -2.253268            -3.623229            9.808167
| 44>   H                    : -2.556921            -3.812804            7.449268
| 45>   H                    : -4.130952            -4.533478            7.770131
| 46>   H                    : -3.644031            -2.798656            8.229549
| 47> *
| 48>
| 49> #Run DFT-D3 single point of the particle with dimer basis set
| 50> $new_job
| 51> %base "8-175_DFT_B"
| 52> ! wB97X-D3 def2-TZVP TIGHTSCF CHELPG PMODEL
| 53>
| 54> %scf
| 55> MaxIter 1000
| 56> end
| 57>
| 58> * xyz 0 1
| 59>   C                    : -0.275978            -1.399052            9.199394
| 60>   O                    : -0.958128            -2.355190            10.019750
| 61>   H                    : -0.339695            -3.022243            10.280683
| 62>   H                    : -0.951116            -1.011180            8.357782
| 63>   H                    : 0.011920             -0.481083            9.730996
| 64>   H                    : 0.554783             -1.852173            8.677638
| 65>   C                      -3.344770            -3.847323            8.213863
| 66>   O                      -2.864211            -4.271480            9.437341
| 67>   H                      -2.253268            -3.623229            9.808167
| 68>   H                      -2.556921            -3.812804            7.449268
| 69>   H                      -4.130952            -4.533478            7.770131
| 70>   H                      -3.644031            -2.798656            8.229549
| 71> *
| 72>
| 73>                          ****END OF INPUT****
 Total Charge           Charge          ....    0
 Multiplicity           Mult            ....    1
 Number of Electrons    NEL             ....   36
Dispersion correction           -0.002027033
FINAL SINGLE POINT ENERGY      -231.472388767409
Dispersion correction           -0.000267022
FINAL SINGLE POINT ENERGY      -115.733284071985

CARTESIAN COORDINATES (ANGSTROEM)
---------------------------------
  C     -0.275978   -1.399052    9.199394
  O     -0.958128   -2.355190   10.019750
  H     -0.339695   -3.022243   10.280683
  H     -0.951116   -1.011180    8.357782
  H      0.011920   -0.481083    9.730996
  H      0.554783   -1.852173    8.677638
  C     -3.344770   -3.847323    8.213863
  O     -2.864211   -4.271480    9.437341
  H     -2.253268   -3.623229    9.808167
  H     -2.556921   -3.812804    7.449268
  H     -4.130952   -4.533478    7.770131
  H     -3.644031   -2.798656    8.229549

 Multiplicity           Mult            ....    1
 Number of Electrons    NEL             ....   18
 Basis Dimension        Dim             ....  172

ORBITAL ENERGIES
----------------

  NO   OCC          E(Eh)            E(eV)
   0   2.0000     -19.232457      -523.3418
   1   2.0000     -10.314933      -280.6836
   2   2.0000      -1.145659       -31.1750
   3   2.0000      -0.793171       -21.5833
   4   2.0000      -0.623083       -16.9549
   5   2.0000      -0.539680       -14.6854
   6   2.0000      -0.528102       -14.3704
   7   2.0000      -0.432760       -11.7760
   8   2.0000      -0.367536       -10.0012
   9   0.0000       0.068347         1.8598
  10   0.0000       0.134495         3.6598
  11   0.0000       0.138826         3.7776
  12   0.0000       0.175076         4.7641
  13   0.0000       0.192435         5.2364

MULLIKEN ATOMIC CHARGES
-----------------------
   0 C :   -0.000011
   1 O :   -0.007127
   2 H :   -0.001741
   3 H :   -0.000380
   4 H :    0.000023
   5 H :   -0.000062
   6 C :   -0.165688
   7 O :   -0.463532
   8 H :    0.322040
   9 H :    0.091530
  10 H :    0.125365
  11 H :    0.099584
Sum of atomic charges:    0.0000000

LOEWDIN ATOMIC CHARGES
----------------------
   0 C :   -0.002896
   1 O :   -0.026968
   2 H :   -0.004745
   3 H :   -0.000372
   4 H :   -0.000057
   5 H :   -0.000070
   6 C :   -0.417307
   7 O :   -0.039013
   8 H :    0.189174
   9 H :    0.091040
  10 H :    0.118310
  11 H :    0.092905

  Mayer bond orders larger than 0.1
B(  6-C ,  7-O ) :   0.9959 B(  6-C ,  9-H ) :   0.9767 B(  6-C , 10-H ) :   0.9693
B(  6-C , 11-H ) :   0.9816 B(  7-O ,  8-H ) :   0.8970

Dispersion correction           -0.000237337
FINAL SINGLE POINT ENERGY      -115.732228922020

DIPOLE MOMENT
-------------
                                X             Y             Z
Electronic contribution:      0.46235      -0.72354       1.72388
Nuclear contribution   :     -0.24617       1.30074      -1.95424
                        -----------------------------------------
Total Dipole Moment    :      0.21618       0.57721      -0.23036
                        -----------------------------------------
Magnitude (a.u.)       :      0.65800
Magnitude (Debye)      :      1.67251

Rotational constants in cm-1:     4.326653     0.857504     0.812149
Rotational constants in MHz : 129709.793176 25707.322371 24347.618201

                             ****ORCA TERMINATED NORMALLY****
TOTAL RUN TIME: 0 days 0 hours 0 minutes 46 seconds 212 msec
