                         Program Version 4.1.2  - RELEASE  -
|  1> #Run DFT-D3 single point of the dimer
|  2> ! wB97X-D3 def2-TZVP TIGHTSCF CHELPG PMODEL PAL8
|  3>
|  4> %base "9-43_DFT_AB"
|  5>
|  6> %scf
|  7> MaxIter 1000
|  8> end
|  9>
| 10> * xyz 0 1
| 11>   C                      -2.321207            -5.271564            -0.117392
| 12>   O                      -1.699948            -4.236620            -0.812064
| 13>   H                      -1.067507            -3.804357            -0.260356
| 14>   H                      -3.067091            -5.682834            -0.736439
| 15>   H                      -1.643910            -6.077927            0.202816
| 16>   H                      -2.851049            -4.806668            0.717258
| 17>   C                      -1.356228            -0.340846            0.709262
| 18>   O                      -0.810618            -0.266674            -0.606625
| 19>   H                      -1.477171            -0.764683            -1.013376
| 20>   H                      -0.663269            0.163702             1.446102
| 21>   H                      -2.321533            0.255748             0.727861
| 22>   H                      -1.548935            -1.338380            1.075579
| 23> *
| 24>
| 25> #Run DFT-D3 single point of the molecule with dimer basis set
| 26> $new_job
| 27> %base "9-43_DFT_A"
| 28> ! wB97X-D3 def2-TZVP TIGHTSCF CHELPG PMODEL
| 29>
| 30> %scf
| 31> MaxIter 1000
| 32> end
| 33>
| 34> * xyz 0 1
| 35>   C                      -2.321207            -5.271564            -0.117392
| 36>   O                      -1.699948            -4.236620            -0.812064
| 37>   H                      -1.067507            -3.804357            -0.260356
| 38>   H                      -3.067091            -5.682834            -0.736439
| 39>   H                      -1.643910            -6.077927            0.202816
| 40>   H                      -2.851049            -4.806668            0.717258
| 41>   C                    : -1.356228            -0.340846            0.709262
| 42>   O                    : -0.810618            -0.266674            -0.606625
| 43>   H                    : -1.477171            -0.764683            -1.013376
| 44>   H                    : -0.663269            0.163702             1.446102
| 45>   H                    : -2.321533            0.255748             0.727861
| 46>   H                    : -1.548935            -1.338380            1.075579
| 47> *
| 48>
| 49> #Run DFT-D3 single point of the particle with dimer basis set
| 50> $new_job
| 51> %base "9-43_DFT_B"
| 52> ! wB97X-D3 def2-TZVP TIGHTSCF CHELPG PMODEL
| 53>
| 54> %scf
| 55> MaxIter 1000
| 56> end
| 57>
| 58> * xyz 0 1
| 59>   C                    : -2.321207            -5.271564            -0.117392
| 60>   O                    : -1.699948            -4.236620            -0.812064
| 61>   H                    : -1.067507            -3.804357            -0.260356
| 62>   H                    : -3.067091            -5.682834            -0.736439
| 63>   H                    : -1.643910            -6.077927            0.202816
| 64>   H                    : -2.851049            -4.806668            0.717258
| 65>   C                      -1.356228            -0.340846            0.709262
| 66>   O                      -0.810618            -0.266674            -0.606625
| 67>   H                      -1.477171            -0.764683            -1.013376
| 68>   H                      -0.663269            0.163702             1.446102
| 69>   H                      -2.321533            0.255748             0.727861
| 70>   H                      -1.548935            -1.338380            1.075579
| 71> *
| 72>
| 73>                          ****END OF INPUT****
 Total Charge           Charge          ....    0
 Multiplicity           Mult            ....    1
 Number of Electrons    NEL             ....   36
Dispersion correction           -0.001246734
FINAL SINGLE POINT ENERGY      -231.465792957381
Dispersion correction           -0.000224301
FINAL SINGLE POINT ENERGY      -115.734810094560

CARTESIAN COORDINATES (ANGSTROEM)
---------------------------------
  C     -2.321207   -5.271564   -0.117392
  O     -1.699948   -4.236620   -0.812064
  H     -1.067507   -3.804357   -0.260356
  H     -3.067091   -5.682834   -0.736439
  H     -1.643910   -6.077927    0.202816
  H     -2.851049   -4.806668    0.717258
  C     -1.356228   -0.340846    0.709262
  O     -0.810618   -0.266674   -0.606625
  H     -1.477171   -0.764683   -1.013376
  H     -0.663269    0.163702    1.446102
  H     -2.321533    0.255748    0.727861
  H     -1.548935   -1.338380    1.075579

 Multiplicity           Mult            ....    1
 Number of Electrons    NEL             ....   18
 Basis Dimension        Dim             ....  172

ORBITAL ENERGIES
----------------

  NO   OCC          E(Eh)            E(eV)
   0   2.0000     -19.232834      -523.3520
   1   2.0000     -10.322074      -280.8779
   2   2.0000      -1.150359       -31.3029
   3   2.0000      -0.789203       -21.4753
   4   2.0000      -0.611870       -16.6498
   5   2.0000      -0.542799       -14.7703
   6   2.0000      -0.521645       -14.1947
   7   2.0000      -0.446743       -12.1565
   8   2.0000      -0.377088       -10.2611
   9   0.0000       0.078488         2.1358
  10   0.0000       0.119243         3.2448
  11   0.0000       0.151625         4.1259
  12   0.0000       0.171308         4.6615
  13   0.0000       0.187908         5.1132

MULLIKEN ATOMIC CHARGES
-----------------------
   0 C :   -0.000274
   1 O :   -0.000050
   2 H :   -0.000620
   3 H :   -0.000009
   4 H :    0.000002
   5 H :    0.000046
   6 C :   -0.194529
   7 O :   -0.445756
   8 H :    0.307316
   9 H :    0.118833
  10 H :    0.104177
  11 H :    0.110865
Sum of atomic charges:   -0.0000000

LOEWDIN ATOMIC CHARGES
----------------------
   0 C :   -0.000181
   1 O :   -0.000320
   2 H :   -0.001203
   3 H :   -0.000003
   4 H :   -0.000001
   5 H :   -0.000094
   6 C :   -0.390644
   7 O :   -0.064974
   8 H :    0.150962
   9 H :    0.114546
  10 H :    0.102196
  11 H :    0.089716

  Mayer bond orders larger than 0.1
B(  6-C ,  7-O ) :   1.0004 B(  6-C ,  9-H ) :   0.9739 B(  6-C , 10-H ) :   0.9817
B(  6-C , 11-H ) :   0.9655 B(  7-O ,  8-H ) :   0.9132

Dispersion correction           -0.000222809
FINAL SINGLE POINT ENERGY      -115.729187878256

DIPOLE MOMENT
-------------
                                X             Y             Z
Electronic contribution:      0.89293       0.06045      -1.71125
Nuclear contribution   :     -1.49863      -0.40091       1.96342
                        -----------------------------------------
Total Dipole Moment    :     -0.60570      -0.34046       0.25216
                        -----------------------------------------
Magnitude (a.u.)       :      0.73917
Magnitude (Debye)      :      1.87881

Rotational constants in cm-1:     4.153931     0.827910     0.797981
Rotational constants in MHz : 124531.724506 24820.125906 23922.864982

                             ****ORCA TERMINATED NORMALLY****
TOTAL RUN TIME: 0 days 0 hours 0 minutes 42 seconds 43 msec
