                         Program Version 4.1.2  - RELEASE  -
|  1> #Run DFT-D3 single point of the dimer
|  2> ! wB97X-D3 def2-TZVP TIGHTSCF CHELPG PMODEL PAL8
|  3>
|  4> %base "20-167_DFT_AB"
|  5>
|  6> %scf
|  7> MaxIter 1000
|  8> end
|  9>
| 10> * xyz 0 1
| 11>   C                      2.953656             5.759640             8.458407
| 12>   O                      4.178805             5.428649             9.155973
| 13>   H                      4.867220             6.056419             8.900703
| 14>   H                      3.122589             5.797037             7.348943
| 15>   H                      2.086722             5.043810             8.587986
| 16>   H                      2.712102             6.756478             8.806363
| 17>   C                      4.364925             10.675978            8.489098
| 18>   O                      4.243347             9.309372             8.915826
| 19>   H                      5.063584             8.812677             8.699027
| 20>   H                      3.415212             11.253275            8.585645
| 21>   H                      5.153685             11.261331            8.957028
| 22>   H                      4.507066             10.811050            7.394606
| 23> *
| 24>
| 25> #Run DFT-D3 single point of the molecule with dimer basis set
| 26> $new_job
| 27> %base "20-167_DFT_A"
| 28> ! wB97X-D3 def2-TZVP TIGHTSCF CHELPG PMODEL
| 29>
| 30> %scf
| 31> MaxIter 1000
| 32> end
| 33>
| 34> * xyz 0 1
| 35>   C                      2.953656             5.759640             8.458407
| 36>   O                      4.178805             5.428649             9.155973
| 37>   H                      4.867220             6.056419             8.900703
| 38>   H                      3.122589             5.797037             7.348943
| 39>   H                      2.086722             5.043810             8.587986
| 40>   H                      2.712102             6.756478             8.806363
| 41>   C                    : 4.364925             10.675978            8.489098
| 42>   O                    : 4.243347             9.309372             8.915826
| 43>   H                    : 5.063584             8.812677             8.699027
| 44>   H                    : 3.415212             11.253275            8.585645
| 45>   H                    : 5.153685             11.261331            8.957028
| 46>   H                    : 4.507066             10.811050            7.394606
| 47> *
| 48>
| 49> #Run DFT-D3 single point of the particle with dimer basis set
| 50> $new_job
| 51> %base "20-167_DFT_B"
| 52> ! wB97X-D3 def2-TZVP TIGHTSCF CHELPG PMODEL
| 53>
| 54> %scf
| 55> MaxIter 1000
| 56> end
| 57>
| 58> * xyz 0 1
| 59>   C                    : 2.953656             5.759640             8.458407
| 60>   O                    : 4.178805             5.428649             9.155973
| 61>   H                    : 4.867220             6.056419             8.900703
| 62>   H                    : 3.122589             5.797037             7.348943
| 63>   H                    : 2.086722             5.043810             8.587986
| 64>   H                    : 2.712102             6.756478             8.806363
| 65>   C                      4.364925             10.675978            8.489098
| 66>   O                      4.243347             9.309372             8.915826
| 67>   H                      5.063584             8.812677             8.699027
| 68>   H                      3.415212             11.253275            8.585645
| 69>   H                      5.153685             11.261331            8.957028
| 70>   H                      4.507066             10.811050            7.394606
| 71> *
| 72>
| 73>                          ****END OF INPUT****
 Total Charge           Charge          ....    0
 Multiplicity           Mult            ....    1
 Number of Electrons    NEL             ....   36
Dispersion correction           -0.001444470
FINAL SINGLE POINT ENERGY      -231.461846024281
Dispersion correction           -0.000252178
FINAL SINGLE POINT ENERGY      -115.730082817300

CARTESIAN COORDINATES (ANGSTROEM)
---------------------------------
  C      2.953656    5.759640    8.458407
  O      4.178805    5.428649    9.155973
  H      4.867220    6.056419    8.900703
  H      3.122589    5.797037    7.348943
  H      2.086722    5.043810    8.587986
  H      2.712102    6.756478    8.806363
  C      4.364925   10.675978    8.489098
  O      4.243347    9.309372    8.915826
  H      5.063584    8.812677    8.699027
  H      3.415212   11.253275    8.585645
  H      5.153685   11.261331    8.957028
  H      4.507066   10.811050    7.394606

 Multiplicity           Mult            ....    1
 Number of Electrons    NEL             ....   18
 Basis Dimension        Dim             ....  172

ORBITAL ENERGIES
----------------

  NO   OCC          E(Eh)            E(eV)
   0   2.0000     -19.237755      -523.4859
   1   2.0000     -10.319214      -280.8001
   2   2.0000      -1.126128       -30.6435
   3   2.0000      -0.796696       -21.6792
   4   2.0000      -0.608424       -16.5561
   5   2.0000      -0.538000       -14.6397
   6   2.0000      -0.518802       -14.1173
   7   2.0000      -0.430195       -11.7062
   8   2.0000      -0.377321       -10.2674
   9   0.0000       0.088035         2.3955
  10   0.0000       0.124975         3.4007
  11   0.0000       0.143142         3.8951
  12   0.0000       0.177291         4.8243
  13   0.0000       0.199256         5.4220

MULLIKEN ATOMIC CHARGES
-----------------------
   0 C :   -0.000202
   1 O :    0.000188
   2 H :   -0.000461
   3 H :   -0.000001
   4 H :   -0.000200
   5 H :   -0.004618
   6 C :   -0.178570
   7 O :   -0.474336
   8 H :    0.321516
   9 H :    0.124296
  10 H :    0.109604
  11 H :    0.102785
Sum of atomic charges:    0.0000000

LOEWDIN ATOMIC CHARGES
----------------------
   0 C :   -0.002832
   1 O :   -0.000067
   2 H :   -0.000938
   3 H :   -0.000138
   4 H :   -0.000029
   5 H :   -0.004372
   6 C :   -0.385664
   7 O :   -0.094350
   8 H :    0.183014
   9 H :    0.114767
  10 H :    0.093092
  11 H :    0.097516

  Mayer bond orders larger than 0.1
B(  6-C ,  7-O ) :   1.0018 B(  6-C ,  9-H ) :   0.9733 B(  6-C , 10-H ) :   0.9690
B(  6-C , 11-H ) :   0.9731 B(  7-O ,  8-H ) :   0.8896

Dispersion correction           -0.000289134
FINAL SINGLE POINT ENERGY      -115.731507708017

DIPOLE MOMENT
-------------
                                X             Y             Z
Electronic contribution:     -0.22122      -1.82735       0.73778
Nuclear contribution   :      0.78415       2.08701      -1.05879
                        -----------------------------------------
Total Dipole Moment    :      0.56293       0.25966      -0.32102
                        -----------------------------------------
Magnitude (a.u.)       :      0.69811
Magnitude (Debye)      :      1.77447

Rotational constants in cm-1:     4.417532     0.787296     0.761536
Rotational constants in MHz : 132434.267608 23602.545019 22830.286689

                             ****ORCA TERMINATED NORMALLY****
TOTAL RUN TIME: 0 days 0 hours 0 minutes 57 seconds 635 msec
