                         Program Version 4.1.2  - RELEASE  -
|  1> #Run DFT-D3 single point of the dimer
|  2> ! wB97X-D3 def2-TZVP TIGHTSCF CHELPG PMODEL PAL8
|  3>
|  4> %base "7-190_DFT_AB"
|  5>
|  6> %scf
|  7> MaxIter 1000
|  8> end
|  9>
| 10> * xyz 0 1
| 11>   C                      4.184750             -3.207823            8.563290
| 12>   O                      4.112206             -1.905528            7.976050
| 13>   H                      4.339937             -1.929476            7.006148
| 14>   H                      5.218819             -3.450477            8.968318
| 15>   H                      3.369544             -3.401856            9.220381
| 16>   H                      3.951385             -3.901322            7.759760
| 17>   C                      6.543907             0.449311             9.244139
| 18>   O                      6.257838             -0.791925            9.865285
| 19>   H                      6.309997             -1.488991            9.207539
| 20>   H                      7.617449             0.624545             9.019660
| 21>   H                      6.004958             0.590674             8.323573
| 22>   H                      6.278836             1.251556             9.973509
| 23> *
| 24>
| 25> #Run DFT-D3 single point of the molecule with dimer basis set
| 26> $new_job
| 27> %base "7-190_DFT_A"
| 28> ! wB97X-D3 def2-TZVP TIGHTSCF CHELPG PMODEL
| 29>
| 30> %scf
| 31> MaxIter 1000
| 32> end
| 33>
| 34> * xyz 0 1
| 35>   C                      4.184750             -3.207823            8.563290
| 36>   O                      4.112206             -1.905528            7.976050
| 37>   H                      4.339937             -1.929476            7.006148
| 38>   H                      5.218819             -3.450477            8.968318
| 39>   H                      3.369544             -3.401856            9.220381
| 40>   H                      3.951385             -3.901322            7.759760
| 41>   C                    : 6.543907             0.449311             9.244139
| 42>   O                    : 6.257838             -0.791925            9.865285
| 43>   H                    : 6.309997             -1.488991            9.207539
| 44>   H                    : 7.617449             0.624545             9.019660
| 45>   H                    : 6.004958             0.590674             8.323573
| 46>   H                    : 6.278836             1.251556             9.973509
| 47> *
| 48>
| 49> #Run DFT-D3 single point of the particle with dimer basis set
| 50> $new_job
| 51> %base "7-190_DFT_B"
| 52> ! wB97X-D3 def2-TZVP TIGHTSCF CHELPG PMODEL
| 53>
| 54> %scf
| 55> MaxIter 1000
| 56> end
| 57>
| 58> * xyz 0 1
| 59>   C                    : 4.184750             -3.207823            8.563290
| 60>   O                    : 4.112206             -1.905528            7.976050
| 61>   H                    : 4.339937             -1.929476            7.006148
| 62>   H                    : 5.218819             -3.450477            8.968318
| 63>   H                    : 3.369544             -3.401856            9.220381
| 64>   H                    : 3.951385             -3.901322            7.759760
| 65>   C                      6.543907             0.449311             9.244139
| 66>   O                      6.257838             -0.791925            9.865285
| 67>   H                      6.309997             -1.488991            9.207539
| 68>   H                      7.617449             0.624545             9.019660
| 69>   H                      6.004958             0.590674             8.323573
| 70>   H                      6.278836             1.251556             9.973509
| 71> *
| 72>
| 73>                          ****END OF INPUT****
 Total Charge           Charge          ....    0
 Multiplicity           Mult            ....    1
 Number of Electrons    NEL             ....   36
Dispersion correction           -0.001935281
FINAL SINGLE POINT ENERGY      -231.465521469687
Dispersion correction           -0.000255390
FINAL SINGLE POINT ENERGY      -115.728464420067

CARTESIAN COORDINATES (ANGSTROEM)
---------------------------------
  C      4.184750   -3.207823    8.563290
  O      4.112206   -1.905528    7.976050
  H      4.339937   -1.929476    7.006148
  H      5.218819   -3.450477    8.968318
  H      3.369544   -3.401856    9.220381
  H      3.951385   -3.901322    7.759760
  C      6.543907    0.449311    9.244139
  O      6.257838   -0.791925    9.865285
  H      6.309997   -1.488991    9.207539
  H      7.617449    0.624545    9.019660
  H      6.004958    0.590674    8.323573
  H      6.278836    1.251556    9.973509

 Multiplicity           Mult            ....    1
 Number of Electrons    NEL             ....   18
 Basis Dimension        Dim             ....  172

ORBITAL ENERGIES
----------------

  NO   OCC          E(Eh)            E(eV)
   0   2.0000     -19.233162      -523.3609
   1   2.0000     -10.315547      -280.7003
   2   2.0000      -1.136234       -30.9185
   3   2.0000      -0.795384       -21.6435
   4   2.0000      -0.614220       -16.7138
   5   2.0000      -0.539591       -14.6830
   6   2.0000      -0.522708       -14.2236
   7   2.0000      -0.436009       -11.8644
   8   2.0000      -0.375120       -10.2075
   9   0.0000       0.076649         2.0857
  10   0.0000       0.131813         3.5868
  11   0.0000       0.151599         4.1252
  12   0.0000       0.167333         4.5534
  13   0.0000       0.195236         5.3127

MULLIKEN ATOMIC CHARGES
-----------------------
   0 C :   -0.006607
   1 O :   -0.002344
   2 H :   -0.000081
   3 H :   -0.000292
   4 H :    0.000476
   5 H :    0.000029
   6 C :   -0.168863
   7 O :   -0.466294
   8 H :    0.315235
   9 H :    0.100888
  10 H :    0.107749
  11 H :    0.120104
Sum of atomic charges:   -0.0000000

LOEWDIN ATOMIC CHARGES
----------------------
   0 C :   -0.008822
   1 O :   -0.005945
   2 H :   -0.000514
   3 H :   -0.002891
   4 H :   -0.000172
   5 H :   -0.000141
   6 C :   -0.387002
   7 O :   -0.065105
   8 H :    0.169644
   9 H :    0.095915
  10 H :    0.090477
  11 H :    0.114555

  Mayer bond orders larger than 0.1
B(  6-C ,  7-O ) :   1.0056 B(  6-C ,  9-H ) :   0.9740 B(  6-C , 10-H ) :   0.9735
B(  6-C , 11-H ) :   0.9747 B(  7-O ,  8-H ) :   0.8986

Dispersion correction           -0.000255082
FINAL SINGLE POINT ENERGY      -115.736650852844

DIPOLE MOMENT
-------------
                                X             Y             Z
Electronic contribution:     -0.41960      -1.57955       0.86829
Nuclear contribution   :      0.56310       1.64493      -1.53000
                        -----------------------------------------
Total Dipole Moment    :      0.14350       0.06538      -0.66171
                        -----------------------------------------
Magnitude (a.u.)       :      0.68024
Magnitude (Debye)      :      1.72903

Rotational constants in cm-1:     4.306987     0.823894     0.791326
Rotational constants in MHz : 129120.215434 24699.709481 23723.371139

                             ****ORCA TERMINATED NORMALLY****
TOTAL RUN TIME: 0 days 0 hours 1 minutes 6 seconds 875 msec
