                         Program Version 4.1.2  - RELEASE  -
|  1> #Run DFT-D3 single point of the dimer
|  2> ! wB97X-D3 def2-TZVP TIGHTSCF CHELPG PMODEL PAL8
|  3>
|  4> %base "10-94_DFT_AB"
|  5>
|  6> %scf
|  7> MaxIter 1000
|  8> end
|  9>
| 10> * xyz 0 1
| 11>   C                      0.325050             3.682876             4.670970
| 12>   O                      -0.846528            4.166738             4.035653
| 13>   H                      -1.548622            4.059657             4.702336
| 14>   H                      0.917244             3.089913             4.008710
| 15>   H                      1.078371             4.362851             4.962118
| 16>   H                      0.047949             3.124406             5.575140
| 17>   C                      4.262847             0.709514             5.516234
| 18>   O                      3.249038             1.221760             4.607938
| 19>   H                      2.759917             0.525777             4.274813
| 20>   H                      5.064640             1.369477             5.723628
| 21>   H                      3.836143             0.461897             6.456810
| 22>   H                      4.748013             -0.205630            5.211231
| 23> *
| 24>
| 25> #Run DFT-D3 single point of the molecule with dimer basis set
| 26> $new_job
| 27> %base "10-94_DFT_A"
| 28> ! wB97X-D3 def2-TZVP TIGHTSCF CHELPG PMODEL
| 29>
| 30> %scf
| 31> MaxIter 1000
| 32> end
| 33>
| 34> * xyz 0 1
| 35>   C                      0.325050             3.682876             4.670970
| 36>   O                      -0.846528            4.166738             4.035653
| 37>   H                      -1.548622            4.059657             4.702336
| 38>   H                      0.917244             3.089913             4.008710
| 39>   H                      1.078371             4.362851             4.962118
| 40>   H                      0.047949             3.124406             5.575140
| 41>   C                    : 4.262847             0.709514             5.516234
| 42>   O                    : 3.249038             1.221760             4.607938
| 43>   H                    : 2.759917             0.525777             4.274813
| 44>   H                    : 5.064640             1.369477             5.723628
| 45>   H                    : 3.836143             0.461897             6.456810
| 46>   H                    : 4.748013             -0.205630            5.211231
| 47> *
| 48>
| 49> #Run DFT-D3 single point of the particle with dimer basis set
| 50> $new_job
| 51> %base "10-94_DFT_B"
| 52> ! wB97X-D3 def2-TZVP TIGHTSCF CHELPG PMODEL
| 53>
| 54> %scf
| 55> MaxIter 1000
| 56> end
| 57>
| 58> * xyz 0 1
| 59>   C                    : 0.325050             3.682876             4.670970
| 60>   O                    : -0.846528            4.166738             4.035653
| 61>   H                    : -1.548622            4.059657             4.702336
| 62>   H                    : 0.917244             3.089913             4.008710
| 63>   H                    : 1.078371             4.362851             4.962118
| 64>   H                    : 0.047949             3.124406             5.575140
| 65>   C                      4.262847             0.709514             5.516234
| 66>   O                      3.249038             1.221760             4.607938
| 67>   H                      2.759917             0.525777             4.274813
| 68>   H                      5.064640             1.369477             5.723628
| 69>   H                      3.836143             0.461897             6.456810
| 70>   H                      4.748013             -0.205630            5.211231
| 71> *
| 72>
| 73>                          ****END OF INPUT****
 Total Charge           Charge          ....    0
 Multiplicity           Mult            ....    1
 Number of Electrons    NEL             ....   36
Dispersion correction           -0.001149920
FINAL SINGLE POINT ENERGY      -231.458836980566
Dispersion correction           -0.000247701
FINAL SINGLE POINT ENERGY      -115.728430878315

CARTESIAN COORDINATES (ANGSTROEM)
---------------------------------
  C      0.325050    3.682876    4.670970
  O     -0.846528    4.166738    4.035653
  H     -1.548622    4.059657    4.702336
  H      0.917244    3.089913    4.008710
  H      1.078371    4.362851    4.962118
  H      0.047949    3.124406    5.575140
  C      4.262847    0.709514    5.516234
  O      3.249038    1.221760    4.607938
  H      2.759917    0.525777    4.274813
  H      5.064640    1.369477    5.723628
  H      3.836143    0.461897    6.456810
  H      4.748013   -0.205630    5.211231

 Multiplicity           Mult            ....    1
 Number of Electrons    NEL             ....   18
 Basis Dimension        Dim             ....  172

ORBITAL ENERGIES
----------------

  NO   OCC          E(Eh)            E(eV)
   0   2.0000     -19.227862      -523.2167
   1   2.0000     -10.309268      -280.5294
   2   2.0000      -1.134037       -30.8587
   3   2.0000      -0.811620       -22.0853
   4   2.0000      -0.614256       -16.7148
   5   2.0000      -0.538649       -14.6574
   6   2.0000      -0.528065       -14.3694
   7   2.0000      -0.439407       -11.9569
   8   2.0000      -0.377911       -10.2835
   9   0.0000       0.096886         2.6364
  10   0.0000       0.124187         3.3793
  11   0.0000       0.149320         4.0632
  12   0.0000       0.183209         4.9854
  13   0.0000       0.200933         5.4677

MULLIKEN ATOMIC CHARGES
-----------------------
   0 C :    0.000180
   1 O :   -0.000060
   2 H :   -0.000009
   3 H :   -0.003278
   4 H :   -0.000774
   5 H :   -0.000668
   6 C :   -0.167998
   7 O :   -0.469710
   8 H :    0.306395
   9 H :    0.126229
  10 H :    0.106455
  11 H :    0.103239
Sum of atomic charges:   -0.0000000

LOEWDIN ATOMIC CHARGES
----------------------
   0 C :   -0.003688
   1 O :   -0.000023
   2 H :   -0.000008
   3 H :   -0.003214
   4 H :   -0.000279
   5 H :   -0.000355
   6 C :   -0.344331
   7 O :   -0.071713
   8 H :    0.135132
   9 H :    0.102020
  10 H :    0.091181
  11 H :    0.095277

  Mayer bond orders larger than 0.1
B(  6-C ,  7-O ) :   0.9921 B(  6-C ,  9-H ) :   0.9752 B(  6-C , 10-H ) :   0.9807
B(  6-C , 11-H ) :   0.9758 B(  7-O ,  8-H ) :   0.9097

Dispersion correction           -0.000262244
FINAL SINGLE POINT ENERGY      -115.728973477267

DIPOLE MOMENT
-------------
                                X             Y             Z
Electronic contribution:     -1.22740       0.82310      -1.18912
Nuclear contribution   :      1.36537      -1.51876       1.36862
                        -----------------------------------------
Total Dipole Moment    :      0.13797      -0.69566       0.17950
                        -----------------------------------------
Magnitude (a.u.)       :      0.73158
Magnitude (Debye)      :      1.85952

Rotational constants in cm-1:     4.748275     0.786666     0.761967
Rotational constants in MHz : 142349.694947 23583.651325 22843.205126

                             ****ORCA TERMINATED NORMALLY****
TOTAL RUN TIME: 0 days 0 hours 0 minutes 59 seconds 313 msec
