                         Program Version 4.1.2  - RELEASE  -
|  1> #Run DFT-D3 single point of the dimer
|  2> ! wB97X-D3 def2-TZVP TIGHTSCF  CHELPG PAL8
|  3>
|  4> %base "4_charges"
|  5>
|  6> %scf
|  7> MaxIter 1000
|  8> end
|  9> %output
| 10>   Print[ P_Mayer ] 1
| 11>   Print[ P_NatPop ] 1
| 12>   Print[ P_Hirshfeld ] 1
| 13>   Print[ P_Mulliken ] 1
| 14>   Print [ P_Loewdin ] 1
| 15> end
| 16>
| 17> * xyz 0 1
| 18>   C                      -6.669234            -6.682207            4.027154
| 19>   O                      -6.441254            -8.025210            4.380223
| 20>   H                      -5.912950            -8.458630            3.687130
| 21>   H                      -7.144760            -6.075199            4.793607
| 22>   H                      -5.752441            -6.241221            3.771780
| 23>   H                      -7.269830            -6.677949            3.088454
| 24> *
| 25>
| 26>                          ****END OF INPUT****

CARTESIAN COORDINATES (ANGSTROEM)
---------------------------------
  C     -6.669234   -6.682207    4.027154
  O     -6.441254   -8.025210    4.380223
  H     -5.912950   -8.458630    3.687130
  H     -7.144760   -6.075199    4.793607
  H     -5.752441   -6.241221    3.771780
  H     -7.269830   -6.677949    3.088454

 Total Charge           Charge          ....    0
 Multiplicity           Mult            ....    1
 Number of Electrons    NEL             ....   18
 Basis Dimension        Dim             ....   86

ORBITAL ENERGIES
----------------

  NO   OCC          E(Eh)            E(eV)
   0   2.0000     -19.227224      -523.1994
   1   2.0000     -10.308956      -280.5210
   2   2.0000      -1.133508       -30.8443
   3   2.0000      -0.796224       -21.6664
   4   2.0000      -0.610892       -16.6232
   5   2.0000      -0.540654       -14.7119
   6   2.0000      -0.535754       -14.5786
   7   2.0000      -0.430636       -11.7182
   8   2.0000      -0.367797       -10.0083
   9   0.0000       0.113190         3.0800
  10   0.0000       0.156490         4.2583
  11   0.0000       0.203740         5.5440
  12   0.0000       0.208249         5.6667
  13   0.0000       0.225330         6.1316

MULLIKEN ATOMIC CHARGES
-----------------------
   0 C :   -0.157518
   1 O :   -0.482972
   2 H :    0.317940
   3 H :    0.124336
   4 H :    0.102902
   5 H :    0.095313
Sum of atomic charges:    0.0000000

LOEWDIN ATOMIC CHARGES
----------------------
   0 C :   -0.384211
   1 O :   -0.084241
   2 H :    0.177628
   3 H :    0.107938
   4 H :    0.084448
   5 H :    0.098439

  Mayer bond orders larger than 0.1
B(  0-C ,  1-O ) :   0.9900 B(  0-C ,  3-H ) :   0.9684 B(  0-C ,  4-H ) :   0.9836
B(  0-C ,  5-H ) :   0.9834 B(  1-O ,  2-H ) :   0.8935

Dispersion correction           -0.000220641
FINAL SINGLE POINT ENERGY      -115.731981641887

DIPOLE MOMENT
-------------
                                X             Y             Z
Electronic contribution:      0.20415      -1.63441       0.71376
Nuclear contribution   :      0.06380       1.91297      -1.28816
                        -----------------------------------------
Total Dipole Moment    :      0.26795       0.27856      -0.57440
                        -----------------------------------------
Magnitude (a.u.)       :      0.69234
Magnitude (Debye)      :      1.75978

Rotational constants in cm-1:     4.358482     0.841457     0.806680
Rotational constants in MHz : 130664.015223 25226.239476 24183.646568

                             ****ORCA TERMINATED NORMALLY****
TOTAL RUN TIME: 0 days 0 hours 0 minutes 41 seconds 922 msec
