                         Program Version 4.1.2  - RELEASE  -
|  1> #Run DFT-D3 single point of the dimer
|  2> ! wB97X-D3 def2-TZVP TIGHTSCF CHELPG PMODEL PAL8
|  3>
|  4> %base "12-123_DFT_AB"
|  5>
|  6> %scf
|  7> MaxIter 1000
|  8> end
|  9>
| 10> * xyz 0 1
| 11>   C                      5.041484             0.838788             -10.238675
| 12>   O                      5.819036             1.876236             -9.692237
| 13>   H                      5.582143             1.881685             -8.727786
| 14>   H                      4.053513             1.244202             -10.335477
| 15>   H                      5.368006             0.435696             -11.233262
| 16>   H                      4.956666             -0.013747            -9.578438
| 17>   C                      7.663454             -1.331187            -11.041002
| 18>   O                      6.348020             -2.025588            -10.746305
| 19>   H                      5.803920             -2.178202            -11.586460
| 20>   H                      8.542384             -1.844241            -10.580069
| 21>   H                      7.906069             -1.491009            -12.091768
| 22>   H                      7.700357             -0.293010            -10.720722
| 23> *
| 24>
| 25> #Run DFT-D3 single point of the molecule with dimer basis set
| 26> $new_job
| 27> %base "12-123_DFT_A"
| 28> ! wB97X-D3 def2-TZVP TIGHTSCF CHELPG PMODEL
| 29>
| 30> %scf
| 31> MaxIter 1000
| 32> end
| 33>
| 34> * xyz 0 1
| 35>   C                      5.041484             0.838788             -10.238675
| 36>   O                      5.819036             1.876236             -9.692237
| 37>   H                      5.582143             1.881685             -8.727786
| 38>   H                      4.053513             1.244202             -10.335477
| 39>   H                      5.368006             0.435696             -11.233262
| 40>   H                      4.956666             -0.013747            -9.578438
| 41>   C                    : 7.663454             -1.331187            -11.041002
| 42>   O                    : 6.348020             -2.025588            -10.746305
| 43>   H                    : 5.803920             -2.178202            -11.586460
| 44>   H                    : 8.542384             -1.844241            -10.580069
| 45>   H                    : 7.906069             -1.491009            -12.091768
| 46>   H                    : 7.700357             -0.293010            -10.720722
| 47> *
| 48>
| 49> #Run DFT-D3 single point of the particle with dimer basis set
| 50> $new_job
| 51> %base "12-123_DFT_B"
| 52> ! wB97X-D3 def2-TZVP TIGHTSCF CHELPG PMODEL
| 53>
| 54> %scf
| 55> MaxIter 1000
| 56> end
| 57>
| 58> * xyz 0 1
| 59>   C                    : 5.041484             0.838788             -10.238675
| 60>   O                    : 5.819036             1.876236             -9.692237
| 61>   H                    : 5.582143             1.881685             -8.727786
| 62>   H                    : 4.053513             1.244202             -10.335477
| 63>   H                    : 5.368006             0.435696             -11.233262
| 64>   H                    : 4.956666             -0.013747            -9.578438
| 65>   C                      7.663454             -1.331187            -11.041002
| 66>   O                      6.348020             -2.025588            -10.746305
| 67>   H                      5.803920             -2.178202            -11.586460
| 68>   H                      8.542384             -1.844241            -10.580069
| 69>   H                      7.906069             -1.491009            -12.091768
| 70>   H                      7.700357             -0.293010            -10.720722
| 71> *
| 72>
| 73>                          ****END OF INPUT****
 Total Charge           Charge          ....    0
 Multiplicity           Mult            ....    1
 Number of Electrons    NEL             ....   36
Dispersion correction           -0.002220452
FINAL SINGLE POINT ENERGY      -231.455190976046
Dispersion correction           -0.000223153
FINAL SINGLE POINT ENERGY      -115.730725583217

CARTESIAN COORDINATES (ANGSTROEM)
---------------------------------
  C      5.041484    0.838788  -10.238675
  O      5.819036    1.876236   -9.692237
  H      5.582143    1.881685   -8.727786
  H      4.053513    1.244202  -10.335477
  H      5.368006    0.435696  -11.233262
  H      4.956666   -0.013747   -9.578438
  C      7.663454   -1.331187  -11.041002
  O      6.348020   -2.025588  -10.746305
  H      5.803920   -2.178202  -11.586460
  H      8.542384   -1.844241  -10.580069
  H      7.906069   -1.491009  -12.091768
  H      7.700357   -0.293010  -10.720722

 Multiplicity           Mult            ....    1
 Number of Electrons    NEL             ....   18
 Basis Dimension        Dim             ....  172

ORBITAL ENERGIES
----------------

  NO   OCC          E(Eh)            E(eV)
   0   2.0000     -19.234617      -523.4005
   1   2.0000     -10.324609      -280.9469
   2   2.0000      -1.096487       -29.8369
   3   2.0000      -0.798415       -21.7260
   4   2.0000      -0.587251       -15.9799
   5   2.0000      -0.539150       -14.6710
   6   2.0000      -0.513170       -13.9641
   7   2.0000      -0.425179       -11.5697
   8   2.0000      -0.377652       -10.2764
   9   0.0000       0.088550         2.4096
  10   0.0000       0.117479         3.1968
  11   0.0000       0.141541         3.8515
  12   0.0000       0.175610         4.7786
  13   0.0000       0.192606         5.2411

MULLIKEN ATOMIC CHARGES
-----------------------
   0 C :    0.009441
   1 O :   -0.000570
   2 H :   -0.000099
   3 H :   -0.000341
   4 H :   -0.010487
   5 H :   -0.005679
   6 C :   -0.179574
   7 O :   -0.502279
   8 H :    0.322487
   9 H :    0.124127
  10 H :    0.117374
  11 H :    0.125600
Sum of atomic charges:    0.0000000

LOEWDIN ATOMIC CHARGES
----------------------
   0 C :   -0.017050
   1 O :   -0.000528
   2 H :   -0.000045
   3 H :   -0.000090
   4 H :   -0.007599
   5 H :   -0.007260
   6 C :   -0.318750
   7 O :   -0.153114
   8 H :    0.191806
   9 H :    0.110638
  10 H :    0.100030
  11 H :    0.101963

  Mayer bond orders larger than 0.1
B(  6-C ,  7-O ) :   0.9863 B(  6-C ,  9-H ) :   0.9726 B(  6-C , 10-H ) :   0.9817
B(  6-C , 11-H ) :   0.9725 B(  7-O ,  8-H ) :   0.8898

Dispersion correction           -0.000308434
FINAL SINGLE POINT ENERGY      -115.722666935034

DIPOLE MOMENT
-------------
                                X             Y             Z
Electronic contribution:     -1.59099      -0.71301       0.53805
Nuclear contribution   :      1.88044       0.90117      -1.21804
                        -----------------------------------------
Total Dipole Moment    :      0.28945       0.18816      -0.67999
                        -----------------------------------------
Magnitude (a.u.)       :      0.76261
Magnitude (Debye)      :      1.93839

Rotational constants in cm-1:     4.294799     0.725957     0.706234
Rotational constants in MHz : 128754.822845 21763.629233 21172.368511

                             ****ORCA TERMINATED NORMALLY****
TOTAL RUN TIME: 0 days 0 hours 1 minutes 7 seconds 148 msec
