                         Program Version 4.1.2  - RELEASE  -
|  1> #Run DFT-D3 single point of the dimer
|  2> ! wB97X-D3 def2-TZVP TIGHTSCF CHELPG PMODEL PAL8
|  3>
|  4> %base "3-160_DFT_AB"
|  5>
|  6> %scf
|  7> MaxIter 1000
|  8> end
|  9>
| 10> * xyz 0 1
| 11>   C                      5.253205             4.507074             -3.053376
| 12>   O                      5.078979             3.592392             -4.076095
| 13>   H                      5.864764             3.683690             -4.620839
| 14>   H                      4.340975             4.627776             -2.440658
| 15>   H                      6.206101             4.469384             -2.478846
| 16>   H                      5.314553             5.510813             -3.427747
| 17>   C                      3.512839             1.177187             -5.789194
| 18>   O                      2.583156             1.705819             -6.689559
| 19>   H                      2.631738             2.645164             -6.514233
| 20>   H                      4.508902             1.464756             -6.060541
| 21>   H                      3.381651             1.600966             -4.774325
| 22>   H                      3.464269             0.111674             -5.659325
| 23> *
| 24>
| 25> #Run DFT-D3 single point of the molecule with dimer basis set
| 26> $new_job
| 27> %base "3-160_DFT_A"
| 28> ! wB97X-D3 def2-TZVP TIGHTSCF CHELPG PMODEL
| 29>
| 30> %scf
| 31> MaxIter 1000
| 32> end
| 33>
| 34> * xyz 0 1
| 35>   C                      5.253205             4.507074             -3.053376
| 36>   O                      5.078979             3.592392             -4.076095
| 37>   H                      5.864764             3.683690             -4.620839
| 38>   H                      4.340975             4.627776             -2.440658
| 39>   H                      6.206101             4.469384             -2.478846
| 40>   H                      5.314553             5.510813             -3.427747
| 41>   C                    : 3.512839             1.177187             -5.789194
| 42>   O                    : 2.583156             1.705819             -6.689559
| 43>   H                    : 2.631738             2.645164             -6.514233
| 44>   H                    : 4.508902             1.464756             -6.060541
| 45>   H                    : 3.381651             1.600966             -4.774325
| 46>   H                    : 3.464269             0.111674             -5.659325
| 47> *
| 48>
| 49> #Run DFT-D3 single point of the particle with dimer basis set
| 50> $new_job
| 51> %base "3-160_DFT_B"
| 52> ! wB97X-D3 def2-TZVP TIGHTSCF CHELPG PMODEL
| 53>
| 54> %scf
| 55> MaxIter 1000
| 56> end
| 57>
| 58> * xyz 0 1
| 59>   C                    : 5.253205             4.507074             -3.053376
| 60>   O                    : 5.078979             3.592392             -4.076095
| 61>   H                    : 5.864764             3.683690             -4.620839
| 62>   H                    : 4.340975             4.627776             -2.440658
| 63>   H                    : 6.206101             4.469384             -2.478846
| 64>   H                    : 5.314553             5.510813             -3.427747
| 65>   C                      3.512839             1.177187             -5.789194
| 66>   O                      2.583156             1.705819             -6.689559
| 67>   H                      2.631738             2.645164             -6.514233
| 68>   H                      4.508902             1.464756             -6.060541
| 69>   H                      3.381651             1.600966             -4.774325
| 70>   H                      3.464269             0.111674             -5.659325
| 71> *
| 72>
| 73>                          ****END OF INPUT****
 Total Charge           Charge          ....    0
 Multiplicity           Mult            ....    1
 Number of Electrons    NEL             ....   36
Dispersion correction           -0.001507784
FINAL SINGLE POINT ENERGY      -231.464532050126
Dispersion correction           -0.000230770
FINAL SINGLE POINT ENERGY      -115.728948601798

CARTESIAN COORDINATES (ANGSTROEM)
---------------------------------
  C      5.253205    4.507074   -3.053376
  O      5.078979    3.592392   -4.076095
  H      5.864764    3.683690   -4.620839
  H      4.340975    4.627776   -2.440658
  H      6.206101    4.469384   -2.478846
  H      5.314553    5.510813   -3.427747
  C      3.512839    1.177187   -5.789194
  O      2.583156    1.705819   -6.689559
  H      2.631738    2.645164   -6.514233
  H      4.508902    1.464756   -6.060541
  H      3.381651    1.600966   -4.774325
  H      3.464269    0.111674   -5.659325

 Multiplicity           Mult            ....    1
 Number of Electrons    NEL             ....   18
 Basis Dimension        Dim             ....  172

ORBITAL ENERGIES
----------------

  NO   OCC          E(Eh)            E(eV)
   0   2.0000     -19.231609      -523.3187
   1   2.0000     -10.309172      -280.5268
   2   2.0000      -1.145963       -31.1832
   3   2.0000      -0.795909       -21.6578
   4   2.0000      -0.615430       -16.7467
   5   2.0000      -0.544637       -14.8203
   6   2.0000      -0.532214       -14.4823
   7   2.0000      -0.439605       -11.9623
   8   2.0000      -0.371887       -10.1196
   9   0.0000       0.075345         2.0502
  10   0.0000       0.117630         3.2009
  11   0.0000       0.150866         4.1053
  12   0.0000       0.162523         4.4225
  13   0.0000       0.191151         5.2015

MULLIKEN ATOMIC CHARGES
-----------------------
   0 C :   -0.000620
   1 O :   -0.000527
   2 H :   -0.000261
   3 H :   -0.000029
   4 H :    0.000002
   5 H :    0.000003
   6 C :   -0.166952
   7 O :   -0.459952
   8 H :    0.315238
   9 H :    0.095161
  10 H :    0.094677
  11 H :    0.123260
Sum of atomic charges:    0.0000000

LOEWDIN ATOMIC CHARGES
----------------------
   0 C :   -0.000544
   1 O :   -0.004429
   2 H :   -0.001005
   3 H :   -0.000052
   4 H :   -0.000008
   5 H :   -0.000014
   6 C :   -0.396426
   7 O :   -0.061339
   8 H :    0.172902
   9 H :    0.089514
  10 H :    0.097752
  11 H :    0.103650

  Mayer bond orders larger than 0.1
B(  6-C ,  7-O ) :   1.0008 B(  6-C ,  9-H ) :   0.9798 B(  6-C , 10-H ) :   0.9836
B(  6-C , 11-H ) :   0.9700 B(  7-O ,  8-H ) :   0.9019

Dispersion correction           -0.000213976
FINAL SINGLE POINT ENERGY      -115.733464051955

DIPOLE MOMENT
-------------
                                X             Y             Z
Electronic contribution:     -1.30110       0.44967      -1.34496
Nuclear contribution   :      1.68202      -0.07368       1.80201
                        -----------------------------------------
Total Dipole Moment    :      0.38092       0.37599       0.45705
                        -----------------------------------------
Magnitude (a.u.)       :      0.70382
Magnitude (Debye)      :      1.78896

Rotational constants in cm-1:     4.384230     0.851933     0.816497
Rotational constants in MHz : 131435.919367 25540.321711 24477.966469

                             ****ORCA TERMINATED NORMALLY****
TOTAL RUN TIME: 0 days 0 hours 5 minutes 31 seconds 430 msec
