                         Program Version 4.1.2  - RELEASE  -
|  1> #Run DFT-D3 single point of the dimer
|  2> ! wB97X-D3 def2-TZVP TIGHTSCF CHELPG PMODEL PAL8
|  3>
|  4> %base "14-83_DFT_AB"
|  5>
|  6> %scf
|  7> MaxIter 1000
|  8> end
|  9>
| 10> * xyz 0 1
| 11>   C                      -4.858137            8.794378             -2.162719
| 12>   O                      -5.057893            9.023676             -0.762485
| 13>   H                      -4.277961            8.800261             -0.211867
| 14>   H                      -5.459045            7.976104             -2.597022
| 15>   H                      -5.076426            9.725379             -2.688449
| 16>   H                      -3.806476            8.543483             -2.442663
| 17>   C                      -9.277609            10.868019            -1.398150
| 18>   O                      -8.154340            10.046365            -1.469063
| 19>   H                      -7.347590            10.604920            -1.316644
| 20>   H                      -9.766272            10.984806            -2.377752
| 21>   H                      -9.969901            10.522465            -0.732138
| 22>   H                      -9.056871            11.852920            -1.020182
| 23> *
| 24>
| 25> #Run DFT-D3 single point of the molecule with dimer basis set
| 26> $new_job
| 27> %base "14-83_DFT_A"
| 28> ! wB97X-D3 def2-TZVP TIGHTSCF CHELPG PMODEL
| 29>
| 30> %scf
| 31> MaxIter 1000
| 32> end
| 33>
| 34> * xyz 0 1
| 35>   C                      -4.858137            8.794378             -2.162719
| 36>   O                      -5.057893            9.023676             -0.762485
| 37>   H                      -4.277961            8.800261             -0.211867
| 38>   H                      -5.459045            7.976104             -2.597022
| 39>   H                      -5.076426            9.725379             -2.688449
| 40>   H                      -3.806476            8.543483             -2.442663
| 41>   C                    : -9.277609            10.868019            -1.398150
| 42>   O                    : -8.154340            10.046365            -1.469063
| 43>   H                    : -7.347590            10.604920            -1.316644
| 44>   H                    : -9.766272            10.984806            -2.377752
| 45>   H                    : -9.969901            10.522465            -0.732138
| 46>   H                    : -9.056871            11.852920            -1.020182
| 47> *
| 48>
| 49> #Run DFT-D3 single point of the particle with dimer basis set
| 50> $new_job
| 51> %base "14-83_DFT_B"
| 52> ! wB97X-D3 def2-TZVP TIGHTSCF CHELPG PMODEL
| 53>
| 54> %scf
| 55> MaxIter 1000
| 56> end
| 57>
| 58> * xyz 0 1
| 59>   C                    : -4.858137            8.794378             -2.162719
| 60>   O                    : -5.057893            9.023676             -0.762485
| 61>   H                    : -4.277961            8.800261             -0.211867
| 62>   H                    : -5.459045            7.976104             -2.597022
| 63>   H                    : -5.076426            9.725379             -2.688449
| 64>   H                    : -3.806476            8.543483             -2.442663
| 65>   C                      -9.277609            10.868019            -1.398150
| 66>   O                      -8.154340            10.046365            -1.469063
| 67>   H                      -7.347590            10.604920            -1.316644
| 68>   H                      -9.766272            10.984806            -2.377752
| 69>   H                      -9.969901            10.522465            -0.732138
| 70>   H                      -9.056871            11.852920            -1.020182
| 71> *
| 72>
| 73>                          ****END OF INPUT****
 Total Charge           Charge          ....    0
 Multiplicity           Mult            ....    1
 Number of Electrons    NEL             ....   36
Dispersion correction           -0.001502549
FINAL SINGLE POINT ENERGY      -231.464500792678
Dispersion correction           -0.000282954
FINAL SINGLE POINT ENERGY      -115.732865707427

CARTESIAN COORDINATES (ANGSTROEM)
---------------------------------
  C     -4.858137    8.794378   -2.162719
  O     -5.057893    9.023676   -0.762485
  H     -4.277961    8.800261   -0.211867
  H     -5.459045    7.976104   -2.597022
  H     -5.076426    9.725379   -2.688449
  H     -3.806476    8.543483   -2.442663
  C     -9.277609   10.868019   -1.398150
  O     -8.154340   10.046365   -1.469063
  H     -7.347590   10.604920   -1.316644
  H     -9.766272   10.984806   -2.377752
  H     -9.969901   10.522465   -0.732138
  H     -9.056871   11.852920   -1.020182

 Multiplicity           Mult            ....    1
 Number of Electrons    NEL             ....   18
 Basis Dimension        Dim             ....  172

ORBITAL ENERGIES
----------------

  NO   OCC          E(Eh)            E(eV)
   0   2.0000     -19.232868      -523.3529
   1   2.0000     -10.301478      -280.3175
   2   2.0000      -1.136253       -30.9190
   3   2.0000      -0.800300       -21.7773
   4   2.0000      -0.614636       -16.7251
   5   2.0000      -0.547346       -14.8941
   6   2.0000      -0.530834       -14.4447
   7   2.0000      -0.430575       -11.7165
   8   2.0000      -0.373475       -10.1628
   9   0.0000       0.082073         2.2333
  10   0.0000       0.121583         3.3084
  11   0.0000       0.156126         4.2484
  12   0.0000       0.166873         4.5409
  13   0.0000       0.197876         5.3845

MULLIKEN ATOMIC CHARGES
-----------------------
   0 C :    0.000207
   1 O :   -0.000569
   2 H :   -0.000026
   3 H :   -0.000593
   4 H :   -0.002856
   5 H :   -0.000203
   6 C :   -0.166241
   7 O :   -0.470126
   8 H :    0.324088
   9 H :    0.100016
  10 H :    0.117632
  11 H :    0.098670
Sum of atomic charges:   -0.0000000

LOEWDIN ATOMIC CHARGES
----------------------
   0 C :   -0.004334
   1 O :   -0.001718
   2 H :   -0.000064
   3 H :   -0.000496
   4 H :   -0.001473
   5 H :   -0.000047
   6 C :   -0.393521
   7 O :   -0.072117
   8 H :    0.193505
   9 H :    0.100576
  10 H :    0.085314
  11 H :    0.094375

  Mayer bond orders larger than 0.1
B(  6-C ,  7-O ) :   1.0166 B(  6-C ,  9-H ) :   0.9779 B(  6-C , 10-H ) :   0.9758
B(  6-C , 11-H ) :   0.9878 B(  7-O ,  8-H ) :   0.8901

Dispersion correction           -0.000238556
FINAL SINGLE POINT ENERGY      -115.730003522295

DIPOLE MOMENT
-------------
                                X             Y             Z
Electronic contribution:      1.36876      -1.24486      -0.08734
Nuclear contribution   :     -1.30153       1.93763       0.25192
                        -----------------------------------------
Total Dipole Moment    :      0.06723       0.69277       0.16458
                        -----------------------------------------
Magnitude (a.u.)       :      0.71521
Magnitude (Debye)      :      1.81793

Rotational constants in cm-1:     4.487379     0.848449     0.818287
Rotational constants in MHz : 134528.228758 25435.847234 24531.641273

                             ****ORCA TERMINATED NORMALLY****
TOTAL RUN TIME: 0 days 0 hours 0 minutes 57 seconds 24 msec
