                         Program Version 4.1.2  - RELEASE  -
|  1> #Run DFT-D3 single point of the dimer
|  2> ! wB97X-D3 def2-TZVP TIGHTSCF CHELPG PMODEL PAL8
|  3>
|  4> %base "15-40_DFT_AB"
|  5>
|  6> %scf
|  7> MaxIter 1000
|  8> end
|  9>
| 10> * xyz 0 1
| 11>   C                      -6.215711            8.702306             -1.753921
| 12>   O                      -6.204522            7.278721             -1.947713
| 13>   H                      -7.104918            7.064609             -2.073756
| 14>   H                      -5.527617            9.106006             -0.946702
| 15>   H                      -5.940116            9.260479             -2.642426
| 16>   H                      -7.167443            9.114555             -1.494518
| 17>   C                      -7.160869            6.900900             -6.549737
| 18>   O                      -8.420499            6.183059             -6.660789
| 19>   H                      -8.290359            5.342258             -7.200524
| 20>   H                      -7.305110            7.763004             -5.867503
| 21>   H                      -6.288862            6.248800             -6.226160
| 22>   H                      -6.708513            7.246835             -7.504801
| 23> *
| 24>
| 25> #Run DFT-D3 single point of the molecule with dimer basis set
| 26> $new_job
| 27> %base "15-40_DFT_A"
| 28> ! wB97X-D3 def2-TZVP TIGHTSCF CHELPG PMODEL
| 29>
| 30> %scf
| 31> MaxIter 1000
| 32> end
| 33>
| 34> * xyz 0 1
| 35>   C                      -6.215711            8.702306             -1.753921
| 36>   O                      -6.204522            7.278721             -1.947713
| 37>   H                      -7.104918            7.064609             -2.073756
| 38>   H                      -5.527617            9.106006             -0.946702
| 39>   H                      -5.940116            9.260479             -2.642426
| 40>   H                      -7.167443            9.114555             -1.494518
| 41>   C                    : -7.160869            6.900900             -6.549737
| 42>   O                    : -8.420499            6.183059             -6.660789
| 43>   H                    : -8.290359            5.342258             -7.200524
| 44>   H                    : -7.305110            7.763004             -5.867503
| 45>   H                    : -6.288862            6.248800             -6.226160
| 46>   H                    : -6.708513            7.246835             -7.504801
| 47> *
| 48>
| 49> #Run DFT-D3 single point of the particle with dimer basis set
| 50> $new_job
| 51> %base "15-40_DFT_B"
| 52> ! wB97X-D3 def2-TZVP TIGHTSCF CHELPG PMODEL
| 53>
| 54> %scf
| 55> MaxIter 1000
| 56> end
| 57>
| 58> * xyz 0 1
| 59>   C                    : -6.215711            8.702306             -1.753921
| 60>   O                    : -6.204522            7.278721             -1.947713
| 61>   H                    : -7.104918            7.064609             -2.073756
| 62>   H                    : -5.527617            9.106006             -0.946702
| 63>   H                    : -5.940116            9.260479             -2.642426
| 64>   H                    : -7.167443            9.114555             -1.494518
| 65>   C                      -7.160869            6.900900             -6.549737
| 66>   O                      -8.420499            6.183059             -6.660789
| 67>   H                      -8.290359            5.342258             -7.200524
| 68>   H                      -7.305110            7.763004             -5.867503
| 69>   H                      -6.288862            6.248800             -6.226160
| 70>   H                      -6.708513            7.246835             -7.504801
| 71> *
| 72>
| 73>                          ****END OF INPUT****
 Total Charge           Charge          ....    0
 Multiplicity           Mult            ....    1
 Number of Electrons    NEL             ....   36
Dispersion correction           -0.000913736
FINAL SINGLE POINT ENERGY      -231.459317101976
Dispersion correction           -0.000266581
FINAL SINGLE POINT ENERGY      -115.730020662192

CARTESIAN COORDINATES (ANGSTROEM)
---------------------------------
  C     -6.215711    8.702306   -1.753921
  O     -6.204522    7.278721   -1.947713
  H     -7.104918    7.064609   -2.073756
  H     -5.527617    9.106006   -0.946702
  H     -5.940116    9.260479   -2.642426
  H     -7.167443    9.114555   -1.494518
  C     -7.160869    6.900900   -6.549737
  O     -8.420499    6.183059   -6.660789
  H     -8.290359    5.342258   -7.200524
  H     -7.305110    7.763004   -5.867503
  H     -6.288862    6.248800   -6.226160
  H     -6.708513    7.246835   -7.504801

 Multiplicity           Mult            ....    1
 Number of Electrons    NEL             ....   18
 Basis Dimension        Dim             ....  172

ORBITAL ENERGIES
----------------

  NO   OCC          E(Eh)            E(eV)
   0   2.0000     -19.237855      -523.4886
   1   2.0000     -10.325189      -280.9627
   2   2.0000      -1.116314       -30.3764
   3   2.0000      -0.790372       -21.5071
   4   2.0000      -0.606062       -16.4918
   5   2.0000      -0.522324       -14.2131
   6   2.0000      -0.515961       -14.0400
   7   2.0000      -0.441286       -12.0080
   8   2.0000      -0.370388       -10.0788
   9   0.0000       0.084880         2.3097
  10   0.0000       0.108940         2.9644
  11   0.0000       0.143266         3.8985
  12   0.0000       0.166308         4.5255
  13   0.0000       0.182505         4.9662

MULLIKEN ATOMIC CHARGES
-----------------------
   0 C :   -0.000062
   1 O :    0.000023
   2 H :    0.000041
   3 H :   -0.000004
   4 H :   -0.000123
   5 H :   -0.000007
   6 C :   -0.174620
   7 O :   -0.479587
   8 H :    0.317472
   9 H :    0.131777
  10 H :    0.103899
  11 H :    0.101191
Sum of atomic charges:    0.0000000

LOEWDIN ATOMIC CHARGES
----------------------
   0 C :   -0.000120
   1 O :   -0.000027
   2 H :   -0.000036
   3 H :   -0.000001
   4 H :   -0.000078
   5 H :   -0.000003
   6 C :   -0.377054
   7 O :   -0.123949
   8 H :    0.192276
   9 H :    0.112966
  10 H :    0.100988
  11 H :    0.095039

  Mayer bond orders larger than 0.1
B(  6-C ,  7-O ) :   1.0013 B(  6-C ,  9-H ) :   0.9722 B(  6-C , 10-H ) :   0.9712
B(  6-C , 11-H ) :   0.9654 B(  7-O ,  8-H ) :   0.8908

Dispersion correction           -0.000293532
FINAL SINGLE POINT ENERGY      -115.728410556925

DIPOLE MOMENT
-------------
                                X             Y             Z
Electronic contribution:     -1.79493      -0.74688      -0.01406
Nuclear contribution   :      2.39244       0.51789      -0.28456
                        -----------------------------------------
Total Dipole Moment    :      0.59751      -0.22900      -0.29862
                        -----------------------------------------
Magnitude (a.u.)       :      0.70614
Magnitude (Debye)      :      1.79486

Rotational constants in cm-1:     4.168341     0.784870     0.742466
Rotational constants in MHz : 124963.716749 23529.818820 22258.576196

                             ****ORCA TERMINATED NORMALLY****
TOTAL RUN TIME: 0 days 0 hours 1 minutes 1 seconds 677 msec
