                         Program Version 4.1.2  - RELEASE  -
|  1> #Run DFT-D3 single point of the dimer
|  2> ! wB97X-D3 def2-TZVP TIGHTSCF CHELPG PMODEL PAL8
|  3>
|  4> %base "1-67_DFT_AB"
|  5>
|  6> %scf
|  7> MaxIter 1000
|  8> end
|  9>
| 10> * xyz 0 1
| 11>   C                      5.651281             -6.607152            -7.131808
| 12>   O                      4.421029             -6.172387            -6.635053
| 13>   H                      3.846128             -6.941923            -6.443546
| 14>   H                      6.331579             -5.736460            -7.229165
| 15>   H                      6.041744             -7.382705            -6.519006
| 16>   H                      5.543523             -7.079936            -8.062609
| 17>   C                      3.946502             -7.017555            -11.156413
| 18>   O                      3.106770             -7.139925            -12.330102
| 19>   H                      3.028908             -6.194602            -12.594775
| 20>   H                      4.441942             -6.025953            -11.098928
| 21>   H                      3.368617             -7.075011            -10.243356
| 22>   H                      4.715273             -7.806995            -11.066128
| 23> *
| 24>
| 25> #Run DFT-D3 single point of the molecule with dimer basis set
| 26> $new_job
| 27> %base "1-67_DFT_A"
| 28> ! wB97X-D3 def2-TZVP TIGHTSCF CHELPG PMODEL
| 29>
| 30> %scf
| 31> MaxIter 1000
| 32> end
| 33>
| 34> * xyz 0 1
| 35>   C                      5.651281             -6.607152            -7.131808
| 36>   O                      4.421029             -6.172387            -6.635053
| 37>   H                      3.846128             -6.941923            -6.443546
| 38>   H                      6.331579             -5.736460            -7.229165
| 39>   H                      6.041744             -7.382705            -6.519006
| 40>   H                      5.543523             -7.079936            -8.062609
| 41>   C                    : 3.946502             -7.017555            -11.156413
| 42>   O                    : 3.106770             -7.139925            -12.330102
| 43>   H                    : 3.028908             -6.194602            -12.594775
| 44>   H                    : 4.441942             -6.025953            -11.098928
| 45>   H                    : 3.368617             -7.075011            -10.243356
| 46>   H                    : 4.715273             -7.806995            -11.066128
| 47> *
| 48>
| 49> #Run DFT-D3 single point of the particle with dimer basis set
| 50> $new_job
| 51> %base "1-67_DFT_B"
| 52> ! wB97X-D3 def2-TZVP TIGHTSCF CHELPG PMODEL
| 53>
| 54> %scf
| 55> MaxIter 1000
| 56> end
| 57>
| 58> * xyz 0 1
| 59>   C                    : 5.651281             -6.607152            -7.131808
| 60>   O                    : 4.421029             -6.172387            -6.635053
| 61>   H                    : 3.846128             -6.941923            -6.443546
| 62>   H                    : 6.331579             -5.736460            -7.229165
| 63>   H                    : 6.041744             -7.382705            -6.519006
| 64>   H                    : 5.543523             -7.079936            -8.062609
| 65>   C                      3.946502             -7.017555            -11.156413
| 66>   O                      3.106770             -7.139925            -12.330102
| 67>   H                      3.028908             -6.194602            -12.594775
| 68>   H                      4.441942             -6.025953            -11.098928
| 69>   H                      3.368617             -7.075011            -10.243356
| 70>   H                      4.715273             -7.806995            -11.066128
| 71> *
| 72>
| 73>                          ****END OF INPUT****
 Total Charge           Charge          ....    0
 Multiplicity           Mult            ....    1
 Number of Electrons    NEL             ....   36
Dispersion correction           -0.001179877
FINAL SINGLE POINT ENERGY      -231.464942418258
Dispersion correction           -0.000217693
FINAL SINGLE POINT ENERGY      -115.732590786803

CARTESIAN COORDINATES (ANGSTROEM)
---------------------------------
  C      5.651281   -6.607152   -7.131808
  O      4.421029   -6.172387   -6.635053
  H      3.846128   -6.941923   -6.443546
  H      6.331579   -5.736460   -7.229165
  H      6.041744   -7.382705   -6.519006
  H      5.543523   -7.079936   -8.062609
  C      3.946502   -7.017555  -11.156413
  O      3.106770   -7.139925  -12.330102
  H      3.028908   -6.194602  -12.594775
  H      4.441942   -6.025953  -11.098928
  H      3.368617   -7.075011  -10.243356
  H      4.715273   -7.806995  -11.066128

 Multiplicity           Mult            ....    1
 Number of Electrons    NEL             ....   18
 Basis Dimension        Dim             ....  172

ORBITAL ENERGIES
----------------

  NO   OCC          E(Eh)            E(eV)
   0   2.0000     -19.236757      -523.4588
   1   2.0000     -10.318121      -280.7703
   2   2.0000      -1.127180       -30.6721
   3   2.0000      -0.792705       -21.5706
   4   2.0000      -0.603095       -16.4111
   5   2.0000      -0.532630       -14.4936
   6   2.0000      -0.524831       -14.2814
   7   2.0000      -0.443639       -12.0720
   8   2.0000      -0.375152       -10.2084
   9   0.0000       0.080094         2.1795
  10   0.0000       0.109233         2.9724
  11   0.0000       0.147147         4.0041
  12   0.0000       0.157062         4.2739
  13   0.0000       0.183219         4.9856

MULLIKEN ATOMIC CHARGES
-----------------------
   0 C :   -0.000646
   1 O :    0.000072
   2 H :   -0.000027
   3 H :    0.000012
   4 H :    0.000018
   5 H :    0.000677
   6 C :   -0.189672
   7 O :   -0.463297
   8 H :    0.318395
   9 H :    0.105640
  10 H :    0.110179
  11 H :    0.118649
Sum of atomic charges:   -0.0000000

LOEWDIN ATOMIC CHARGES
----------------------
   0 C :   -0.000538
   1 O :   -0.000057
   2 H :   -0.000091
   3 H :   -0.000008
   4 H :   -0.000003
   5 H :   -0.000567
   6 C :   -0.374697
   7 O :   -0.109688
   8 H :    0.186355
   9 H :    0.099938
  10 H :    0.094007
  11 H :    0.105349

  Mayer bond orders larger than 0.1
B(  6-C ,  7-O ) :   1.0145 B(  6-C ,  9-H ) :   0.9846 B(  6-C , 10-H ) :   0.9730
B(  6-C , 11-H ) :   0.9730 B(  7-O ,  8-H ) :   0.8996

Dispersion correction           -0.000256998
FINAL SINGLE POINT ENERGY      -115.731388753519

DIPOLE MOMENT
-------------
                                X             Y             Z
Electronic contribution:     -1.09278      -0.38082      -1.56925
Nuclear contribution   :      1.37769       1.02154       1.88109
                        -----------------------------------------
Total Dipole Moment    :      0.28491       0.64071       0.31185
                        -----------------------------------------
Magnitude (a.u.)       :      0.76742
Magnitude (Debye)      :      1.95062

Rotational constants in cm-1:     4.234742     0.802015     0.765121
Rotational constants in MHz : 126954.373685 24043.808219 22937.753339

                             ****ORCA TERMINATED NORMALLY****
TOTAL RUN TIME: 0 days 0 hours 6 minutes 14 seconds 144 msec
