                         Program Version 4.1.2  - RELEASE  -
|  1> #Run DFT-D3 single point of the dimer
|  2> ! wB97X-D3 def2-TZVP TIGHTSCF CHELPG PMODEL PAL8
|  3>
|  4> %base "11-139_DFT_AB"
|  5>
|  6> %scf
|  7> MaxIter 1000
|  8> end
|  9>
| 10> * xyz 0 1
| 11>   C                      -10.729189           10.556752            -1.549944
| 12>   O                      -9.844536            9.442152             -1.851716
| 13>   H                      -10.201714           8.818743             -2.561734
| 14>   H                      -10.139782           11.504818            -1.443811
| 15>   H                      -11.550536           10.656616            -2.308718
| 16>   H                      -11.116407           10.345038            -0.564643
| 17>   C                      -8.520940            6.286076             -4.403232
| 18>   O                      -8.997023            5.176493             -3.581516
| 19>   H                      -8.221202            4.683733             -3.330389
| 20>   H                      -8.499745            7.139739             -3.784151
| 21>   H                      -7.524745            6.049312             -4.681727
| 22>   H                      -9.098874            6.502751             -5.312107
| 23> *
| 24>
| 25> #Run DFT-D3 single point of the molecule with dimer basis set
| 26> $new_job
| 27> %base "11-139_DFT_A"
| 28> ! wB97X-D3 def2-TZVP TIGHTSCF CHELPG PMODEL
| 29>
| 30> %scf
| 31> MaxIter 1000
| 32> end
| 33>
| 34> * xyz 0 1
| 35>   C                      -10.729189           10.556752            -1.549944
| 36>   O                      -9.844536            9.442152             -1.851716
| 37>   H                      -10.201714           8.818743             -2.561734
| 38>   H                      -10.139782           11.504818            -1.443811
| 39>   H                      -11.550536           10.656616            -2.308718
| 40>   H                      -11.116407           10.345038            -0.564643
| 41>   C                    : -8.520940            6.286076             -4.403232
| 42>   O                    : -8.997023            5.176493             -3.581516
| 43>   H                    : -8.221202            4.683733             -3.330389
| 44>   H                    : -8.499745            7.139739             -3.784151
| 45>   H                    : -7.524745            6.049312             -4.681727
| 46>   H                    : -9.098874            6.502751             -5.312107
| 47> *
| 48>
| 49> #Run DFT-D3 single point of the particle with dimer basis set
| 50> $new_job
| 51> %base "11-139_DFT_B"
| 52> ! wB97X-D3 def2-TZVP TIGHTSCF CHELPG PMODEL
| 53>
| 54> %scf
| 55> MaxIter 1000
| 56> end
| 57>
| 58> * xyz 0 1
| 59>   C                    : -10.729189           10.556752            -1.549944
| 60>   O                    : -9.844536            9.442152             -1.851716
| 61>   H                    : -10.201714           8.818743             -2.561734
| 62>   H                    : -10.139782           11.504818            -1.443811
| 63>   H                    : -11.550536           10.656616            -2.308718
| 64>   H                    : -11.116407           10.345038            -0.564643
| 65>   C                      -8.520940            6.286076             -4.403232
| 66>   O                      -8.997023            5.176493             -3.581516
| 67>   H                      -8.221202            4.683733             -3.330389
| 68>   H                      -8.499745            7.139739             -3.784151
| 69>   H                      -7.524745            6.049312             -4.681727
| 70>   H                      -9.098874            6.502751             -5.312107
| 71> *
| 72>
| 73>                          ****END OF INPUT****
 Total Charge           Charge          ....    0
 Multiplicity           Mult            ....    1
 Number of Electrons    NEL             ....   36
Dispersion correction           -0.001039565
FINAL SINGLE POINT ENERGY      -231.460603245220
Dispersion correction           -0.000276731
FINAL SINGLE POINT ENERGY      -115.729154215540

CARTESIAN COORDINATES (ANGSTROEM)
---------------------------------
  C    -10.729189   10.556752   -1.549944
  O     -9.844536    9.442152   -1.851716
  H    -10.201714    8.818743   -2.561734
  H    -10.139782   11.504818   -1.443811
  H    -11.550536   10.656616   -2.308718
  H    -11.116407   10.345038   -0.564643
  C     -8.520940    6.286076   -4.403232
  O     -8.997023    5.176493   -3.581516
  H     -8.221202    4.683733   -3.330389
  H     -8.499745    7.139739   -3.784151
  H     -7.524745    6.049312   -4.681727
  H     -9.098874    6.502751   -5.312107

 Multiplicity           Mult            ....    1
 Number of Electrons    NEL             ....   18
 Basis Dimension        Dim             ....  172

ORBITAL ENERGIES
----------------

  NO   OCC          E(Eh)            E(eV)
   0   2.0000     -19.226150      -523.1701
   1   2.0000     -10.310145      -280.5533
   2   2.0000      -1.123927       -30.5836
   3   2.0000      -0.801548       -21.8112
   4   2.0000      -0.603354       -16.4181
   5   2.0000      -0.541936       -14.7468
   6   2.0000      -0.529248       -14.4016
   7   2.0000      -0.434785       -11.8311
   8   2.0000      -0.374716       -10.1965
   9   0.0000       0.089377         2.4321
  10   0.0000       0.114310         3.1105
  11   0.0000       0.148291         4.0352
  12   0.0000       0.171279         4.6607
  13   0.0000       0.195443         5.3183

MULLIKEN ATOMIC CHARGES
-----------------------
   0 C :   -0.000134
   1 O :   -0.000173
   2 H :    0.001344
   3 H :   -0.000002
   4 H :    0.000005
   5 H :    0.000003
   6 C :   -0.166847
   7 O :   -0.485404
   8 H :    0.313118
   9 H :    0.114862
  10 H :    0.106649
  11 H :    0.116581
Sum of atomic charges:   -0.0000000

LOEWDIN ATOMIC CHARGES
----------------------
   0 C :   -0.000019
   1 O :   -0.000364
   2 H :   -0.001431
   3 H :   -0.000000
   4 H :   -0.000001
   5 H :   -0.000001
   6 C :   -0.338112
   7 O :   -0.109961
   8 H :    0.160738
   9 H :    0.091268
  10 H :    0.091445
  11 H :    0.106438

  Mayer bond orders larger than 0.1
B(  6-C ,  7-O ) :   1.0009 B(  6-C ,  9-H ) :   0.9766 B(  6-C , 10-H ) :   0.9935
B(  6-C , 11-H ) :   0.9703 B(  7-O ,  8-H ) :   0.9050

Dispersion correction           -0.000239715
FINAL SINGLE POINT ENERGY      -115.730478083295

DIPOLE MOMENT
-------------
                                X             Y             Z
Electronic contribution:     -0.77219      -1.27780       0.92531
Nuclear contribution   :      1.49443       1.44077      -1.12007
                        -----------------------------------------
Total Dipole Moment    :      0.72224       0.16296      -0.19475
                        -----------------------------------------
Magnitude (a.u.)       :      0.76559
Magnitude (Debye)      :      1.94596

Rotational constants in cm-1:     4.426636     0.797114     0.769446
Rotational constants in MHz : 132707.194599 23896.867108 23067.417695

                             ****ORCA TERMINATED NORMALLY****
TOTAL RUN TIME: 0 days 0 hours 1 minutes 12 seconds 937 msec
