                         Program Version 4.1.2  - RELEASE  -
|  1> #Run DFT-D3 single point of the dimer
|  2> ! wB97X-D3 def2-TZVP TIGHTSCF CHELPG PMODEL PAL8
|  3>
|  4> %base "20-177_DFT_AB"
|  5>
|  6> %scf
|  7> MaxIter 1000
|  8> end
|  9>
| 10> * xyz 0 1
| 11>   C                      5.397951             -6.825586            -0.794235
| 12>   O                      4.338888             -7.700226            -0.952280
| 13>   H                      3.633912             -7.443674            -0.352395
| 14>   H                      5.994437             -7.092302            0.040421
| 15>   H                      6.045232             -6.752992            -1.683795
| 16>   H                      4.948599             -5.871207            -0.564371
| 17>   C                      1.851827             -7.038614            -3.310081
| 18>   O                      2.407402             -8.242057            -2.933763
| 19>   H                      3.246962             -8.231828            -2.504413
| 20>   H                      1.582758             -6.546518            -2.366470
| 21>   H                      2.475274             -6.384976            -3.821352
| 22>   H                      0.991860             -7.245917            -3.988238
| 23> *
| 24>
| 25> #Run DFT-D3 single point of the molecule with dimer basis set
| 26> $new_job
| 27> %base "20-177_DFT_A"
| 28> ! wB97X-D3 def2-TZVP TIGHTSCF CHELPG PMODEL
| 29>
| 30> %scf
| 31> MaxIter 1000
| 32> end
| 33>
| 34> * xyz 0 1
| 35>   C                      5.397951             -6.825586            -0.794235
| 36>   O                      4.338888             -7.700226            -0.952280
| 37>   H                      3.633912             -7.443674            -0.352395
| 38>   H                      5.994437             -7.092302            0.040421
| 39>   H                      6.045232             -6.752992            -1.683795
| 40>   H                      4.948599             -5.871207            -0.564371
| 41>   C                    : 1.851827             -7.038614            -3.310081
| 42>   O                    : 2.407402             -8.242057            -2.933763
| 43>   H                    : 3.246962             -8.231828            -2.504413
| 44>   H                    : 1.582758             -6.546518            -2.366470
| 45>   H                    : 2.475274             -6.384976            -3.821352
| 46>   H                    : 0.991860             -7.245917            -3.988238
| 47> *
| 48>
| 49> #Run DFT-D3 single point of the particle with dimer basis set
| 50> $new_job
| 51> %base "20-177_DFT_B"
| 52> ! wB97X-D3 def2-TZVP TIGHTSCF CHELPG PMODEL
| 53>
| 54> %scf
| 55> MaxIter 1000
| 56> end
| 57>
| 58> * xyz 0 1
| 59>   C                    : 5.397951             -6.825586            -0.794235
| 60>   O                    : 4.338888             -7.700226            -0.952280
| 61>   H                    : 3.633912             -7.443674            -0.352395
| 62>   H                    : 5.994437             -7.092302            0.040421
| 63>   H                    : 6.045232             -6.752992            -1.683795
| 64>   H                    : 4.948599             -5.871207            -0.564371
| 65>   C                      1.851827             -7.038614            -3.310081
| 66>   O                      2.407402             -8.242057            -2.933763
| 67>   H                      3.246962             -8.231828            -2.504413
| 68>   H                      1.582758             -6.546518            -2.366470
| 69>   H                      2.475274             -6.384976            -3.821352
| 70>   H                      0.991860             -7.245917            -3.988238
| 71> *
| 72>
| 73>                          ****END OF INPUT****
 Total Charge           Charge          ....    0
 Multiplicity           Mult            ....    1
 Number of Electrons    NEL             ....   36
Dispersion correction           -0.001805974
FINAL SINGLE POINT ENERGY      -231.468942742780
Dispersion correction           -0.000210567
FINAL SINGLE POINT ENERGY      -115.732676122499

CARTESIAN COORDINATES (ANGSTROEM)
---------------------------------
  C      5.397951   -6.825586   -0.794235
  O      4.338888   -7.700226   -0.952280
  H      3.633912   -7.443674   -0.352395
  H      5.994437   -7.092302    0.040421
  H      6.045232   -6.752992   -1.683795
  H      4.948599   -5.871207   -0.564371
  C      1.851827   -7.038614   -3.310081
  O      2.407402   -8.242057   -2.933763
  H      3.246962   -8.231828   -2.504413
  H      1.582758   -6.546518   -2.366470
  H      2.475274   -6.384976   -3.821352
  H      0.991860   -7.245917   -3.988238

 Multiplicity           Mult            ....    1
 Number of Electrons    NEL             ....   18
 Basis Dimension        Dim             ....  172

ORBITAL ENERGIES
----------------

  NO   OCC          E(Eh)            E(eV)
   0   2.0000     -19.222376      -523.0674
   1   2.0000     -10.306998      -280.4677
   2   2.0000      -1.143382       -31.1130
   3   2.0000      -0.802758       -21.8442
   4   2.0000      -0.624963       -17.0061
   5   2.0000      -0.551076       -14.9955
   6   2.0000      -0.526975       -14.3397
   7   2.0000      -0.421768       -11.4769
   8   2.0000      -0.368246       -10.0205
   9   0.0000       0.070757         1.9254
  10   0.0000       0.137184         3.7330
  11   0.0000       0.150909         4.1064
  12   0.0000       0.161580         4.3968
  13   0.0000       0.197564         5.3760

MULLIKEN ATOMIC CHARGES
-----------------------
   0 C :   -0.001644
   1 O :   -0.006655
   2 H :   -0.001601
   3 H :   -0.000007
   4 H :    0.000023
   5 H :    0.000093
   6 C :   -0.136056
   7 O :   -0.483791
   8 H :    0.316065
   9 H :    0.093597
  10 H :    0.102531
  11 H :    0.117445
Sum of atomic charges:   -0.0000000

LOEWDIN ATOMIC CHARGES
----------------------
   0 C :   -0.002560
   1 O :   -0.020313
   2 H :   -0.003505
   3 H :   -0.000081
   4 H :   -0.000165
   5 H :   -0.000062
   6 C :   -0.397913
   7 O :   -0.033596
   8 H :    0.163470
   9 H :    0.097907
  10 H :    0.080078
  11 H :    0.116739

  Mayer bond orders larger than 0.1
B(  6-C ,  7-O ) :   0.9852 B(  6-C ,  9-H ) :   0.9879 B(  6-C , 10-H ) :   0.9747
B(  6-C , 11-H ) :   0.9720 B(  7-O ,  8-H ) :   0.8993

Dispersion correction           -0.000231503
FINAL SINGLE POINT ENERGY      -115.729197981578

DIPOLE MOMENT
-------------
                                X             Y             Z
Electronic contribution:      0.66451      -1.54448       0.35094
Nuclear contribution   :     -0.30779       2.03724      -0.24346
                        -----------------------------------------
Total Dipole Moment    :      0.35672       0.49276       0.10747
                        -----------------------------------------
Magnitude (a.u.)       :      0.61775
Magnitude (Debye)      :      1.57018

Rotational constants in cm-1:     4.487840     0.864806     0.831842
Rotational constants in MHz : 134542.059092 25926.222110 24937.994031

                             ****ORCA TERMINATED NORMALLY****
TOTAL RUN TIME: 0 days 0 hours 1 minutes 10 seconds 401 msec
