                         Program Version 4.1.2  - RELEASE  -
|  1> #Run DFT-D3 single point of the dimer
|  2> ! wB97X-D3 def2-TZVP TIGHTSCF CHELPG PMODEL PAL8
|  3>
|  4> %base "16-118_DFT_AB"
|  5>
|  6> %scf
|  7> MaxIter 1000
|  8> end
|  9>
| 10> * xyz 0 1
| 11>   C                      9.332024             -7.825781            -3.804788
| 12>   O                      8.953421             -7.722838            -5.139420
| 13>   H                      8.371526             -8.481379            -5.322820
| 14>   H                      10.157458            -8.605935            -3.657025
| 15>   H                      9.700460             -6.873416            -3.434979
| 16>   H                      8.503247             -8.036935            -3.181149
| 17>   C                      6.927127             -4.964074            -3.543295
| 18>   O                      7.098830             -4.110192            -4.645305
| 19>   H                      6.671527             -4.533860            -5.377378
| 20>   H                      7.355301             -5.940963            -3.781098
| 21>   H                      7.411281             -4.637179            -2.614870
| 22>   H                      5.821214             -5.071691            -3.295689
| 23> *
| 24>
| 25> #Run DFT-D3 single point of the molecule with dimer basis set
| 26> $new_job
| 27> %base "16-118_DFT_A"
| 28> ! wB97X-D3 def2-TZVP TIGHTSCF CHELPG PMODEL
| 29>
| 30> %scf
| 31> MaxIter 1000
| 32> end
| 33>
| 34> * xyz 0 1
| 35>   C                      9.332024             -7.825781            -3.804788
| 36>   O                      8.953421             -7.722838            -5.139420
| 37>   H                      8.371526             -8.481379            -5.322820
| 38>   H                      10.157458            -8.605935            -3.657025
| 39>   H                      9.700460             -6.873416            -3.434979
| 40>   H                      8.503247             -8.036935            -3.181149
| 41>   C                    : 6.927127             -4.964074            -3.543295
| 42>   O                    : 7.098830             -4.110192            -4.645305
| 43>   H                    : 6.671527             -4.533860            -5.377378
| 44>   H                    : 7.355301             -5.940963            -3.781098
| 45>   H                    : 7.411281             -4.637179            -2.614870
| 46>   H                    : 5.821214             -5.071691            -3.295689
| 47> *
| 48>
| 49> #Run DFT-D3 single point of the particle with dimer basis set
| 50> $new_job
| 51> %base "16-118_DFT_B"
| 52> ! wB97X-D3 def2-TZVP TIGHTSCF CHELPG PMODEL
| 53>
| 54> %scf
| 55> MaxIter 1000
| 56> end
| 57>
| 58> * xyz 0 1
| 59>   C                    : 9.332024             -7.825781            -3.804788
| 60>   O                    : 8.953421             -7.722838            -5.139420
| 61>   H                    : 8.371526             -8.481379            -5.322820
| 62>   H                    : 10.157458            -8.605935            -3.657025
| 63>   H                    : 9.700460             -6.873416            -3.434979
| 64>   H                    : 8.503247             -8.036935            -3.181149
| 65>   C                      6.927127             -4.964074            -3.543295
| 66>   O                      7.098830             -4.110192            -4.645305
| 67>   H                      6.671527             -4.533860            -5.377378
| 68>   H                      7.355301             -5.940963            -3.781098
| 69>   H                      7.411281             -4.637179            -2.614870
| 70>   H                      5.821214             -5.071691            -3.295689
| 71> *
| 72>
| 73>                          ****END OF INPUT****
 Total Charge           Charge          ....    0
 Multiplicity           Mult            ....    1
 Number of Electrons    NEL             ....   36
Dispersion correction           -0.001760978
FINAL SINGLE POINT ENERGY      -231.469178364626
Dispersion correction           -0.000232792
FINAL SINGLE POINT ENERGY      -115.734046531592

CARTESIAN COORDINATES (ANGSTROEM)
---------------------------------
  C      9.332024   -7.825781   -3.804788
  O      8.953421   -7.722838   -5.139420
  H      8.371526   -8.481379   -5.322820
  H     10.157458   -8.605935   -3.657025
  H      9.700460   -6.873416   -3.434979
  H      8.503247   -8.036935   -3.181149
  C      6.927127   -4.964074   -3.543295
  O      7.098830   -4.110192   -4.645305
  H      6.671527   -4.533860   -5.377378
  H      7.355301   -5.940963   -3.781098
  H      7.411281   -4.637179   -2.614870
  H      5.821214   -5.071691   -3.295689

 Multiplicity           Mult            ....    1
 Number of Electrons    NEL             ....   18
 Basis Dimension        Dim             ....  172

ORBITAL ENERGIES
----------------

  NO   OCC          E(Eh)            E(eV)
   0   2.0000     -19.229916      -523.2726
   1   2.0000     -10.317760      -280.7605
   2   2.0000      -1.143362       -31.1125
   3   2.0000      -0.792373       -21.5616
   4   2.0000      -0.610666       -16.6171
   5   2.0000      -0.542883       -14.7726
   6   2.0000      -0.533070       -14.5056
   7   2.0000      -0.430747       -11.7212
   8   2.0000      -0.372744       -10.1429
   9   0.0000       0.081898         2.2286
  10   0.0000       0.121691         3.3114
  11   0.0000       0.150181         4.0866
  12   0.0000       0.168021         4.5721
  13   0.0000       0.192638         5.2420

MULLIKEN ATOMIC CHARGES
-----------------------
   0 C :    0.007263
   1 O :   -0.000394
   2 H :   -0.000268
   3 H :    0.000075
   4 H :   -0.000692
   5 H :   -0.002934
   6 C :   -0.151717
   7 O :   -0.467937
   8 H :    0.316169
   9 H :    0.083320
  10 H :    0.117751
  11 H :    0.099364
Sum of atomic charges:   -0.0000000

LOEWDIN ATOMIC CHARGES
----------------------
   0 C :   -0.011046
   1 O :   -0.001395
   2 H :   -0.000311
   3 H :   -0.000101
   4 H :   -0.001746
   5 H :   -0.003084
   6 C :   -0.392221
   7 O :   -0.064561
   8 H :    0.164375
   9 H :    0.100420
  10 H :    0.108863
  11 H :    0.100808

  Mayer bond orders larger than 0.1
B(  6-C ,  7-O ) :   0.9914 B(  6-C ,  9-H ) :   0.9837 B(  6-C , 10-H ) :   0.9707
B(  6-C , 11-H ) :   0.9787 B(  7-O ,  8-H ) :   0.8996

Dispersion correction           -0.000232081
FINAL SINGLE POINT ENERGY      -115.734019087673

DIPOLE MOMENT
-------------
                                X             Y             Z
Electronic contribution:      0.37643       1.26749      -1.35316
Nuclear contribution   :     -0.68864      -1.86201       1.32247
                        -----------------------------------------
Total Dipole Moment    :     -0.31221      -0.59452      -0.03069
                        -----------------------------------------
Magnitude (a.u.)       :      0.67221
Magnitude (Debye)      :      1.70863

Rotational constants in cm-1:     4.247804     0.833769     0.809886
Rotational constants in MHz : 127345.970571 24995.755628 24279.783849

                             ****ORCA TERMINATED NORMALLY****
TOTAL RUN TIME: 0 days 0 hours 0 minutes 54 seconds 783 msec
