                         Program Version 4.1.2  - RELEASE  -
|  1> #Run DFT-D3 single point of the dimer
|  2> ! wB97X-D3 def2-TZVP TIGHTSCF CHELPG PMODEL PAL8
|  3>
|  4> %base "19-52_DFT_AB"
|  5>
|  6> %scf
|  7> MaxIter 1000
|  8> end
|  9>
| 10> * xyz 0 1
| 11>   C                      -5.106868            5.364977             4.076705
| 12>   O                      -4.860362            6.614453             3.509791
| 13>   H                      -4.817998            6.497377             2.536860
| 14>   H                      -6.164157            5.347365             4.411321
| 15>   H                      -4.952286            4.468046             3.431176
| 16>   H                      -4.499261            5.272901             4.938925
| 17>   C                      -7.363011            2.498879             6.299261
| 18>   O                      -8.185959            3.000140             5.262076
| 19>   H                      -8.223063            3.949463             5.327970
| 20>   H                      -7.585964            1.435716             6.542877
| 21>   H                      -6.237457            2.528047             6.177620
| 22>   H                      -7.530137            2.966441             7.312481
| 23> *
| 24>
| 25> #Run DFT-D3 single point of the molecule with dimer basis set
| 26> $new_job
| 27> %base "19-52_DFT_A"
| 28> ! wB97X-D3 def2-TZVP TIGHTSCF CHELPG PMODEL
| 29>
| 30> %scf
| 31> MaxIter 1000
| 32> end
| 33>
| 34> * xyz 0 1
| 35>   C                      -5.106868            5.364977             4.076705
| 36>   O                      -4.860362            6.614453             3.509791
| 37>   H                      -4.817998            6.497377             2.536860
| 38>   H                      -6.164157            5.347365             4.411321
| 39>   H                      -4.952286            4.468046             3.431176
| 40>   H                      -4.499261            5.272901             4.938925
| 41>   C                    : -7.363011            2.498879             6.299261
| 42>   O                    : -8.185959            3.000140             5.262076
| 43>   H                    : -8.223063            3.949463             5.327970
| 44>   H                    : -7.585964            1.435716             6.542877
| 45>   H                    : -6.237457            2.528047             6.177620
| 46>   H                    : -7.530137            2.966441             7.312481
| 47> *
| 48>
| 49> #Run DFT-D3 single point of the particle with dimer basis set
| 50> $new_job
| 51> %base "19-52_DFT_B"
| 52> ! wB97X-D3 def2-TZVP TIGHTSCF CHELPG PMODEL
| 53>
| 54> %scf
| 55> MaxIter 1000
| 56> end
| 57>
| 58> * xyz 0 1
| 59>   C                    : -5.106868            5.364977             4.076705
| 60>   O                    : -4.860362            6.614453             3.509791
| 61>   H                    : -4.817998            6.497377             2.536860
| 62>   H                    : -6.164157            5.347365             4.411321
| 63>   H                    : -4.952286            4.468046             3.431176
| 64>   H                    : -4.499261            5.272901             4.938925
| 65>   C                      -7.363011            2.498879             6.299261
| 66>   O                      -8.185959            3.000140             5.262076
| 67>   H                      -8.223063            3.949463             5.327970
| 68>   H                      -7.585964            1.435716             6.542877
| 69>   H                      -6.237457            2.528047             6.177620
| 70>   H                      -7.530137            2.966441             7.312481
| 71> *
| 72>
| 73>                          ****END OF INPUT****
 Total Charge           Charge          ....    0
 Multiplicity           Mult            ....    1
 Number of Electrons    NEL             ....   36
Dispersion correction           -0.001483128
FINAL SINGLE POINT ENERGY      -231.465862498704
Dispersion correction           -0.000245977
FINAL SINGLE POINT ENERGY      -115.733101515603

CARTESIAN COORDINATES (ANGSTROEM)
---------------------------------
  C     -5.106868    5.364977    4.076705
  O     -4.860362    6.614453    3.509791
  H     -4.817998    6.497377    2.536860
  H     -6.164157    5.347365    4.411321
  H     -4.952286    4.468046    3.431176
  H     -4.499261    5.272901    4.938925
  C     -7.363011    2.498879    6.299261
  O     -8.185959    3.000140    5.262076
  H     -8.223063    3.949463    5.327970
  H     -7.585964    1.435716    6.542877
  H     -6.237457    2.528047    6.177620
  H     -7.530137    2.966441    7.312481

 Multiplicity           Mult            ....    1
 Number of Electrons    NEL             ....   18
 Basis Dimension        Dim             ....  172

ORBITAL ENERGIES
----------------

  NO   OCC          E(Eh)            E(eV)
   0   2.0000     -19.238676      -523.5110
   1   2.0000     -10.324111      -280.9333
   2   2.0000      -1.141163       -31.0526
   3   2.0000      -0.794172       -21.6105
   4   2.0000      -0.617015       -16.7898
   5   2.0000      -0.531264       -14.4564
   6   2.0000      -0.525915       -14.3109
   7   2.0000      -0.430630       -11.7180
   8   2.0000      -0.378573       -10.3015
   9   0.0000       0.079184         2.1547
  10   0.0000       0.124636         3.3915
  11   0.0000       0.140270         3.8169
  12   0.0000       0.168393         4.5822
  13   0.0000       0.191516         5.2114

MULLIKEN ATOMIC CHARGES
-----------------------
   0 C :    0.004159
   1 O :   -0.000063
   2 H :   -0.000030
   3 H :   -0.007946
   4 H :   -0.000310
   5 H :   -0.000373
   6 C :   -0.188579
   7 O :   -0.459648
   8 H :    0.318930
   9 H :    0.124508
  10 H :    0.105739
  11 H :    0.103612
Sum of atomic charges:    0.0000000

LOEWDIN ATOMIC CHARGES
----------------------
   0 C :   -0.001589
   1 O :   -0.000019
   2 H :   -0.000001
   3 H :   -0.003054
   4 H :   -0.000150
   5 H :   -0.000189
   6 C :   -0.408189
   7 O :   -0.062987
   8 H :    0.165870
   9 H :    0.110978
  10 H :    0.099477
  11 H :    0.099855

  Mayer bond orders larger than 0.1
B(  6-C ,  7-O ) :   1.0123 B(  6-C ,  9-H ) :   0.9748 B(  6-C , 10-H ) :   0.9644
B(  6-C , 11-H ) :   0.9765 B(  7-O ,  8-H ) :   0.8982

Dispersion correction           -0.000291455
FINAL SINGLE POINT ENERGY      -115.731626686384

DIPOLE MOMENT
-------------
                                X             Y             Z
Electronic contribution:     -1.17116       0.61305      -1.61093
Nuclear contribution   :      1.43382      -0.21084       2.07012
                        -----------------------------------------
Total Dipole Moment    :      0.26266       0.40221       0.45919
                        -----------------------------------------
Magnitude (a.u.)       :      0.66454
Magnitude (Debye)      :      1.68913

Rotational constants in cm-1:     4.382183     0.800318     0.777675
Rotational constants in MHz : 131374.537837 23992.934689 23314.122144

                             ****ORCA TERMINATED NORMALLY****
TOTAL RUN TIME: 0 days 0 hours 0 minutes 42 seconds 557 msec
