                         Program Version 4.1.2  - RELEASE  -
|  1> #Run DFT geometry optimization
|  2> ! wB97X-D3 def2-TZVP TIGHTSCF Grid5 FinalGrid6 Opt CHELPG PAL4
|  3>
|  4> %base "2_geo_opt"
|  5> %geom MaxIter 500
|  6> end
|  7>
|  8> %geom
|  9>   Constraints
| 10>     { A 2 1 0 C }
| 11>   end
| 12> end
| 13>
| 14>
| 15> * xyz 0 1
| 16>   C                    3.011003             -1.183903            0.600620
| 17>   O                    4.394673             -1.128050            0.874308
| 18>   H                    4.774454             -0.379591            0.413422
| 19>   H                    2.806434             -1.318965            -0.469350
| 20>   H                    2.611632             -2.040265            1.135898
| 21>   H                    2.484757             -0.284491            0.945659
| 22> *
| 23>
| 24>                          ****END OF INPUT****
 Total Charge           Charge          ....    0
 Multiplicity           Mult            ....    1
 Number of Electrons    NEL             ....   18
Dispersion correction           -0.000239710
FINAL SINGLE POINT ENERGY      -115.738034495171
Dispersion correction            ... done
Dispersion correction           -0.000239708
FINAL SINGLE POINT ENERGY      -115.738047728134
Dispersion correction            ... done
Dispersion correction           -0.000239866
FINAL SINGLE POINT ENERGY      -115.738048804913
Dispersion correction            ... done
                    ***********************HURRAY********************

CARTESIAN COORDINATES (ANGSTROEM)
---------------------------------
  C      3.011180   -1.181407    0.598821
  O      4.394161   -1.128037    0.874119
  H      4.775716   -0.380055    0.414128
  H      2.805637   -1.319573   -0.468891
  H      2.612190   -2.040930    1.136535
  H      2.484068   -0.285262    0.945846

 Multiplicity           Mult            ....    1
 Number of Electrons    NEL             ....   18
 Basis Dimension        Dim             ....   86

ORBITAL ENERGIES
----------------

  NO   OCC          E(Eh)            E(eV)
   0   2.0000     -19.227969      -523.2196
   1   2.0000     -10.315093      -280.6879
   2   2.0000      -1.136748       -30.9325
   3   2.0000      -0.795473       -21.6459
   4   2.0000      -0.611736       -16.6462
   5   2.0000      -0.541709       -14.7407
   6   2.0000      -0.526457       -14.3256
   7   2.0000      -0.433429       -11.7942
   8   2.0000      -0.373544       -10.1647
   9   0.0000       0.116716         3.1760
  10   0.0000       0.156640         4.2624
  11   0.0000       0.202609         5.5133
  12   0.0000       0.205185         5.5834
  13   0.0000       0.226467         6.1625

MULLIKEN ATOMIC CHARGES
-----------------------
   0 C :   -0.150155
   1 O :   -0.478198
   2 H :    0.313113
   3 H :    0.098496
   4 H :    0.118244
   5 H :    0.098501
Sum of atomic charges:   -0.0000000

LOEWDIN ATOMIC CHARGES
----------------------
   0 C :   -0.385304
   1 O :   -0.075811
   2 H :    0.165634
   3 H :    0.093370
   4 H :    0.108741
   5 H :    0.093369

  Mayer bond orders larger than 0.1
B(  0-C ,  1-O ) :   0.9986 B(  0-C ,  3-H ) :   0.9755 B(  0-C ,  4-H ) :   0.9749
B(  0-C ,  5-H ) :   0.9755 B(  1-O ,  2-H ) :   0.9000

Dispersion correction           -0.000239947
FINAL SINGLE POINT ENERGY      -115.738048926172

DIPOLE MOMENT
-------------
                                X             Y             Z
Electronic contribution:      1.75529      -0.02658       0.41836
Nuclear contribution   :     -2.06240       0.47399      -0.81517
                        -----------------------------------------
Total Dipole Moment    :     -0.30712       0.44741      -0.39680
                        -----------------------------------------
Magnitude (a.u.)       :      0.67227
Magnitude (Debye)      :      1.70878

Rotational constants in cm-1:     4.296761     0.833827     0.805028
Rotational constants in MHz : 128813.641593 24997.504369 24134.125137

                             ****ORCA TERMINATED NORMALLY****
TOTAL RUN TIME: 0 days 0 hours 0 minutes 48 seconds 863 msec
