                         Program Version 4.1.2  - RELEASE  -
|  1> #Run DFT-D3 single point of the dimer
|  2> ! wB97X-D3 def2-TZVP TIGHTSCF CHELPG PMODEL PAL8
|  3>
|  4> %base "10-138_DFT_AB"
|  5>
|  6> %scf
|  7> MaxIter 1000
|  8> end
|  9>
| 10> * xyz 0 1
| 11>   C                      3.771709             8.520026             -2.309033
| 12>   O                      4.367163             8.443631             -3.620214
| 13>   H                      5.116592             9.031496             -3.647781
| 14>   H                      3.720613             9.562944             -1.984320
| 15>   H                      2.808419             8.065377             -2.246526
| 16>   H                      4.336444             7.999039             -1.611922
| 17>   C                      6.828038             6.820116             -1.588605
| 18>   O                      6.740666             6.658382             -3.063577
| 19>   H                      5.840426             6.698332             -3.325248
| 20>   H                      6.767607             7.901444             -1.302240
| 21>   H                      6.059944             6.430850             -1.023919
| 22>   H                      7.826103             6.483436             -1.234028
| 23> *
| 24>
| 25> #Run DFT-D3 single point of the molecule with dimer basis set
| 26> $new_job
| 27> %base "10-138_DFT_A"
| 28> ! wB97X-D3 def2-TZVP TIGHTSCF CHELPG PMODEL
| 29>
| 30> %scf
| 31> MaxIter 1000
| 32> end
| 33>
| 34> * xyz 0 1
| 35>   C                      3.771709             8.520026             -2.309033
| 36>   O                      4.367163             8.443631             -3.620214
| 37>   H                      5.116592             9.031496             -3.647781
| 38>   H                      3.720613             9.562944             -1.984320
| 39>   H                      2.808419             8.065377             -2.246526
| 40>   H                      4.336444             7.999039             -1.611922
| 41>   C                    : 6.828038             6.820116             -1.588605
| 42>   O                    : 6.740666             6.658382             -3.063577
| 43>   H                    : 5.840426             6.698332             -3.325248
| 44>   H                    : 6.767607             7.901444             -1.302240
| 45>   H                    : 6.059944             6.430850             -1.023919
| 46>   H                    : 7.826103             6.483436             -1.234028
| 47> *
| 48>
| 49> #Run DFT-D3 single point of the particle with dimer basis set
| 50> $new_job
| 51> %base "10-138_DFT_B"
| 52> ! wB97X-D3 def2-TZVP TIGHTSCF CHELPG PMODEL
| 53>
| 54> %scf
| 55> MaxIter 1000
| 56> end
| 57>
| 58> * xyz 0 1
| 59>   C                    : 3.771709             8.520026             -2.309033
| 60>   O                    : 4.367163             8.443631             -3.620214
| 61>   H                    : 5.116592             9.031496             -3.647781
| 62>   H                    : 3.720613             9.562944             -1.984320
| 63>   H                    : 2.808419             8.065377             -2.246526
| 64>   H                    : 4.336444             7.999039             -1.611922
| 65>   C                      6.828038             6.820116             -1.588605
| 66>   O                      6.740666             6.658382             -3.063577
| 67>   H                      5.840426             6.698332             -3.325248
| 68>   H                      6.767607             7.901444             -1.302240
| 69>   H                      6.059944             6.430850             -1.023919
| 70>   H                      7.826103             6.483436             -1.234028
| 71> *
| 72>
| 73>                          ****END OF INPUT****
 Total Charge           Charge          ....    0
 Multiplicity           Mult            ....    1
 Number of Electrons    NEL             ....   36
Dispersion correction           -0.002409008
FINAL SINGLE POINT ENERGY      -231.465093856906
Dispersion correction           -0.000238944
FINAL SINGLE POINT ENERGY      -115.732661594757

CARTESIAN COORDINATES (ANGSTROEM)
---------------------------------
  C      3.771709    8.520026   -2.309033
  O      4.367163    8.443631   -3.620214
  H      5.116592    9.031496   -3.647781
  H      3.720613    9.562944   -1.984320
  H      2.808419    8.065377   -2.246526
  H      4.336444    7.999039   -1.611922
  C      6.828038    6.820116   -1.588605
  O      6.740666    6.658382   -3.063577
  H      5.840426    6.698332   -3.325248
  H      6.767607    7.901444   -1.302240
  H      6.059944    6.430850   -1.023919
  H      7.826103    6.483436   -1.234028

 Multiplicity           Mult            ....    1
 Number of Electrons    NEL             ....   18
 Basis Dimension        Dim             ....  172

ORBITAL ENERGIES
----------------

  NO   OCC          E(Eh)            E(eV)
   0   2.0000     -19.231513      -523.3161
   1   2.0000     -10.318506      -280.7808
   2   2.0000      -1.121159       -30.5083
   3   2.0000      -0.805575       -21.9208
   4   2.0000      -0.610999       -16.6261
   5   2.0000      -0.523998       -14.2587
   6   2.0000      -0.519683       -14.1413
   7   2.0000      -0.447697       -12.1824
   8   2.0000      -0.375335       -10.2134
   9   0.0000       0.074871         2.0374
  10   0.0000       0.136234         3.7071
  11   0.0000       0.148103         4.0301
  12   0.0000       0.160596         4.3700
  13   0.0000       0.192943         5.2502

MULLIKEN ATOMIC CHARGES
-----------------------
   0 C :   -0.001078
   1 O :   -0.003746
   2 H :   -0.002630
   3 H :   -0.000345
   4 H :    0.000261
   5 H :   -0.002974
   6 C :   -0.188428
   7 O :   -0.471245
   8 H :    0.307982
   9 H :    0.104323
  10 H :    0.126884
  11 H :    0.130996
Sum of atomic charges:   -0.0000000

LOEWDIN ATOMIC CHARGES
----------------------
   0 C :   -0.007884
   1 O :   -0.008965
   2 H :   -0.004288
   3 H :   -0.000131
   4 H :   -0.000055
   5 H :   -0.005888
   6 C :   -0.327050
   7 O :   -0.098323
   8 H :    0.149172
   9 H :    0.105471
  10 H :    0.083547
  11 H :    0.114395

  Mayer bond orders larger than 0.1
B(  6-C ,  7-O ) :   0.9980 B(  6-C ,  9-H ) :   0.9761 B(  6-C , 10-H ) :   0.9696
B(  6-C , 11-H ) :   0.9742 B(  7-O ,  8-H ) :   0.9094

Dispersion correction           -0.000285386
FINAL SINGLE POINT ENERGY      -115.727310899551

DIPOLE MOMENT
-------------
                                X             Y             Z
Electronic contribution:     -0.04143      -0.40729      -1.82641
Nuclear contribution   :     -0.50747       0.49333       2.31760
                        -----------------------------------------
Total Dipole Moment    :     -0.54890       0.08603       0.49119
                        -----------------------------------------
Magnitude (a.u.)       :      0.74159
Magnitude (Debye)      :      1.88497

Rotational constants in cm-1:     4.469651     0.762654     0.731481
Rotational constants in MHz : 133996.777824 22863.776767 21929.258203

                             ****ORCA TERMINATED NORMALLY****
TOTAL RUN TIME: 0 days 0 hours 1 minutes 4 seconds 885 msec
