                         Program Version 4.1.2  - RELEASE  -
|  1> #Run DFT-D3 single point of the dimer
|  2> ! wB97X-D3 def2-TZVP TIGHTSCF CHELPG PMODEL PAL8
|  3>
|  4> %base "15-181_DFT_AB"
|  5>
|  6> %scf
|  7> MaxIter 1000
|  8> end
|  9>
| 10> * xyz 0 1
| 11>   C                      -0.498885            -9.217402            7.435344
| 12>   O                      -0.409455            -8.253961            6.379260
| 13>   H                      0.566335             -8.030159            6.353536
| 14>   H                      -0.046593            -10.212227           7.033898
| 15>   H                      -0.071568            -8.756392            8.323261
| 16>   H                      -1.580136            -9.339975            7.644194
| 17>   C                      -1.709434            -6.314648            3.430841
| 18>   O                      -0.431729            -6.440922            3.934288
| 19>   H                      -0.546436            -6.993990            4.737379
| 20>   H                      -1.782671            -5.475495            2.724999
| 21>   H                      -2.027611            -7.272603            2.944701
| 22>   H                      -2.403258            -6.157242            4.311352
| 23> *
| 24>
| 25> #Run DFT-D3 single point of the molecule with dimer basis set
| 26> $new_job
| 27> %base "15-181_DFT_A"
| 28> ! wB97X-D3 def2-TZVP TIGHTSCF CHELPG PMODEL
| 29>
| 30> %scf
| 31> MaxIter 1000
| 32> end
| 33>
| 34> * xyz 0 1
| 35>   C                      -0.498885            -9.217402            7.435344
| 36>   O                      -0.409455            -8.253961            6.379260
| 37>   H                      0.566335             -8.030159            6.353536
| 38>   H                      -0.046593            -10.212227           7.033898
| 39>   H                      -0.071568            -8.756392            8.323261
| 40>   H                      -1.580136            -9.339975            7.644194
| 41>   C                    : -1.709434            -6.314648            3.430841
| 42>   O                    : -0.431729            -6.440922            3.934288
| 43>   H                    : -0.546436            -6.993990            4.737379
| 44>   H                    : -1.782671            -5.475495            2.724999
| 45>   H                    : -2.027611            -7.272603            2.944701
| 46>   H                    : -2.403258            -6.157242            4.311352
| 47> *
| 48>
| 49> #Run DFT-D3 single point of the particle with dimer basis set
| 50> $new_job
| 51> %base "15-181_DFT_B"
| 52> ! wB97X-D3 def2-TZVP TIGHTSCF CHELPG PMODEL
| 53>
| 54> %scf
| 55> MaxIter 1000
| 56> end
| 57>
| 58> * xyz 0 1
| 59>   C                    : -0.498885            -9.217402            7.435344
| 60>   O                    : -0.409455            -8.253961            6.379260
| 61>   H                    : 0.566335             -8.030159            6.353536
| 62>   H                    : -0.046593            -10.212227           7.033898
| 63>   H                    : -0.071568            -8.756392            8.323261
| 64>   H                    : -1.580136            -9.339975            7.644194
| 65>   C                      -1.709434            -6.314648            3.430841
| 66>   O                      -0.431729            -6.440922            3.934288
| 67>   H                      -0.546436            -6.993990            4.737379
| 68>   H                      -1.782671            -5.475495            2.724999
| 69>   H                      -2.027611            -7.272603            2.944701
| 70>   H                      -2.403258            -6.157242            4.311352
| 71> *
| 72>
| 73>                          ****END OF INPUT****
 Total Charge           Charge          ....    0
 Multiplicity           Mult            ....    1
 Number of Electrons    NEL             ....   36
Dispersion correction           -0.001348399
FINAL SINGLE POINT ENERGY      -231.468328919493
Dispersion correction           -0.000230271
FINAL SINGLE POINT ENERGY      -115.728993788605

CARTESIAN COORDINATES (ANGSTROEM)
---------------------------------
  C     -0.498885   -9.217402    7.435344
  O     -0.409455   -8.253961    6.379260
  H      0.566335   -8.030159    6.353536
  H     -0.046593  -10.212227    7.033898
  H     -0.071568   -8.756392    8.323261
  H     -1.580136   -9.339975    7.644194
  C     -1.709434   -6.314648    3.430841
  O     -0.431729   -6.440922    3.934288
  H     -0.546436   -6.993990    4.737379
  H     -1.782671   -5.475495    2.724999
  H     -2.027611   -7.272603    2.944701
  H     -2.403258   -6.157242    4.311352

 Multiplicity           Mult            ....    1
 Number of Electrons    NEL             ....   18
 Basis Dimension        Dim             ....  172

ORBITAL ENERGIES
----------------

  NO   OCC          E(Eh)            E(eV)
   0   2.0000     -19.232110      -523.3323
   1   2.0000     -10.318213      -280.7728
   2   2.0000      -1.147214       -31.2173
   3   2.0000      -0.783571       -21.3221
   4   2.0000      -0.613577       -16.6963
   5   2.0000      -0.542020       -14.7491
   6   2.0000      -0.533950       -14.5295
   7   2.0000      -0.433691       -11.8013
   8   2.0000      -0.367689       -10.0053
   9   0.0000       0.071252         1.9389
  10   0.0000       0.119551         3.2532
  11   0.0000       0.149931         4.0798
  12   0.0000       0.180902         4.9226
  13   0.0000       0.190757         5.1908

MULLIKEN ATOMIC CHARGES
-----------------------
   0 C :   -0.000727
   1 O :   -0.001181
   2 H :   -0.000360
   3 H :    0.000010
   4 H :    0.000029
   5 H :    0.000024
   6 C :   -0.162964
   7 O :   -0.455959
   8 H :    0.315663
   9 H :    0.118463
  10 H :    0.094055
  11 H :    0.092947
Sum of atomic charges:    0.0000000

LOEWDIN ATOMIC CHARGES
----------------------
   0 C :   -0.000756
   1 O :   -0.014603
   2 H :   -0.003009
   3 H :   -0.000022
   4 H :   -0.000023
   5 H :   -0.000027
   6 C :   -0.420960
   7 O :   -0.057273
   8 H :    0.195309
   9 H :    0.106694
  10 H :    0.095471
  11 H :    0.099200

  Mayer bond orders larger than 0.1
B(  6-C ,  7-O ) :   0.9974 B(  6-C ,  9-H ) :   0.9708 B(  6-C , 10-H ) :   0.9718
B(  6-C , 11-H ) :   0.9883 B(  7-O ,  8-H ) :   0.9010

Dispersion correction           -0.000212630
FINAL SINGLE POINT ENERGY      -115.732250505480

DIPOLE MOMENT
-------------
                                X             Y             Z
Electronic contribution:      1.79706       0.01119       0.43975
Nuclear contribution   :     -2.32094      -0.28951      -0.12401
                        -----------------------------------------
Total Dipole Moment    :     -0.52387      -0.27832       0.31574
                        -----------------------------------------
Magnitude (a.u.)       :      0.67201
Magnitude (Debye)      :      1.70811

Rotational constants in cm-1:     4.028709     0.874167     0.834995
Rotational constants in MHz : 120777.652400 26206.856134 25032.506037

                             ****ORCA TERMINATED NORMALLY****
TOTAL RUN TIME: 0 days 0 hours 1 minutes 3 seconds 911 msec
