                         Program Version 4.1.2  - RELEASE  -
|  1> #Run DFT-D3 single point of the dimer
|  2> ! wB97X-D3 def2-TZVP TIGHTSCF CHELPG PMODEL PAL8
|  3>
|  4> %base "3-32_DFT_AB"
|  5>
|  6> %scf
|  7> MaxIter 1000
|  8> end
|  9>
| 10> * xyz 0 1
| 11>   C                      -4.983724            -1.861540            -7.037725
| 12>   O                      -5.308556            -0.500746            -6.993364
| 13>   H                      -5.230599            -0.272961            -7.890385
| 14>   H                      -4.141318            -2.148880            -7.659056
| 15>   H                      -4.764248            -2.337265            -6.067641
| 16>   H                      -5.873911            -2.396272            -7.501663
| 17>   C                      -3.888145            1.871441             -9.901667
| 18>   O                      -2.887328            1.541876             -10.844331
| 19>   H                      -2.057649            1.745419             -10.528720
| 20>   H                      -4.007914            2.958215             -9.898934
| 21>   H                      -4.899281            1.516543             -10.079027
| 22>   H                      -3.612215            1.511664             -8.924497
| 23> *
| 24>
| 25> #Run DFT-D3 single point of the molecule with dimer basis set
| 26> $new_job
| 27> %base "3-32_DFT_A"
| 28> ! wB97X-D3 def2-TZVP TIGHTSCF CHELPG PMODEL
| 29>
| 30> %scf
| 31> MaxIter 1000
| 32> end
| 33>
| 34> * xyz 0 1
| 35>   C                      -4.983724            -1.861540            -7.037725
| 36>   O                      -5.308556            -0.500746            -6.993364
| 37>   H                      -5.230599            -0.272961            -7.890385
| 38>   H                      -4.141318            -2.148880            -7.659056
| 39>   H                      -4.764248            -2.337265            -6.067641
| 40>   H                      -5.873911            -2.396272            -7.501663
| 41>   C                    : -3.888145            1.871441             -9.901667
| 42>   O                    : -2.887328            1.541876             -10.844331
| 43>   H                    : -2.057649            1.745419             -10.528720
| 44>   H                    : -4.007914            2.958215             -9.898934
| 45>   H                    : -4.899281            1.516543             -10.079027
| 46>   H                    : -3.612215            1.511664             -8.924497
| 47> *
| 48>
| 49> #Run DFT-D3 single point of the particle with dimer basis set
| 50> $new_job
| 51> %base "3-32_DFT_B"
| 52> ! wB97X-D3 def2-TZVP TIGHTSCF CHELPG PMODEL
| 53>
| 54> %scf
| 55> MaxIter 1000
| 56> end
| 57>
| 58> * xyz 0 1
| 59>   C                    : -4.983724            -1.861540            -7.037725
| 60>   O                    : -5.308556            -0.500746            -6.993364
| 61>   H                    : -5.230599            -0.272961            -7.890385
| 62>   H                    : -4.141318            -2.148880            -7.659056
| 63>   H                    : -4.764248            -2.337265            -6.067641
| 64>   H                    : -5.873911            -2.396272            -7.501663
| 65>   C                      -3.888145            1.871441             -9.901667
| 66>   O                      -2.887328            1.541876             -10.844331
| 67>   H                      -2.057649            1.745419             -10.528720
| 68>   H                      -4.007914            2.958215             -9.898934
| 69>   H                      -4.899281            1.516543             -10.079027
| 70>   H                      -3.612215            1.511664             -8.924497
| 71> *
| 72>
| 73>                          ****END OF INPUT****
 Total Charge           Charge          ....    0
 Multiplicity           Mult            ....    1
 Number of Electrons    NEL             ....   36
Dispersion correction           -0.001232065
FINAL SINGLE POINT ENERGY      -231.460857484794
Dispersion correction           -0.000226256
FINAL SINGLE POINT ENERGY      -115.729896983037

CARTESIAN COORDINATES (ANGSTROEM)
---------------------------------
  C     -4.983724   -1.861540   -7.037725
  O     -5.308556   -0.500746   -6.993364
  H     -5.230599   -0.272961   -7.890385
  H     -4.141318   -2.148880   -7.659056
  H     -4.764248   -2.337265   -6.067641
  H     -5.873911   -2.396272   -7.501663
  C     -3.888145    1.871441   -9.901667
  O     -2.887328    1.541876  -10.844331
  H     -2.057649    1.745419  -10.528720
  H     -4.007914    2.958215   -9.898934
  H     -4.899281    1.516543  -10.079027
  H     -3.612215    1.511664   -8.924497

 Multiplicity           Mult            ....    1
 Number of Electrons    NEL             ....   18
 Basis Dimension        Dim             ....  172

ORBITAL ENERGIES
----------------

  NO   OCC          E(Eh)            E(eV)
   0   2.0000     -19.223390      -523.0950
   1   2.0000     -10.312103      -280.6066
   2   2.0000      -1.143871       -31.1263
   3   2.0000      -0.804522       -21.8921
   4   2.0000      -0.616319       -16.7709
   5   2.0000      -0.546460       -14.8699
   6   2.0000      -0.534835       -14.5536
   7   2.0000      -0.426487       -11.6053
   8   2.0000      -0.373799       -10.1716
   9   0.0000       0.085616         2.3297
  10   0.0000       0.123075         3.3490
  11   0.0000       0.145990         3.9726
  12   0.0000       0.185137         5.0378
  13   0.0000       0.191017         5.1978

MULLIKEN ATOMIC CHARGES
-----------------------
   0 C :    0.000675
   1 O :    0.000374
   2 H :   -0.003670
   3 H :   -0.000014
   4 H :    0.000031
   5 H :   -0.000044
   6 C :   -0.149291
   7 O :   -0.473554
   8 H :    0.308665
   9 H :    0.098993
  10 H :    0.118434
  11 H :    0.099402
Sum of atomic charges:   -0.0000000

LOEWDIN ATOMIC CHARGES
----------------------
   0 C :   -0.000138
   1 O :   -0.000454
   2 H :   -0.003370
   3 H :   -0.000017
   4 H :   -0.000000
   5 H :   -0.000002
   6 C :   -0.374141
   7 O :   -0.053480
   8 H :    0.135574
   9 H :    0.095890
  10 H :    0.107456
  11 H :    0.092682

  Mayer bond orders larger than 0.1
B(  6-C ,  7-O ) :   0.9913 B(  6-C ,  9-H ) :   0.9786 B(  6-C , 10-H ) :   0.9707
B(  6-C , 11-H ) :   0.9845 B(  7-O ,  8-H ) :   0.9074

Dispersion correction           -0.000236832
FINAL SINGLE POINT ENERGY      -115.729929609184

DIPOLE MOMENT
-------------
                                X             Y             Z
Electronic contribution:      1.19398      -0.55253      -1.30280
Nuclear contribution   :     -1.06830       0.81679       1.90320
                        -----------------------------------------
Total Dipole Moment    :      0.12568       0.26426       0.60040
                        -----------------------------------------
Magnitude (a.u.)       :      0.66792
Magnitude (Debye)      :      1.69771

Rotational constants in cm-1:     4.575326     0.822413     0.802220
Rotational constants in MHz : 137164.836013 24655.324936 24049.944614

                             ****ORCA TERMINATED NORMALLY****
TOTAL RUN TIME: 0 days 0 hours 6 minutes 18 seconds 800 msec
