                         Program Version 4.1.2  - RELEASE  -
|  1> #Run DFT-D3 single point of the dimer
|  2> ! wB97X-D3 def2-TZVP TIGHTSCF CHELPG PMODEL PAL8
|  3>
|  4> %base "20-163_DFT_AB"
|  5>
|  6> %scf
|  7> MaxIter 1000
|  8> end
|  9>
| 10> * xyz 0 1
| 11>   C                      -6.714063            5.350536             4.090886
| 12>   O                      -7.999713            4.915713             3.661961
| 13>   H                      -7.853763            4.051714             3.187885
| 14>   H                      -5.999717            4.604636             4.133295
| 15>   H                      -6.266902            6.020050             3.367942
| 16>   H                      -6.759302            5.873254             5.050062
| 17>   C                      -5.437243            2.893795             0.003744
| 18>   O                      -6.339473            3.830913             0.590663
| 19>   H                      -6.962244            3.262412             1.060430
| 20>   H                      -4.843288            2.338916             0.754672
| 21>   H                      -6.034146            2.131542             -0.547641
| 22>   H                      -4.777210            3.354782             -0.710811
| 23> *
| 24>
| 25> #Run DFT-D3 single point of the molecule with dimer basis set
| 26> $new_job
| 27> %base "20-163_DFT_A"
| 28> ! wB97X-D3 def2-TZVP TIGHTSCF CHELPG PMODEL
| 29>
| 30> %scf
| 31> MaxIter 1000
| 32> end
| 33>
| 34> * xyz 0 1
| 35>   C                      -6.714063            5.350536             4.090886
| 36>   O                      -7.999713            4.915713             3.661961
| 37>   H                      -7.853763            4.051714             3.187885
| 38>   H                      -5.999717            4.604636             4.133295
| 39>   H                      -6.266902            6.020050             3.367942
| 40>   H                      -6.759302            5.873254             5.050062
| 41>   C                    : -5.437243            2.893795             0.003744
| 42>   O                    : -6.339473            3.830913             0.590663
| 43>   H                    : -6.962244            3.262412             1.060430
| 44>   H                    : -4.843288            2.338916             0.754672
| 45>   H                    : -6.034146            2.131542             -0.547641
| 46>   H                    : -4.777210            3.354782             -0.710811
| 47> *
| 48>
| 49> #Run DFT-D3 single point of the particle with dimer basis set
| 50> $new_job
| 51> %base "20-163_DFT_B"
| 52> ! wB97X-D3 def2-TZVP TIGHTSCF CHELPG PMODEL
| 53>
| 54> %scf
| 55> MaxIter 1000
| 56> end
| 57>
| 58> * xyz 0 1
| 59>   C                    : -6.714063            5.350536             4.090886
| 60>   O                    : -7.999713            4.915713             3.661961
| 61>   H                    : -7.853763            4.051714             3.187885
| 62>   H                    : -5.999717            4.604636             4.133295
| 63>   H                    : -6.266902            6.020050             3.367942
| 64>   H                    : -6.759302            5.873254             5.050062
| 65>   C                      -5.437243            2.893795             0.003744
| 66>   O                      -6.339473            3.830913             0.590663
| 67>   H                      -6.962244            3.262412             1.060430
| 68>   H                      -4.843288            2.338916             0.754672
| 69>   H                      -6.034146            2.131542             -0.547641
| 70>   H                      -4.777210            3.354782             -0.710811
| 71> *
| 72>
| 73>                          ****END OF INPUT****
 Total Charge           Charge          ....    0
 Multiplicity           Mult            ....    1
 Number of Electrons    NEL             ....   36
Dispersion correction           -0.001466154
FINAL SINGLE POINT ENERGY      -231.464985393504
Dispersion correction           -0.000243042
FINAL SINGLE POINT ENERGY      -115.730495485149

CARTESIAN COORDINATES (ANGSTROEM)
---------------------------------
  C     -6.714063    5.350536    4.090886
  O     -7.999713    4.915713    3.661961
  H     -7.853763    4.051714    3.187885
  H     -5.999717    4.604636    4.133295
  H     -6.266902    6.020050    3.367942
  H     -6.759302    5.873254    5.050062
  C     -5.437243    2.893795    0.003744
  O     -6.339473    3.830913    0.590663
  H     -6.962244    3.262412    1.060430
  H     -4.843288    2.338916    0.754672
  H     -6.034146    2.131542   -0.547641
  H     -4.777210    3.354782   -0.710811

 Multiplicity           Mult            ....    1
 Number of Electrons    NEL             ....   18
 Basis Dimension        Dim             ....  172

ORBITAL ENERGIES
----------------

  NO   OCC          E(Eh)            E(eV)
   0   2.0000     -19.233623      -523.3735
   1   2.0000     -10.316770      -280.7336
   2   2.0000      -1.135800       -30.9067
   3   2.0000      -0.793036       -21.5796
   4   2.0000      -0.607319       -16.5260
   5   2.0000      -0.537914       -14.6374
   6   2.0000      -0.530176       -14.4268
   7   2.0000      -0.441247       -12.0069
   8   2.0000      -0.373783       -10.1712
   9   0.0000       0.086419         2.3516
  10   0.0000       0.124443         3.3863
  11   0.0000       0.149970         4.0809
  12   0.0000       0.182765         4.9733
  13   0.0000       0.191288         5.2052

MULLIKEN ATOMIC CHARGES
-----------------------
   0 C :    0.000210
   1 O :    0.000517
   2 H :   -0.002725
   3 H :   -0.001624
   4 H :   -0.001536
   5 H :   -0.000371
   6 C :   -0.175031
   7 O :   -0.463957
   8 H :    0.317530
   9 H :    0.101762
  10 H :    0.100034
  11 H :    0.125192
Sum of atomic charges:   -0.0000000

LOEWDIN ATOMIC CHARGES
----------------------
   0 C :   -0.003591
   1 O :   -0.000295
   2 H :   -0.003356
   3 H :   -0.000709
   4 H :   -0.001018
   5 H :   -0.000080
   6 C :   -0.380556
   7 O :   -0.083187
   8 H :    0.175188
   9 H :    0.095824
  10 H :    0.098296
  11 H :    0.103485

  Mayer bond orders larger than 0.1
B(  6-C ,  7-O ) :   0.9981 B(  6-C ,  9-H ) :   0.9705 B(  6-C , 10-H ) :   0.9846
B(  6-C , 11-H ) :   0.9727 B(  7-O ,  8-H ) :   0.8989

Dispersion correction           -0.000231024
FINAL SINGLE POINT ENERGY      -115.735240120977

DIPOLE MOMENT
-------------
                                X             Y             Z
Electronic contribution:     -0.99880       1.42892       0.68277
Nuclear contribution   :      0.97250      -2.14862      -0.65142
                        -----------------------------------------
Total Dipole Moment    :     -0.02630      -0.71970       0.03135
                        -----------------------------------------
Magnitude (a.u.)       :      0.72086
Magnitude (Debye)      :      1.83229

Rotational constants in cm-1:     4.218667     0.822877     0.791811
Rotational constants in MHz : 126472.466982 24669.227570 23737.893476

                             ****ORCA TERMINATED NORMALLY****
TOTAL RUN TIME: 0 days 0 hours 0 minutes 56 seconds 406 msec
