                         Program Version 4.1.2  - RELEASE  -
|  1> #Run DFT-D3 single point of the dimer
|  2> ! wB97X-D3 def2-TZVP TIGHTSCF CHELPG PMODEL PAL8
|  3>
|  4> %base "7-120_DFT_AB"
|  5>
|  6> %scf
|  7> MaxIter 1000
|  8> end
|  9>
| 10> * xyz 0 1
| 11>   C                      -6.876157            -3.537889            6.430555
| 12>   O                      -7.557125            -4.068631            5.313738
| 13>   H                      -6.837903            -4.361989            4.734408
| 14>   H                      -6.067335            -2.821260            6.093197
| 15>   H                      -7.594730            -2.834349            6.993745
| 16>   H                      -6.463546            -4.327425            7.099497
| 17>   C                      -8.973832            -1.725023            0.140451
| 18>   O                      -7.958306            -1.866058            1.059234
| 19>   H                      -7.846690            -2.753810            1.444923
| 20>   H                      -9.118242            -2.696230            -0.308561
| 21>   H                      -9.973470            -1.537242            0.561683
| 22>   H                      -8.764028            -1.059650            -0.696033
| 23> *
| 24>
| 25> #Run DFT-D3 single point of the molecule with dimer basis set
| 26> $new_job
| 27> %base "7-120_DFT_A"
| 28> ! wB97X-D3 def2-TZVP TIGHTSCF CHELPG PMODEL
| 29>
| 30> %scf
| 31> MaxIter 1000
| 32> end
| 33>
| 34> * xyz 0 1
| 35>   C                      -6.876157            -3.537889            6.430555
| 36>   O                      -7.557125            -4.068631            5.313738
| 37>   H                      -6.837903            -4.361989            4.734408
| 38>   H                      -6.067335            -2.821260            6.093197
| 39>   H                      -7.594730            -2.834349            6.993745
| 40>   H                      -6.463546            -4.327425            7.099497
| 41>   C                    : -8.973832            -1.725023            0.140451
| 42>   O                    : -7.958306            -1.866058            1.059234
| 43>   H                    : -7.846690            -2.753810            1.444923
| 44>   H                    : -9.118242            -2.696230            -0.308561
| 45>   H                    : -9.973470            -1.537242            0.561683
| 46>   H                    : -8.764028            -1.059650            -0.696033
| 47> *
| 48>
| 49> #Run DFT-D3 single point of the particle with dimer basis set
| 50> $new_job
| 51> %base "7-120_DFT_B"
| 52> ! wB97X-D3 def2-TZVP TIGHTSCF CHELPG PMODEL
| 53>
| 54> %scf
| 55> MaxIter 1000
| 56> end
| 57>
| 58> * xyz 0 1
| 59>   C                    : -6.876157            -3.537889            6.430555
| 60>   O                    : -7.557125            -4.068631            5.313738
| 61>   H                    : -6.837903            -4.361989            4.734408
| 62>   H                    : -6.067335            -2.821260            6.093197
| 63>   H                    : -7.594730            -2.834349            6.993745
| 64>   H                    : -6.463546            -4.327425            7.099497
| 65>   C                      -8.973832            -1.725023            0.140451
| 66>   O                      -7.958306            -1.866058            1.059234
| 67>   H                      -7.846690            -2.753810            1.444923
| 68>   H                      -9.118242            -2.696230            -0.308561
| 69>   H                      -9.973470            -1.537242            0.561683
| 70>   H                      -8.764028            -1.059650            -0.696033
| 71> *
| 72>
| 73>                          ****END OF INPUT****
 Total Charge           Charge          ....    0
 Multiplicity           Mult            ....    1
 Number of Electrons    NEL             ....   36
Dispersion correction           -0.000664665
FINAL SINGLE POINT ENERGY      -231.461194965346
Dispersion correction           -0.000243711
FINAL SINGLE POINT ENERGY      -115.732233918116

CARTESIAN COORDINATES (ANGSTROEM)
---------------------------------
  C     -6.876157   -3.537889    6.430555
  O     -7.557125   -4.068631    5.313738
  H     -6.837903   -4.361989    4.734408
  H     -6.067335   -2.821260    6.093197
  H     -7.594730   -2.834349    6.993745
  H     -6.463546   -4.327425    7.099497
  C     -8.973832   -1.725023    0.140451
  O     -7.958306   -1.866058    1.059234
  H     -7.846690   -2.753810    1.444923
  H     -9.118242   -2.696230   -0.308561
  H     -9.973470   -1.537242    0.561683
  H     -8.764028   -1.059650   -0.696033

 Multiplicity           Mult            ....    1
 Number of Electrons    NEL             ....   18
 Basis Dimension        Dim             ....  172

ORBITAL ENERGIES
----------------

  NO   OCC          E(Eh)            E(eV)
   0   2.0000     -19.228181      -523.2254
   1   2.0000     -10.309028      -280.5229
   2   2.0000      -1.140424       -31.0325
   3   2.0000      -0.797720       -21.7071
   4   2.0000      -0.622257       -16.9325
   5   2.0000      -0.543851       -14.7989
   6   2.0000      -0.533738       -14.5238
   7   2.0000      -0.416707       -11.3392
   8   2.0000      -0.369852       -10.0642
   9   0.0000       0.081723         2.2238
  10   0.0000       0.111224         3.0265
  11   0.0000       0.148774         4.0483
  12   0.0000       0.172335         4.6895
  13   0.0000       0.197005         5.3608

MULLIKEN ATOMIC CHARGES
-----------------------
   0 C :   -0.000026
   1 O :   -0.000006
   2 H :   -0.000040
   3 H :    0.000001
   4 H :    0.000004
   5 H :   -0.000001
   6 C :   -0.145419
   7 O :   -0.487492
   8 H :    0.327300
   9 H :    0.094898
  10 H :    0.091767
  11 H :    0.119014
Sum of atomic charges:   -0.0000000

LOEWDIN ATOMIC CHARGES
----------------------
   0 C :   -0.000009
   1 O :   -0.000025
   2 H :   -0.000065
   3 H :   -0.000001
   4 H :   -0.000000
   5 H :   -0.000000
   6 C :   -0.413727
   7 O :   -0.060039
   8 H :    0.180928
   9 H :    0.093204
  10 H :    0.094044
  11 H :    0.105690

  Mayer bond orders larger than 0.1
B(  6-C ,  7-O ) :   1.0071 B(  6-C ,  9-H ) :   0.9952 B(  6-C , 10-H ) :   0.9698
B(  6-C , 11-H ) :   0.9691 B(  7-O ,  8-H ) :   0.8850

Dispersion correction           -0.000243590
FINAL SINGLE POINT ENERGY      -115.728699022972

DIPOLE MOMENT
-------------
                                X             Y             Z
Electronic contribution:      1.42466       0.10208       1.22542
Nuclear contribution   :     -1.73724      -0.67679      -1.35397
                        -----------------------------------------
Total Dipole Moment    :     -0.31257      -0.57471      -0.12855
                        -----------------------------------------
Magnitude (a.u.)       :      0.66673
Magnitude (Debye)      :      1.69468

Rotational constants in cm-1:     4.516929     0.850510     0.822686
Rotational constants in MHz : 135414.130269 25497.659114 24663.495679

                             ****ORCA TERMINATED NORMALLY****
TOTAL RUN TIME: 0 days 0 hours 1 minutes 12 seconds 246 msec
