                         Program Version 4.1.2  - RELEASE  -
|  1> #Run DFT-D3 single point of the dimer
|  2> ! wB97X-D3 def2-TZVP TIGHTSCF CHELPG PMODEL PAL8
|  3>
|  4> %base "5-8_DFT_AB"
|  5>
|  6> %scf
|  7> MaxIter 1000
|  8> end
|  9>
| 10> * xyz 0 1
| 11>   C                      7.637502             -1.565497            0.430449
| 12>   O                      6.279459             -1.591730            0.075538
| 13>   H                      6.138315             -2.503580            0.236057
| 14>   H                      8.043561             -0.510717            0.303914
| 15>   H                      7.798157             -1.853950            1.427963
| 16>   H                      8.171181             -2.284390            -0.145285
| 17>   C                      10.206809            1.078521             -1.554075
| 18>   O                      10.951794            0.939919             -2.685973
| 19>   H                      10.413294            1.008399             -3.440788
| 20>   H                      10.922767            1.007575             -0.680634
| 21>   H                      9.666471             2.045954             -1.565513
| 22>   H                      9.447073             0.300277             -1.448344
| 23> *
| 24>
| 25> #Run DFT-D3 single point of the molecule with dimer basis set
| 26> $new_job
| 27> %base "5-8_DFT_A"
| 28> ! wB97X-D3 def2-TZVP TIGHTSCF CHELPG PMODEL
| 29>
| 30> %scf
| 31> MaxIter 1000
| 32> end
| 33>
| 34> * xyz 0 1
| 35>   C                      7.637502             -1.565497            0.430449
| 36>   O                      6.279459             -1.591730            0.075538
| 37>   H                      6.138315             -2.503580            0.236057
| 38>   H                      8.043561             -0.510717            0.303914
| 39>   H                      7.798157             -1.853950            1.427963
| 40>   H                      8.171181             -2.284390            -0.145285
| 41>   C                    : 10.206809            1.078521             -1.554075
| 42>   O                    : 10.951794            0.939919             -2.685973
| 43>   H                    : 10.413294            1.008399             -3.440788
| 44>   H                    : 10.922767            1.007575             -0.680634
| 45>   H                    : 9.666471             2.045954             -1.565513
| 46>   H                    : 9.447073             0.300277             -1.448344
| 47> *
| 48>
| 49> #Run DFT-D3 single point of the particle with dimer basis set
| 50> $new_job
| 51> %base "5-8_DFT_B"
| 52> ! wB97X-D3 def2-TZVP TIGHTSCF CHELPG PMODEL
| 53>
| 54> %scf
| 55> MaxIter 1000
| 56> end
| 57>
| 58> * xyz 0 1
| 59>   C                    : 7.637502             -1.565497            0.430449
| 60>   O                    : 6.279459             -1.591730            0.075538
| 61>   H                    : 6.138315             -2.503580            0.236057
| 62>   H                    : 8.043561             -0.510717            0.303914
| 63>   H                    : 7.798157             -1.853950            1.427963
| 64>   H                    : 8.171181             -2.284390            -0.145285
| 65>   C                      10.206809            1.078521             -1.554075
| 66>   O                      10.951794            0.939919             -2.685973
| 67>   H                      10.413294            1.008399             -3.440788
| 68>   H                      10.922767            1.007575             -0.680634
| 69>   H                      9.666471             2.045954             -1.565513
| 70>   H                      9.447073             0.300277             -1.448344
| 71> *
| 72>
| 73>                          ****END OF INPUT****
 Total Charge           Charge          ....    0
 Multiplicity           Mult            ....    1
 Number of Electrons    NEL             ....   36
Dispersion correction           -0.001147370
FINAL SINGLE POINT ENERGY      -231.462329579316
Dispersion correction           -0.000194780
FINAL SINGLE POINT ENERGY      -115.728201693411

CARTESIAN COORDINATES (ANGSTROEM)
---------------------------------
  C      7.637502   -1.565497    0.430449
  O      6.279459   -1.591730    0.075538
  H      6.138315   -2.503580    0.236057
  H      8.043561   -0.510717    0.303914
  H      7.798157   -1.853950    1.427963
  H      8.171181   -2.284390   -0.145285
  C     10.206809    1.078521   -1.554075
  O     10.951794    0.939919   -2.685973
  H     10.413294    1.008399   -3.440788
  H     10.922767    1.007575   -0.680634
  H      9.666471    2.045954   -1.565513
  H      9.447073    0.300277   -1.448344

 Multiplicity           Mult            ....    1
 Number of Electrons    NEL             ....   18
 Basis Dimension        Dim             ....  172

ORBITAL ENERGIES
----------------

  NO   OCC          E(Eh)            E(eV)
   0   2.0000     -19.225882      -523.1628
   1   2.0000     -10.314216      -280.6641
   2   2.0000      -1.158007       -31.5110
   3   2.0000      -0.793775       -21.5997
   4   2.0000      -0.625631       -17.0243
   5   2.0000      -0.546213       -14.8632
   6   2.0000      -0.530679       -14.4405
   7   2.0000      -0.429075       -11.6757
   8   2.0000      -0.370022       -10.0688
   9   0.0000       0.085253         2.3199
  10   0.0000       0.119503         3.2518
  11   0.0000       0.149660         4.0724
  12   0.0000       0.182967         4.9788
  13   0.0000       0.188034         5.1167

MULLIKEN ATOMIC CHARGES
-----------------------
   0 C :    0.000804
   1 O :   -0.000010
   2 H :    0.000005
   3 H :   -0.002484
   4 H :   -0.000125
   5 H :    0.000065
   6 C :   -0.140920
   7 O :   -0.462504
   8 H :    0.309435
   9 H :    0.111767
  10 H :    0.092404
  11 H :    0.091562
Sum of atomic charges:   -0.0000000

LOEWDIN ATOMIC CHARGES
----------------------
   0 C :   -0.003756
   1 O :   -0.000005
   2 H :   -0.000004
   3 H :   -0.004652
   4 H :   -0.000037
   5 H :   -0.000366
   6 C :   -0.422882
   7 O :   -0.024392
   8 H :    0.151599
   9 H :    0.117835
  10 H :    0.094251
  11 H :    0.092410

  Mayer bond orders larger than 0.1
B(  6-C ,  7-O ) :   0.9968 B(  6-C ,  9-H ) :   0.9699 B(  6-C , 10-H ) :   0.9792
B(  6-C , 11-H ) :   0.9776 B(  7-O ,  8-H ) :   0.9038

Dispersion correction           -0.000218817
FINAL SINGLE POINT ENERGY      -115.733493036611

DIPOLE MOMENT
-------------
                                X             Y             Z
Electronic contribution:      1.08009      -0.20895      -1.45093
Nuclear contribution   :     -1.69995       0.29813       1.35930
                        -----------------------------------------
Total Dipole Moment    :     -0.61986       0.08918      -0.09163
                        -----------------------------------------
Magnitude (a.u.)       :      0.63291
Magnitude (Debye)      :      1.60872

Rotational constants in cm-1:     4.224854     0.886639     0.847891
Rotational constants in MHz : 126657.944656 26580.762381 25419.138346

                             ****ORCA TERMINATED NORMALLY****
TOTAL RUN TIME: 0 days 0 hours 1 minutes 2 seconds 387 msec
