                         Program Version 4.1.2  - RELEASE  -
|  1> #Run DFT-D3 single point of the dimer
|  2> ! wB97X-D3 def2-TZVP TIGHTSCF CHELPG PMODEL PAL8
|  3>
|  4> %base "18-202_DFT_AB"
|  5>
|  6> %scf
|  7> MaxIter 1000
|  8> end
|  9>
| 10> * xyz 0 1
| 11>   C                      -1.213343            0.238538             -5.928642
| 12>   O                      -0.050785            -0.426938            -5.367251
| 13>   H                      -0.363767            -1.170551            -4.851548
| 14>   H                      -1.967699            0.294917             -5.170650
| 15>   H                      -1.050817            1.218659             -6.355750
| 16>   H                      -1.637108            -0.357791            -6.780960
| 17>   C                      0.652887             -4.603899            -7.329924
| 18>   O                      1.034029             -3.278051            -7.200782
| 19>   H                      0.242085             -2.708499            -7.235678
| 20>   H                      -0.055861            -4.676612            -8.180890
| 21>   H                      1.491770             -5.297775            -7.503752
| 22>   H                      0.134496             -4.970212            -6.478246
| 23> *
| 24>
| 25> #Run DFT-D3 single point of the molecule with dimer basis set
| 26> $new_job
| 27> %base "18-202_DFT_A"
| 28> ! wB97X-D3 def2-TZVP TIGHTSCF CHELPG PMODEL
| 29>
| 30> %scf
| 31> MaxIter 1000
| 32> end
| 33>
| 34> * xyz 0 1
| 35>   C                      -1.213343            0.238538             -5.928642
| 36>   O                      -0.050785            -0.426938            -5.367251
| 37>   H                      -0.363767            -1.170551            -4.851548
| 38>   H                      -1.967699            0.294917             -5.170650
| 39>   H                      -1.050817            1.218659             -6.355750
| 40>   H                      -1.637108            -0.357791            -6.780960
| 41>   C                    : 0.652887             -4.603899            -7.329924
| 42>   O                    : 1.034029             -3.278051            -7.200782
| 43>   H                    : 0.242085             -2.708499            -7.235678
| 44>   H                    : -0.055861            -4.676612            -8.180890
| 45>   H                    : 1.491770             -5.297775            -7.503752
| 46>   H                    : 0.134496             -4.970212            -6.478246
| 47> *
| 48>
| 49> #Run DFT-D3 single point of the particle with dimer basis set
| 50> $new_job
| 51> %base "18-202_DFT_B"
| 52> ! wB97X-D3 def2-TZVP TIGHTSCF CHELPG PMODEL
| 53>
| 54> %scf
| 55> MaxIter 1000
| 56> end
| 57>
| 58> * xyz 0 1
| 59>   C                    : -1.213343            0.238538             -5.928642
| 60>   O                    : -0.050785            -0.426938            -5.367251
| 61>   H                    : -0.363767            -1.170551            -4.851548
| 62>   H                    : -1.967699            0.294917             -5.170650
| 63>   H                    : -1.050817            1.218659             -6.355750
| 64>   H                    : -1.637108            -0.357791            -6.780960
| 65>   C                      0.652887             -4.603899            -7.329924
| 66>   O                      1.034029             -3.278051            -7.200782
| 67>   H                      0.242085             -2.708499            -7.235678
| 68>   H                      -0.055861            -4.676612            -8.180890
| 69>   H                      1.491770             -5.297775            -7.503752
| 70>   H                      0.134496             -4.970212            -6.478246
| 71> *
| 72>
| 73>                          ****END OF INPUT****
 Total Charge           Charge          ....    0
 Multiplicity           Mult            ....    1
 Number of Electrons    NEL             ....   36
Dispersion correction           -0.001303654
FINAL SINGLE POINT ENERGY      -231.466678728355
Dispersion correction           -0.000253540
FINAL SINGLE POINT ENERGY      -115.732478890881

CARTESIAN COORDINATES (ANGSTROEM)
---------------------------------
  C     -1.213343    0.238538   -5.928642
  O     -0.050785   -0.426938   -5.367251
  H     -0.363767   -1.170551   -4.851548
  H     -1.967699    0.294917   -5.170650
  H     -1.050817    1.218659   -6.355750
  H     -1.637108   -0.357791   -6.780960
  C      0.652887   -4.603899   -7.329924
  O      1.034029   -3.278051   -7.200782
  H      0.242085   -2.708499   -7.235678
  H     -0.055861   -4.676612   -8.180890
  H      1.491770   -5.297775   -7.503752
  H      0.134496   -4.970212   -6.478246

 Multiplicity           Mult            ....    1
 Number of Electrons    NEL             ....   18
 Basis Dimension        Dim             ....  172

ORBITAL ENERGIES
----------------

  NO   OCC          E(Eh)            E(eV)
   0   2.0000     -19.230602      -523.2913
   1   2.0000     -10.310030      -280.5502
   2   2.0000      -1.141556       -31.0633
   3   2.0000      -0.794191       -21.6110
   4   2.0000      -0.615405       -16.7460
   5   2.0000      -0.544607       -14.8195
   6   2.0000      -0.534366       -14.5408
   7   2.0000      -0.428284       -11.6542
   8   2.0000      -0.370146       -10.0722
   9   0.0000       0.073619         2.0033
  10   0.0000       0.124932         3.3996
  11   0.0000       0.153341         4.1726
  12   0.0000       0.165283         4.4976
  13   0.0000       0.196648         5.3511

MULLIKEN ATOMIC CHARGES
-----------------------
   0 C :    0.000352
   1 O :   -0.000684
   2 H :   -0.001997
   3 H :    0.000037
   4 H :   -0.000014
   5 H :   -0.000366
   6 C :   -0.157934
   7 O :   -0.473074
   8 H :    0.322230
   9 H :    0.094018
  10 H :    0.116545
  11 H :    0.100889
Sum of atomic charges:   -0.0000000

LOEWDIN ATOMIC CHARGES
----------------------
   0 C :   -0.000744
   1 O :   -0.001261
   2 H :   -0.001699
   3 H :   -0.000003
   4 H :   -0.000007
   5 H :   -0.000473
   6 C :   -0.406335
   7 O :   -0.063589
   8 H :    0.182238
   9 H :    0.096491
  10 H :    0.110038
  11 H :    0.085345

  Mayer bond orders larger than 0.1
B(  6-C ,  7-O ) :   1.0024 B(  6-C ,  9-H ) :   0.9913 B(  6-C , 10-H ) :   0.9704
B(  6-C , 11-H ) :   0.9726 B(  7-O ,  8-H ) :   0.8905

Dispersion correction           -0.000225227
FINAL SINGLE POINT ENERGY      -115.733757297949

DIPOLE MOMENT
-------------
                                X             Y             Z
Electronic contribution:      0.72148       1.68982       0.23733
Nuclear contribution   :     -1.36631      -1.84954      -0.30567
                        -----------------------------------------
Total Dipole Moment    :     -0.64482      -0.15971      -0.06835
                        -----------------------------------------
Magnitude (a.u.)       :      0.66781
Magnitude (Debye)      :      1.69745

Rotational constants in cm-1:     4.349305     0.857348     0.820394
Rotational constants in MHz : 130388.875476 25702.652798 24594.784743

                             ****ORCA TERMINATED NORMALLY****
TOTAL RUN TIME: 0 days 0 hours 1 minutes 3 seconds 829 msec
