                         Program Version 4.1.2  - RELEASE  -
|  1> #Run DFT-D3 single point of the dimer
|  2> ! wB97X-D3 def2-TZVP TIGHTSCF CHELPG PMODEL PAL8
|  3>
|  4> %base "11-191_DFT_AB"
|  5>
|  6> %scf
|  7> MaxIter 1000
|  8> end
|  9>
| 10> * xyz 0 1
| 11>   C                      -0.126466            -7.668901            -4.868698
| 12>   O                      0.538743             -8.388895            -5.905771
| 13>   H                      0.233319             -8.126804            -6.738606
| 14>   H                      -1.219544            -8.059974            -4.893778
| 15>   H                      0.273618             -7.846774            -3.918215
| 16>   H                      -0.142561            -6.508430            -5.077860
| 17>   C                      3.050934             -10.665024           -4.307386
| 18>   O                      2.092074             -10.525762           -5.298851
| 19>   H                      1.976535             -9.579363            -5.514077
| 20>   H                      2.688544             -10.157992           -3.413439
| 21>   H                      3.253577             -11.725895           -4.103417
| 22>   H                      4.051600             -10.308682           -4.484244
| 23> *
| 24>
| 25> #Run DFT-D3 single point of the molecule with dimer basis set
| 26> $new_job
| 27> %base "11-191_DFT_A"
| 28> ! wB97X-D3 def2-TZVP TIGHTSCF CHELPG PMODEL
| 29>
| 30> %scf
| 31> MaxIter 1000
| 32> end
| 33>
| 34> * xyz 0 1
| 35>   C                      -0.126466            -7.668901            -4.868698
| 36>   O                      0.538743             -8.388895            -5.905771
| 37>   H                      0.233319             -8.126804            -6.738606
| 38>   H                      -1.219544            -8.059974            -4.893778
| 39>   H                      0.273618             -7.846774            -3.918215
| 40>   H                      -0.142561            -6.508430            -5.077860
| 41>   C                    : 3.050934             -10.665024           -4.307386
| 42>   O                    : 2.092074             -10.525762           -5.298851
| 43>   H                    : 1.976535             -9.579363            -5.514077
| 44>   H                    : 2.688544             -10.157992           -3.413439
| 45>   H                    : 3.253577             -11.725895           -4.103417
| 46>   H                    : 4.051600             -10.308682           -4.484244
| 47> *
| 48>
| 49> #Run DFT-D3 single point of the particle with dimer basis set
| 50> $new_job
| 51> %base "11-191_DFT_B"
| 52> ! wB97X-D3 def2-TZVP TIGHTSCF CHELPG PMODEL
| 53>
| 54> %scf
| 55> MaxIter 1000
| 56> end
| 57>
| 58> * xyz 0 1
| 59>   C                    : -0.126466            -7.668901            -4.868698
| 60>   O                    : 0.538743             -8.388895            -5.905771
| 61>   H                    : 0.233319             -8.126804            -6.738606
| 62>   H                    : -1.219544            -8.059974            -4.893778
| 63>   H                    : 0.273618             -7.846774            -3.918215
| 64>   H                    : -0.142561            -6.508430            -5.077860
| 65>   C                      3.050934             -10.665024           -4.307386
| 66>   O                      2.092074             -10.525762           -5.298851
| 67>   H                      1.976535             -9.579363            -5.514077
| 68>   H                      2.688544             -10.157992           -3.413439
| 69>   H                      3.253577             -11.725895           -4.103417
| 70>   H                      4.051600             -10.308682           -4.484244
| 71> *
| 72>
| 73>                          ****END OF INPUT****
 Total Charge           Charge          ....    0
 Multiplicity           Mult            ....    1
 Number of Electrons    NEL             ....   36
Dispersion correction           -0.001669233
FINAL SINGLE POINT ENERGY      -231.465316888033
Dispersion correction           -0.000256206
FINAL SINGLE POINT ENERGY      -115.726671686785

CARTESIAN COORDINATES (ANGSTROEM)
---------------------------------
  C     -0.126466   -7.668901   -4.868698
  O      0.538743   -8.388895   -5.905771
  H      0.233319   -8.126804   -6.738606
  H     -1.219544   -8.059974   -4.893778
  H      0.273618   -7.846774   -3.918215
  H     -0.142561   -6.508430   -5.077860
  C      3.050934  -10.665024   -4.307386
  O      2.092074  -10.525762   -5.298851
  H      1.976535   -9.579363   -5.514077
  H      2.688544  -10.157992   -3.413439
  H      3.253577  -11.725895   -4.103417
  H      4.051600  -10.308682   -4.484244

 Multiplicity           Mult            ....    1
 Number of Electrons    NEL             ....   18
 Basis Dimension        Dim             ....  172

ORBITAL ENERGIES
----------------

  NO   OCC          E(Eh)            E(eV)
   0   2.0000     -19.234138      -523.3875
   1   2.0000     -10.308404      -280.5059
   2   2.0000      -1.142144       -31.0793
   3   2.0000      -0.796507       -21.6741
   4   2.0000      -0.617740       -16.8096
   5   2.0000      -0.550720       -14.9858
   6   2.0000      -0.523968       -14.2579
   7   2.0000      -0.429539       -11.6884
   8   2.0000      -0.372838       -10.1454
   9   0.0000       0.073401         1.9973
  10   0.0000       0.132662         3.6099
  11   0.0000       0.144519         3.9326
  12   0.0000       0.169708         4.6180
  13   0.0000       0.197278         5.3682

MULLIKEN ATOMIC CHARGES
-----------------------
   0 C :   -0.004467
   1 O :   -0.002252
   2 H :   -0.000283
   3 H :    0.000359
   4 H :   -0.000360
   5 H :   -0.000023
   6 C :   -0.155680
   7 O :   -0.458911
   8 H :    0.314393
   9 H :    0.094560
  10 H :    0.114878
  11 H :    0.097786
Sum of atomic charges:   -0.0000000

LOEWDIN ATOMIC CHARGES
----------------------
   0 C :   -0.005164
   1 O :   -0.023790
   2 H :   -0.001205
   3 H :   -0.000111
   4 H :   -0.000654
   5 H :   -0.000091
   6 C :   -0.409413
   7 O :   -0.046181
   8 H :    0.193029
   9 H :    0.093713
  10 H :    0.111352
  11 H :    0.088515

  Mayer bond orders larger than 0.1
B(  6-C ,  7-O ) :   1.0120 B(  6-C ,  9-H ) :   0.9836 B(  6-C , 10-H ) :   0.9727
B(  6-C , 11-H ) :   0.9725 B(  7-O ,  8-H ) :   0.8950

Dispersion correction           -0.000240361
FINAL SINGLE POINT ENERGY      -115.733415775399

DIPOLE MOMENT
-------------
                                X             Y             Z
Electronic contribution:     -1.28424       0.05835      -1.37797
Nuclear contribution   :      1.59822       0.46807       1.61632
                        -----------------------------------------
Total Dipole Moment    :      0.31397       0.52643       0.23835
                        -----------------------------------------
Magnitude (a.u.)       :      0.65766
Magnitude (Debye)      :      1.67164

Rotational constants in cm-1:     4.435650     0.850125     0.816872
Rotational constants in MHz : 132977.428703 25486.100978 24489.192813

                             ****ORCA TERMINATED NORMALLY****
TOTAL RUN TIME: 0 days 0 hours 1 minutes 15 seconds 315 msec
