                         Program Version 4.1.2  - RELEASE  -
|  1> #Run DFT-D3 single point of the dimer
|  2> ! wB97X-D3 def2-TZVP TIGHTSCF CHELPG PMODEL PAL8
|  3>
|  4> %base "19-108_DFT_AB"
|  5>
|  6> %scf
|  7> MaxIter 1000
|  8> end
|  9>
| 10> * xyz 0 1
| 11>   C                      6.485865             6.830318             0.457606
| 12>   O                      6.958456             6.355031             -0.794069
| 13>   H                      7.907226             6.370384             -0.741623
| 14>   H                      6.882538             7.854793             0.749982
| 15>   H                      5.409756             6.912721             0.368214
| 16>   H                      6.865832             6.186334             1.267891
| 17>   C                      1.734881             6.465670             2.421053
| 18>   O                      2.634085             6.724561             1.380352
| 19>   H                      2.969693             5.856025             1.094452
| 20>   H                      0.869834             5.980634             1.995787
| 21>   H                      2.162642             5.752771             3.164728
| 22>   H                      1.436188             7.411125             2.924409
| 23> *
| 24>
| 25> #Run DFT-D3 single point of the molecule with dimer basis set
| 26> $new_job
| 27> %base "19-108_DFT_A"
| 28> ! wB97X-D3 def2-TZVP TIGHTSCF CHELPG PMODEL
| 29>
| 30> %scf
| 31> MaxIter 1000
| 32> end
| 33>
| 34> * xyz 0 1
| 35>   C                      6.485865             6.830318             0.457606
| 36>   O                      6.958456             6.355031             -0.794069
| 37>   H                      7.907226             6.370384             -0.741623
| 38>   H                      6.882538             7.854793             0.749982
| 39>   H                      5.409756             6.912721             0.368214
| 40>   H                      6.865832             6.186334             1.267891
| 41>   C                    : 1.734881             6.465670             2.421053
| 42>   O                    : 2.634085             6.724561             1.380352
| 43>   H                    : 2.969693             5.856025             1.094452
| 44>   H                    : 0.869834             5.980634             1.995787
| 45>   H                    : 2.162642             5.752771             3.164728
| 46>   H                    : 1.436188             7.411125             2.924409
| 47> *
| 48>
| 49> #Run DFT-D3 single point of the particle with dimer basis set
| 50> $new_job
| 51> %base "19-108_DFT_B"
| 52> ! wB97X-D3 def2-TZVP TIGHTSCF CHELPG PMODEL
| 53>
| 54> %scf
| 55> MaxIter 1000
| 56> end
| 57>
| 58> * xyz 0 1
| 59>   C                    : 6.485865             6.830318             0.457606
| 60>   O                    : 6.958456             6.355031             -0.794069
| 61>   H                    : 7.907226             6.370384             -0.741623
| 62>   H                    : 6.882538             7.854793             0.749982
| 63>   H                    : 5.409756             6.912721             0.368214
| 64>   H                    : 6.865832             6.186334             1.267891
| 65>   C                      1.734881             6.465670             2.421053
| 66>   O                      2.634085             6.724561             1.380352
| 67>   H                      2.969693             5.856025             1.094452
| 68>   H                      0.869834             5.980634             1.995787
| 69>   H                      2.162642             5.752771             3.164728
| 70>   H                      1.436188             7.411125             2.924409
| 71> *
| 72>
| 73>                          ****END OF INPUT****
 Total Charge           Charge          ....    0
 Multiplicity           Mult            ....    1
 Number of Electrons    NEL             ....   36
Dispersion correction           -0.001063862
FINAL SINGLE POINT ENERGY      -231.470489545788
Dispersion correction           -0.000238402
FINAL SINGLE POINT ENERGY      -115.734139739231

CARTESIAN COORDINATES (ANGSTROEM)
---------------------------------
  C      6.485865    6.830318    0.457606
  O      6.958456    6.355031   -0.794069
  H      7.907226    6.370384   -0.741623
  H      6.882538    7.854793    0.749982
  H      5.409756    6.912721    0.368214
  H      6.865832    6.186334    1.267891
  C      1.734881    6.465670    2.421053
  O      2.634085    6.724561    1.380352
  H      2.969693    5.856025    1.094452
  H      0.869834    5.980634    1.995787
  H      2.162642    5.752771    3.164728
  H      1.436188    7.411125    2.924409

 Multiplicity           Mult            ....    1
 Number of Electrons    NEL             ....   18
 Basis Dimension        Dim             ....  172

ORBITAL ENERGIES
----------------

  NO   OCC          E(Eh)            E(eV)
   0   2.0000     -19.230962      -523.3011
   1   2.0000     -10.314270      -280.6656
   2   2.0000      -1.139808       -31.0158
   3   2.0000      -0.789735       -21.4898
   4   2.0000      -0.611898       -16.6506
   5   2.0000      -0.543071       -14.7777
   6   2.0000      -0.528500       -14.3812
   7   2.0000      -0.435490       -11.8503
   8   2.0000      -0.370159       -10.0725
   9   0.0000       0.087939         2.3930
  10   0.0000       0.116269         3.1638
  11   0.0000       0.153982         4.1901
  12   0.0000       0.180872         4.9218
  13   0.0000       0.195787         5.3276

MULLIKEN ATOMIC CHARGES
-----------------------
   0 C :   -0.000095
   1 O :   -0.000049
   2 H :   -0.000007
   3 H :   -0.000102
   4 H :   -0.005191
   5 H :    0.000241
   6 C :   -0.169040
   7 O :   -0.464910
   8 H :    0.318755
   9 H :    0.101828
  10 H :    0.099594
  11 H :    0.118976
Sum of atomic charges:    0.0000000

LOEWDIN ATOMIC CHARGES
----------------------
   0 C :   -0.002136
   1 O :   -0.000020
   2 H :   -0.000007
   3 H :   -0.000024
   4 H :   -0.004174
   5 H :   -0.000044
   6 C :   -0.400326
   7 O :   -0.072688
   8 H :    0.180279
   9 H :    0.090425
  10 H :    0.096727
  11 H :    0.111987

  Mayer bond orders larger than 0.1
B(  6-C ,  7-O ) :   0.9935 B(  6-C ,  9-H ) :   0.9789 B(  6-C , 10-H ) :   0.9776
B(  6-C , 11-H ) :   0.9721 B(  7-O ,  8-H ) :   0.8933

Dispersion correction           -0.000219867
FINAL SINGLE POINT ENERGY      -115.735107540558

DIPOLE MOMENT
-------------
                                X             Y             Z
Electronic contribution:      1.11828       0.54973      -1.30791
Nuclear contribution   :     -1.26938      -1.18983       1.52854
                        -----------------------------------------
Total Dipole Moment    :     -0.15109      -0.64010       0.22063
                        -----------------------------------------
Magnitude (a.u.)       :      0.69371
Magnitude (Debye)      :      1.76328

Rotational constants in cm-1:     4.164935     0.853395     0.814082
Rotational constants in MHz : 124861.605644 25584.140790 24405.554806

                             ****ORCA TERMINATED NORMALLY****
TOTAL RUN TIME: 0 days 0 hours 0 minutes 48 seconds 133 msec
