                         Program Version 4.1.2  - RELEASE  -
|  1> #Run DFT-D3 single point of the dimer
|  2> ! wB97X-D3 def2-TZVP TIGHTSCF CHELPG PMODEL PAL8
|  3>
|  4> %base "17-206_DFT_AB"
|  5>
|  6> %scf
|  7> MaxIter 1000
|  8> end
|  9>
| 10> * xyz 0 1
| 11>   C                      -7.625825            -2.118438            6.216507
| 12>   O                      -6.382549            -1.543956            6.599083
| 13>   H                      -6.301052            -0.573742            6.507122
| 14>   H                      -7.759299            -3.193026            6.659678
| 15>   H                      -8.447343            -1.473519            6.457667
| 16>   H                      -7.672048            -2.337438            5.139044
| 17>   C                      -6.319022            1.751159             5.059910
| 18>   O                      -6.857394            1.523147             6.296902
| 19>   H                      -7.736044            1.859153             6.281797
| 20>   H                      -5.269929            1.724765             5.106357
| 21>   H                      -6.608568            0.985461             4.282150
| 22>   H                      -6.567316            2.808178             4.780656
| 23> *
| 24>
| 25> #Run DFT-D3 single point of the molecule with dimer basis set
| 26> $new_job
| 27> %base "17-206_DFT_A"
| 28> ! wB97X-D3 def2-TZVP TIGHTSCF CHELPG PMODEL
| 29>
| 30> %scf
| 31> MaxIter 1000
| 32> end
| 33>
| 34> * xyz 0 1
| 35>   C                      -7.625825            -2.118438            6.216507
| 36>   O                      -6.382549            -1.543956            6.599083
| 37>   H                      -6.301052            -0.573742            6.507122
| 38>   H                      -7.759299            -3.193026            6.659678
| 39>   H                      -8.447343            -1.473519            6.457667
| 40>   H                      -7.672048            -2.337438            5.139044
| 41>   C                    : -6.319022            1.751159             5.059910
| 42>   O                    : -6.857394            1.523147             6.296902
| 43>   H                    : -7.736044            1.859153             6.281797
| 44>   H                    : -5.269929            1.724765             5.106357
| 45>   H                    : -6.608568            0.985461             4.282150
| 46>   H                    : -6.567316            2.808178             4.780656
| 47> *
| 48>
| 49> #Run DFT-D3 single point of the particle with dimer basis set
| 50> $new_job
| 51> %base "17-206_DFT_B"
| 52> ! wB97X-D3 def2-TZVP TIGHTSCF CHELPG PMODEL
| 53>
| 54> %scf
| 55> MaxIter 1000
| 56> end
| 57>
| 58> * xyz 0 1
| 59>   C                    : -7.625825            -2.118438            6.216507
| 60>   O                    : -6.382549            -1.543956            6.599083
| 61>   H                    : -6.301052            -0.573742            6.507122
| 62>   H                    : -7.759299            -3.193026            6.659678
| 63>   H                    : -8.447343            -1.473519            6.457667
| 64>   H                    : -7.672048            -2.337438            5.139044
| 65>   C                      -6.319022            1.751159             5.059910
| 66>   O                      -6.857394            1.523147             6.296902
| 67>   H                      -7.736044            1.859153             6.281797
| 68>   H                      -5.269929            1.724765             5.106357
| 69>   H                      -6.608568            0.985461             4.282150
| 70>   H                      -6.567316            2.808178             4.780656
| 71> *
| 72>
| 73>                          ****END OF INPUT****
 Total Charge           Charge          ....    0
 Multiplicity           Mult            ....    1
 Number of Electrons    NEL             ....   36
Dispersion correction           -0.001912431
FINAL SINGLE POINT ENERGY      -231.467607442040
Dispersion correction           -0.000276638
FINAL SINGLE POINT ENERGY      -115.729294174918

CARTESIAN COORDINATES (ANGSTROEM)
---------------------------------
  C     -7.625825   -2.118438    6.216507
  O     -6.382549   -1.543956    6.599083
  H     -6.301052   -0.573742    6.507122
  H     -7.759299   -3.193026    6.659678
  H     -8.447343   -1.473519    6.457667
  H     -7.672048   -2.337438    5.139044
  C     -6.319022    1.751159    5.059910
  O     -6.857394    1.523147    6.296902
  H     -7.736044    1.859153    6.281797
  H     -5.269929    1.724765    5.106357
  H     -6.608568    0.985461    4.282150
  H     -6.567316    2.808178    4.780656

 Multiplicity           Mult            ....    1
 Number of Electrons    NEL             ....   18
 Basis Dimension        Dim             ....  172

ORBITAL ENERGIES
----------------

  NO   OCC          E(Eh)            E(eV)
   0   2.0000     -19.229346      -523.2571
   1   2.0000     -10.311325      -280.5854
   2   2.0000      -1.156804       -31.4782
   3   2.0000      -0.795573       -21.6486
   4   2.0000      -0.616955       -16.7882
   5   2.0000      -0.549918       -14.9640
   6   2.0000      -0.539993       -14.6940
   7   2.0000      -0.427051       -11.6207
   8   2.0000      -0.373531       -10.1643
   9   0.0000       0.091749         2.4966
  10   0.0000       0.126583         3.4445
  11   0.0000       0.153643         4.1808
  12   0.0000       0.185637         5.0514
  13   0.0000       0.189458         5.1554

MULLIKEN ATOMIC CHARGES
-----------------------
   0 C :   -0.000213
   1 O :   -0.001701
   2 H :    0.001676
   3 H :   -0.000189
   4 H :   -0.003289
   5 H :   -0.000235
   6 C :   -0.159560
   7 O :   -0.462267
   8 H :    0.315098
   9 H :    0.121933
  10 H :    0.093874
  11 H :    0.094873
Sum of atomic charges:   -0.0000000

LOEWDIN ATOMIC CHARGES
----------------------
   0 C :   -0.002750
   1 O :   -0.002448
   2 H :   -0.022691
   3 H :   -0.000043
   4 H :   -0.001359
   5 H :   -0.000089
   6 C :   -0.419001
   7 O :   -0.013004
   8 H :    0.162319
   9 H :    0.097302
  10 H :    0.099636
  11 H :    0.102127

  Mayer bond orders larger than 0.1
B(  6-C ,  7-O ) :   0.9979 B(  6-C ,  9-H ) :   0.9780 B(  6-C , 10-H ) :   0.9693
B(  6-C , 11-H ) :   0.9840 B(  7-O ,  8-H ) :   0.9006

Dispersion correction           -0.000221243
FINAL SINGLE POINT ENERGY      -115.731731247305

DIPOLE MOMENT
-------------
                                X             Y             Z
Electronic contribution:     -0.58981      -0.40823       1.69830
Nuclear contribution   :      0.26238       0.73122      -2.13548
                        -----------------------------------------
Total Dipole Moment    :     -0.32743       0.32299      -0.43718
                        -----------------------------------------
Magnitude (a.u.)       :      0.63456
Magnitude (Debye)      :      1.61291

Rotational constants in cm-1:     4.276243     0.873466     0.853161
Rotational constants in MHz : 128198.541081 26185.844072 25577.117949

                             ****ORCA TERMINATED NORMALLY****
TOTAL RUN TIME: 0 days 0 hours 1 minutes 8 seconds 193 msec
