                         Program Version 4.1.2  - RELEASE  -
|  1> #Run DFT-D3 single point of the dimer
|  2> ! wB97X-D3 def2-TZVP TIGHTSCF CHELPG PMODEL PAL8
|  3>
|  4> %base "8-50_DFT_AB"
|  5>
|  6> %scf
|  7> MaxIter 1000
|  8> end
|  9>
| 10> * xyz 0 1
| 11>   C                      10.151555            8.697992             -2.113844
| 12>   O                      8.907114             8.041381             -1.854696
| 13>   H                      8.176294             8.540252             -2.215552
| 14>   H                      10.937525            7.939530             -1.949895
| 15>   H                      10.135819            9.106653             -3.162596
| 16>   H                      10.323929            9.538655             -1.477755
| 17>   C                      7.604302             9.430594             -4.653184
| 18>   O                      7.420304             9.981691             -3.343697
| 19>   H                      6.456757             10.199901            -3.331682
| 20>   H                      6.931500             8.548023             -4.760006
| 21>   H                      7.497435             10.232315            -5.420013
| 22>   H                      8.610127             9.069031             -4.734967
| 23> *
| 24>
| 25> #Run DFT-D3 single point of the molecule with dimer basis set
| 26> $new_job
| 27> %base "8-50_DFT_A"
| 28> ! wB97X-D3 def2-TZVP TIGHTSCF CHELPG PMODEL
| 29>
| 30> %scf
| 31> MaxIter 1000
| 32> end
| 33>
| 34> * xyz 0 1
| 35>   C                      10.151555            8.697992             -2.113844
| 36>   O                      8.907114             8.041381             -1.854696
| 37>   H                      8.176294             8.540252             -2.215552
| 38>   H                      10.937525            7.939530             -1.949895
| 39>   H                      10.135819            9.106653             -3.162596
| 40>   H                      10.323929            9.538655             -1.477755
| 41>   C                    : 7.604302             9.430594             -4.653184
| 42>   O                    : 7.420304             9.981691             -3.343697
| 43>   H                    : 6.456757             10.199901            -3.331682
| 44>   H                    : 6.931500             8.548023             -4.760006
| 45>   H                    : 7.497435             10.232315            -5.420013
| 46>   H                    : 8.610127             9.069031             -4.734967
| 47> *
| 48>
| 49> #Run DFT-D3 single point of the particle with dimer basis set
| 50> $new_job
| 51> %base "8-50_DFT_B"
| 52> ! wB97X-D3 def2-TZVP TIGHTSCF CHELPG PMODEL
| 53>
| 54> %scf
| 55> MaxIter 1000
| 56> end
| 57>
| 58> * xyz 0 1
| 59>   C                    : 10.151555            8.697992             -2.113844
| 60>   O                    : 8.907114             8.041381             -1.854696
| 61>   H                    : 8.176294             8.540252             -2.215552
| 62>   H                    : 10.937525            7.939530             -1.949895
| 63>   H                    : 10.135819            9.106653             -3.162596
| 64>   H                    : 10.323929            9.538655             -1.477755
| 65>   C                      7.604302             9.430594             -4.653184
| 66>   O                      7.420304             9.981691             -3.343697
| 67>   H                      6.456757             10.199901            -3.331682
| 68>   H                      6.931500             8.548023             -4.760006
| 69>   H                      7.497435             10.232315            -5.420013
| 70>   H                      8.610127             9.069031             -4.734967
| 71> *
| 72>
| 73>                          ****END OF INPUT****
 Total Charge           Charge          ....    0
 Multiplicity           Mult            ....    1
 Number of Electrons    NEL             ....   36
Dispersion correction           -0.002228680
FINAL SINGLE POINT ENERGY      -231.476946713040
Dispersion correction           -0.000247146
FINAL SINGLE POINT ENERGY      -115.735339325995

CARTESIAN COORDINATES (ANGSTROEM)
---------------------------------
  C     10.151555    8.697992   -2.113844
  O      8.907114    8.041381   -1.854696
  H      8.176294    8.540252   -2.215552
  H     10.937525    7.939530   -1.949895
  H     10.135819    9.106653   -3.162596
  H     10.323929    9.538655   -1.477755
  C      7.604302    9.430594   -4.653184
  O      7.420304    9.981691   -3.343697
  H      6.456757   10.199901   -3.331682
  H      6.931500    8.548023   -4.760006
  H      7.497435   10.232315   -5.420013
  H      8.610127    9.069031   -4.734967

 Multiplicity           Mult            ....    1
 Number of Electrons    NEL             ....   18
 Basis Dimension        Dim             ....  172

ORBITAL ENERGIES
----------------

  NO   OCC          E(Eh)            E(eV)
   0   2.0000     -19.232981      -523.3560
   1   2.0000     -10.316506      -280.7264
   2   2.0000      -1.128507       -30.7082
   3   2.0000      -0.790088       -21.4994
   4   2.0000      -0.597222       -16.2512
   5   2.0000      -0.547522       -14.8988
   6   2.0000      -0.524684       -14.2774
   7   2.0000      -0.434717       -11.8293
   8   2.0000      -0.374778       -10.1982
   9   0.0000       0.097248         2.6463
  10   0.0000       0.125675         3.4198
  11   0.0000       0.153857         4.1867
  12   0.0000       0.188082         5.1180
  13   0.0000       0.197737         5.3807

MULLIKEN ATOMIC CHARGES
-----------------------
   0 C :    0.003736
   1 O :   -0.000873
   2 H :   -0.010255
   3 H :    0.000007
   4 H :   -0.000438
   5 H :   -0.001387
   6 C :   -0.168134
   7 O :   -0.469668
   8 H :    0.312759
   9 H :    0.107580
  10 H :    0.107349
  11 H :    0.119323
Sum of atomic charges:    0.0000000

LOEWDIN ATOMIC CHARGES
----------------------
   0 C :   -0.008184
   1 O :   -0.004953
   2 H :   -0.038549
   3 H :   -0.000056
   4 H :   -0.005227
   5 H :   -0.000408
   6 C :   -0.371460
   7 O :   -0.065415
   8 H :    0.184822
   9 H :    0.102190
  10 H :    0.101520
  11 H :    0.105721

  Mayer bond orders larger than 0.1
B(  6-C ,  7-O ) :   0.9820 B(  6-C ,  9-H ) :   0.9816 B(  6-C , 10-H ) :   0.9693
B(  6-C , 11-H ) :   0.9787 B(  7-O ,  8-H ) :   0.8985

Dispersion correction           -0.000230494
FINAL SINGLE POINT ENERGY      -115.734019974723

DIPOLE MOMENT
-------------
                                X             Y             Z
Electronic contribution:     -0.07057       0.66986       1.63200
Nuclear contribution   :     -0.41181      -0.76061      -2.14394
                        -----------------------------------------
Total Dipole Moment    :     -0.48238      -0.09075      -0.51194
                        -----------------------------------------
Magnitude (a.u.)       :      0.70924
Magnitude (Debye)      :      1.80273

Rotational constants in cm-1:     4.081935     0.818678     0.798327
Rotational constants in MHz : 122373.330032 24543.336943 23933.247879

                             ****ORCA TERMINATED NORMALLY****
TOTAL RUN TIME: 0 days 0 hours 0 minutes 48 seconds 686 msec
