                         Program Version 4.1.2  - RELEASE  -
|  1> #Run DFT-D3 single point of the dimer
|  2> ! wB97X-D3 def2-TZVP TIGHTSCF CHELPG PMODEL PAL8
|  3>
|  4> %base "19-56_DFT_AB"
|  5>
|  6> %scf
|  7> MaxIter 1000
|  8> end
|  9>
| 10> * xyz 0 1
| 11>   C                      7.735640             -3.628557            -5.394134
| 12>   O                      6.374040             -3.628548            -5.142410
| 13>   H                      5.933957             -4.477045            -5.105908
| 14>   H                      8.304852             -3.877057            -4.570331
| 15>   H                      7.857922             -4.475036            -6.074864
| 16>   H                      8.076524             -2.769222            -5.967372
| 17>   C                      3.916509             -3.508539            -1.803295
| 18>   O                      4.339217             -4.813427            -1.423874
| 19>   H                      5.103131             -4.768572            -0.766740
| 20>   H                      4.574510             -3.094460            -2.572110
| 21>   H                      2.850939             -3.502246            -2.171347
| 22>   H                      3.965013             -2.881718            -0.988602
| 23> *
| 24>
| 25> #Run DFT-D3 single point of the molecule with dimer basis set
| 26> $new_job
| 27> %base "19-56_DFT_A"
| 28> ! wB97X-D3 def2-TZVP TIGHTSCF CHELPG PMODEL
| 29>
| 30> %scf
| 31> MaxIter 1000
| 32> end
| 33>
| 34> * xyz 0 1
| 35>   C                      7.735640             -3.628557            -5.394134
| 36>   O                      6.374040             -3.628548            -5.142410
| 37>   H                      5.933957             -4.477045            -5.105908
| 38>   H                      8.304852             -3.877057            -4.570331
| 39>   H                      7.857922             -4.475036            -6.074864
| 40>   H                      8.076524             -2.769222            -5.967372
| 41>   C                    : 3.916509             -3.508539            -1.803295
| 42>   O                    : 4.339217             -4.813427            -1.423874
| 43>   H                    : 5.103131             -4.768572            -0.766740
| 44>   H                    : 4.574510             -3.094460            -2.572110
| 45>   H                    : 2.850939             -3.502246            -2.171347
| 46>   H                    : 3.965013             -2.881718            -0.988602
| 47> *
| 48>
| 49> #Run DFT-D3 single point of the particle with dimer basis set
| 50> $new_job
| 51> %base "19-56_DFT_B"
| 52> ! wB97X-D3 def2-TZVP TIGHTSCF CHELPG PMODEL
| 53>
| 54> %scf
| 55> MaxIter 1000
| 56> end
| 57>
| 58> * xyz 0 1
| 59>   C                    : 7.735640             -3.628557            -5.394134
| 60>   O                    : 6.374040             -3.628548            -5.142410
| 61>   H                    : 5.933957             -4.477045            -5.105908
| 62>   H                    : 8.304852             -3.877057            -4.570331
| 63>   H                    : 7.857922             -4.475036            -6.074864
| 64>   H                    : 8.076524             -2.769222            -5.967372
| 65>   C                      3.916509             -3.508539            -1.803295
| 66>   O                      4.339217             -4.813427            -1.423874
| 67>   H                      5.103131             -4.768572            -0.766740
| 68>   H                      4.574510             -3.094460            -2.572110
| 69>   H                      2.850939             -3.502246            -2.171347
| 70>   H                      3.965013             -2.881718            -0.988602
| 71> *
| 72>
| 73>                          ****END OF INPUT****
 Total Charge           Charge          ....    0
 Multiplicity           Mult            ....    1
 Number of Electrons    NEL             ....   36
Dispersion correction           -0.001044034
FINAL SINGLE POINT ENERGY      -231.456961426808
Dispersion correction           -0.000222511
FINAL SINGLE POINT ENERGY      -115.725443645595

CARTESIAN COORDINATES (ANGSTROEM)
---------------------------------
  C      7.735640   -3.628557   -5.394134
  O      6.374040   -3.628548   -5.142410
  H      5.933957   -4.477045   -5.105908
  H      8.304852   -3.877057   -4.570331
  H      7.857922   -4.475036   -6.074864
  H      8.076524   -2.769222   -5.967372
  C      3.916509   -3.508539   -1.803295
  O      4.339217   -4.813427   -1.423874
  H      5.103131   -4.768572   -0.766740
  H      4.574510   -3.094460   -2.572110
  H      2.850939   -3.502246   -2.171347
  H      3.965013   -2.881718   -0.988602

 Multiplicity           Mult            ....    1
 Number of Electrons    NEL             ....   18
 Basis Dimension        Dim             ....  172

ORBITAL ENERGIES
----------------

  NO   OCC          E(Eh)            E(eV)
   0   2.0000     -19.230803      -523.2968
   1   2.0000     -10.309056      -280.5237
   2   2.0000      -1.121726       -30.5237
   3   2.0000      -0.794880       -21.6298
   4   2.0000      -0.606536       -16.5047
   5   2.0000      -0.541343       -14.7307
   6   2.0000      -0.524753       -14.2792
   7   2.0000      -0.428255       -11.6534
   8   2.0000      -0.371066       -10.0972
   9   0.0000       0.085587         2.3289
  10   0.0000       0.112172         3.0524
  11   0.0000       0.148056         4.0288
  12   0.0000       0.169388         4.6093
  13   0.0000       0.190718         5.1897

MULLIKEN ATOMIC CHARGES
-----------------------
   0 C :   -0.000101
   1 O :    0.000196
   2 H :    0.000063
   3 H :    0.000019
   4 H :   -0.000005
   5 H :   -0.000007
   6 C :   -0.162827
   7 O :   -0.488348
   8 H :    0.318393
   9 H :    0.102154
  10 H :    0.117272
  11 H :    0.113189
Sum of atomic charges:    0.0000000

LOEWDIN ATOMIC CHARGES
----------------------
   0 C :   -0.000127
   1 O :   -0.000664
   2 H :   -0.000316
   3 H :   -0.000006
   4 H :   -0.000006
   5 H :   -0.000002
   6 C :   -0.375806
   7 O :   -0.108671
   8 H :    0.194611
   9 H :    0.094807
  10 H :    0.115889
  11 H :    0.080291

  Mayer bond orders larger than 0.1
B(  6-C ,  7-O ) :   0.9974 B(  6-C ,  9-H ) :   0.9733 B(  6-C , 10-H ) :   0.9705
B(  6-C , 11-H ) :   0.9852 B(  7-O ,  8-H ) :   0.8896

Dispersion correction           -0.000245335
FINAL SINGLE POINT ENERGY      -115.729660972202

DIPOLE MOMENT
-------------
                                X             Y             Z
Electronic contribution:      0.41419      -1.67868       0.41440
Nuclear contribution   :     -0.11062       2.26095      -0.12259
                        -----------------------------------------
Total Dipole Moment    :      0.30357       0.58227       0.29180
                        -----------------------------------------
Magnitude (a.u.)       :      0.71857
Magnitude (Debye)      :      1.82645

Rotational constants in cm-1:     4.322870     0.819408     0.787707
Rotational constants in MHz : 129596.376276 24565.244026 23614.861438

                             ****ORCA TERMINATED NORMALLY****
TOTAL RUN TIME: 0 days 0 hours 0 minutes 49 seconds 171 msec
