                         Program Version 4.1.2  - RELEASE  -
|  1> #Run DFT-D3 single point of the dimer
|  2> ! wB97X-D3 def2-TZVP TIGHTSCF CHELPG PMODEL PAL8
|  3>
|  4> %base "20-144_DFT_AB"
|  5>
|  6> %scf
|  7> MaxIter 1000
|  8> end
|  9>
| 10> * xyz 0 1
| 11>   C                      3.421083             7.210072             4.473973
| 12>   O                      4.589934             8.015579             4.515994
| 13>   H                      4.448920             8.817756             4.027650
| 14>   H                      2.520643             7.794429             4.744338
| 15>   H                      3.176166             6.680159             3.580771
| 16>   H                      3.413371             6.403529             5.216325
| 17>   C                      4.364925             10.675978            8.489098
| 18>   O                      4.243347             9.309372             8.915826
| 19>   H                      5.063584             8.812677             8.699027
| 20>   H                      3.415212             11.253275            8.585645
| 21>   H                      5.153685             11.261331            8.957028
| 22>   H                      4.507066             10.811050            7.394606
| 23> *
| 24>
| 25> #Run DFT-D3 single point of the molecule with dimer basis set
| 26> $new_job
| 27> %base "20-144_DFT_A"
| 28> ! wB97X-D3 def2-TZVP TIGHTSCF CHELPG PMODEL
| 29>
| 30> %scf
| 31> MaxIter 1000
| 32> end
| 33>
| 34> * xyz 0 1
| 35>   C                      3.421083             7.210072             4.473973
| 36>   O                      4.589934             8.015579             4.515994
| 37>   H                      4.448920             8.817756             4.027650
| 38>   H                      2.520643             7.794429             4.744338
| 39>   H                      3.176166             6.680159             3.580771
| 40>   H                      3.413371             6.403529             5.216325
| 41>   C                    : 4.364925             10.675978            8.489098
| 42>   O                    : 4.243347             9.309372             8.915826
| 43>   H                    : 5.063584             8.812677             8.699027
| 44>   H                    : 3.415212             11.253275            8.585645
| 45>   H                    : 5.153685             11.261331            8.957028
| 46>   H                    : 4.507066             10.811050            7.394606
| 47> *
| 48>
| 49> #Run DFT-D3 single point of the particle with dimer basis set
| 50> $new_job
| 51> %base "20-144_DFT_B"
| 52> ! wB97X-D3 def2-TZVP TIGHTSCF CHELPG PMODEL
| 53>
| 54> %scf
| 55> MaxIter 1000
| 56> end
| 57>
| 58> * xyz 0 1
| 59>   C                    : 3.421083             7.210072             4.473973
| 60>   O                    : 4.589934             8.015579             4.515994
| 61>   H                    : 4.448920             8.817756             4.027650
| 62>   H                    : 2.520643             7.794429             4.744338
| 63>   H                    : 3.176166             6.680159             3.580771
| 64>   H                    : 3.413371             6.403529             5.216325
| 65>   C                      4.364925             10.675978            8.489098
| 66>   O                      4.243347             9.309372             8.915826
| 67>   H                      5.063584             8.812677             8.699027
| 68>   H                      3.415212             11.253275            8.585645
| 69>   H                      5.153685             11.261331            8.957028
| 70>   H                      4.507066             10.811050            7.394606
| 71> *
| 72>
| 73>                          ****END OF INPUT****
 Total Charge           Charge          ....    0
 Multiplicity           Mult            ....    1
 Number of Electrons    NEL             ....   36
Dispersion correction           -0.000926814
FINAL SINGLE POINT ENERGY      -231.464545555252
Dispersion correction           -0.000268473
FINAL SINGLE POINT ENERGY      -115.732298909999

CARTESIAN COORDINATES (ANGSTROEM)
---------------------------------
  C      3.421083    7.210072    4.473973
  O      4.589934    8.015579    4.515994
  H      4.448920    8.817756    4.027650
  H      2.520643    7.794429    4.744338
  H      3.176166    6.680159    3.580771
  H      3.413371    6.403529    5.216325
  C      4.364925   10.675978    8.489098
  O      4.243347    9.309372    8.915826
  H      5.063584    8.812677    8.699027
  H      3.415212   11.253275    8.585645
  H      5.153685   11.261331    8.957028
  H      4.507066   10.811050    7.394606

 Multiplicity           Mult            ....    1
 Number of Electrons    NEL             ....   18
 Basis Dimension        Dim             ....  172

ORBITAL ENERGIES
----------------

  NO   OCC          E(Eh)            E(eV)
   0   2.0000     -19.237055      -523.4669
   1   2.0000     -10.318873      -280.7908
   2   2.0000      -1.125688       -30.6315
   3   2.0000      -0.796379       -21.6706
   4   2.0000      -0.608040       -16.5456
   5   2.0000      -0.537668       -14.6307
   6   2.0000      -0.518458       -14.1079
   7   2.0000      -0.429827       -11.6962
   8   2.0000      -0.376914       -10.2563
   9   0.0000       0.082489         2.2446
  10   0.0000       0.117518         3.1978
  11   0.0000       0.140940         3.8352
  12   0.0000       0.163869         4.4591
  13   0.0000       0.199442         5.4271

MULLIKEN ATOMIC CHARGES
-----------------------
   0 C :   -0.000593
   1 O :    0.000083
   2 H :   -0.000046
   3 H :    0.000052
   4 H :   -0.000026
   5 H :    0.000038
   6 C :   -0.176626
   7 O :   -0.479907
   8 H :    0.320505
   9 H :    0.123603
  10 H :    0.109971
  11 H :    0.102946
Sum of atomic charges:   -0.0000000

LOEWDIN ATOMIC CHARGES
----------------------
   0 C :   -0.000255
   1 O :   -0.000041
   2 H :   -0.000072
   3 H :   -0.000020
   4 H :   -0.000018
   5 H :   -0.000030
   6 C :   -0.386395
   7 O :   -0.099981
   8 H :    0.182068
   9 H :    0.114674
  10 H :    0.092746
  11 H :    0.097323

  Mayer bond orders larger than 0.1
B(  6-C ,  7-O ) :   1.0031 B(  6-C ,  9-H ) :   0.9725 B(  6-C , 10-H ) :   0.9705
B(  6-C , 11-H ) :   0.9730 B(  7-O ,  8-H ) :   0.8914

Dispersion correction           -0.000289134
FINAL SINGLE POINT ENERGY      -115.731342195384

DIPOLE MOMENT
-------------
                                X             Y             Z
Electronic contribution:     -0.22507      -1.83731       0.73868
Nuclear contribution   :      0.78415       2.08701      -1.05879
                        -----------------------------------------
Total Dipole Moment    :      0.55908       0.24971      -0.32012
                        -----------------------------------------
Magnitude (a.u.)       :      0.69094
Magnitude (Debye)      :      1.75622

Rotational constants in cm-1:     4.417532     0.787296     0.761536
Rotational constants in MHz : 132434.267608 23602.545019 22830.286689

                             ****ORCA TERMINATED NORMALLY****
TOTAL RUN TIME: 0 days 0 hours 0 minutes 58 seconds 556 msec
