                         Program Version 4.1.2  - RELEASE  -
|  1> #Run DFT-D3 single point of the dimer
|  2> ! wB97X-D3 def2-TZVP TIGHTSCF CHELPG PMODEL PAL8
|  3>
|  4> %base "13-204_DFT_AB"
|  5>
|  6> %scf
|  7> MaxIter 1000
|  8> end
|  9>
| 10> * xyz 0 1
| 11>   C                      10.358867            -8.606354            -6.846104
| 12>   O                      11.576055            -8.894586            -7.509035
| 13>   H                      11.968368            -9.530511            -6.920522
| 14>   H                      9.532958             -9.139037            -7.337551
| 15>   H                      10.343493            -8.936751            -5.868615
| 16>   H                      10.048792            -7.582106            -6.767305
| 17>   C                      11.131063            -10.118161           -11.327609
| 18>   O                      10.422898            -9.446828            -10.378451
| 19>   H                      11.022477            -9.343888            -9.615207
| 20>   H                      10.498828            -10.682776           -11.989809
| 21>   H                      11.814692            -9.366196            -11.897765
| 22>   H                      11.764836            -10.897346           -10.847406
| 23> *
| 24>
| 25> #Run DFT-D3 single point of the molecule with dimer basis set
| 26> $new_job
| 27> %base "13-204_DFT_A"
| 28> ! wB97X-D3 def2-TZVP TIGHTSCF CHELPG PMODEL
| 29>
| 30> %scf
| 31> MaxIter 1000
| 32> end
| 33>
| 34> * xyz 0 1
| 35>   C                      10.358867            -8.606354            -6.846104
| 36>   O                      11.576055            -8.894586            -7.509035
| 37>   H                      11.968368            -9.530511            -6.920522
| 38>   H                      9.532958             -9.139037            -7.337551
| 39>   H                      10.343493            -8.936751            -5.868615
| 40>   H                      10.048792            -7.582106            -6.767305
| 41>   C                    : 11.131063            -10.118161           -11.327609
| 42>   O                    : 10.422898            -9.446828            -10.378451
| 43>   H                    : 11.022477            -9.343888            -9.615207
| 44>   H                    : 10.498828            -10.682776           -11.989809
| 45>   H                    : 11.814692            -9.366196            -11.897765
| 46>   H                    : 11.764836            -10.897346           -10.847406
| 47> *
| 48>
| 49> #Run DFT-D3 single point of the particle with dimer basis set
| 50> $new_job
| 51> %base "13-204_DFT_B"
| 52> ! wB97X-D3 def2-TZVP TIGHTSCF CHELPG PMODEL
| 53>
| 54> %scf
| 55> MaxIter 1000
| 56> end
| 57>
| 58> * xyz 0 1
| 59>   C                    : 10.358867            -8.606354            -6.846104
| 60>   O                    : 11.576055            -8.894586            -7.509035
| 61>   H                    : 11.968368            -9.530511            -6.920522
| 62>   H                    : 9.532958             -9.139037            -7.337551
| 63>   H                    : 10.343493            -8.936751            -5.868615
| 64>   H                    : 10.048792            -7.582106            -6.767305
| 65>   C                      11.131063            -10.118161           -11.327609
| 66>   O                      10.422898            -9.446828            -10.378451
| 67>   H                      11.022477            -9.343888            -9.615207
| 68>   H                      10.498828            -10.682776           -11.989809
| 69>   H                      11.814692            -9.366196            -11.897765
| 70>   H                      11.764836            -10.897346           -10.847406
| 71> *
| 72>
| 73>                          ****END OF INPUT****
 Total Charge           Charge          ....    0
 Multiplicity           Mult            ....    1
 Number of Electrons    NEL             ....   36
Dispersion correction           -0.001547249
FINAL SINGLE POINT ENERGY      -231.466695490059
Dispersion correction           -0.000233014
FINAL SINGLE POINT ENERGY      -115.728858918745

CARTESIAN COORDINATES (ANGSTROEM)
---------------------------------
  C     10.358867   -8.606354   -6.846104
  O     11.576055   -8.894586   -7.509035
  H     11.968368   -9.530511   -6.920522
  H      9.532958   -9.139037   -7.337551
  H     10.343493   -8.936751   -5.868615
  H     10.048792   -7.582106   -6.767305
  C     11.131063  -10.118161  -11.327609
  O     10.422898   -9.446828  -10.378451
  H     11.022477   -9.343888   -9.615207
  H     10.498828  -10.682776  -11.989809
  H     11.814692   -9.366196  -11.897765
  H     11.764836  -10.897346  -10.847406

 Multiplicity           Mult            ....    1
 Number of Electrons    NEL             ....   18
 Basis Dimension        Dim             ....  172

ORBITAL ENERGIES
----------------

  NO   OCC          E(Eh)            E(eV)
   0   2.0000     -19.232645      -523.3469
   1   2.0000     -10.316778      -280.7338
   2   2.0000      -1.153712       -31.3941
   3   2.0000      -0.786393       -21.3988
   4   2.0000      -0.617355       -16.7991
   5   2.0000      -0.549389       -14.9496
   6   2.0000      -0.532816       -14.4987
   7   2.0000      -0.427727       -11.6390
   8   2.0000      -0.369232       -10.0473
   9   0.0000       0.074413         2.0249
  10   0.0000       0.124852         3.3974
  11   0.0000       0.156530         4.2594
  12   0.0000       0.170715         4.6454
  13   0.0000       0.195745         5.3265

MULLIKEN ATOMIC CHARGES
-----------------------
   0 C :    0.000441
   1 O :    0.000025
   2 H :    0.000045
   3 H :   -0.003061
   4 H :    0.000050
   5 H :   -0.000050
   6 C :   -0.160130
   7 O :   -0.453750
   8 H :    0.319542
   9 H :    0.115536
  10 H :    0.087633
  11 H :    0.093720
Sum of atomic charges:    0.0000000

LOEWDIN ATOMIC CHARGES
----------------------
   0 C :   -0.004036
   1 O :   -0.008840
   2 H :   -0.000551
   3 H :   -0.001937
   4 H :   -0.000033
   5 H :   -0.000064
   6 C :   -0.434525
   7 O :   -0.039901
   8 H :    0.191470
   9 H :    0.100306
  10 H :    0.102256
  11 H :    0.095856

  Mayer bond orders larger than 0.1
B(  6-C ,  7-O ) :   1.0086 B(  6-C ,  9-H ) :   0.9705 B(  6-C , 10-H ) :   0.9757
B(  6-C , 11-H ) :   0.9855 B(  7-O ,  8-H ) :   0.8954

Dispersion correction           -0.000220650
FINAL SINGLE POINT ENERGY      -115.730129738455

DIPOLE MOMENT
-------------
                                X             Y             Z
Electronic contribution:     -1.19689       0.88912       1.14686
Nuclear contribution   :      1.79430      -1.10342      -0.98441
                        -----------------------------------------
Total Dipole Moment    :      0.59741      -0.21430       0.16245
                        -----------------------------------------
Magnitude (a.u.)       :      0.65515
Magnitude (Debye)      :      1.66525

Rotational constants in cm-1:     4.081404     0.877142     0.855263
Rotational constants in MHz : 122357.423786 26296.042662 25640.135446

                             ****ORCA TERMINATED NORMALLY****
TOTAL RUN TIME: 0 days 0 hours 1 minutes 0 seconds 264 msec
