                         Program Version 4.1.2  - RELEASE  -
|  1> #Run DFT-D3 single point of the dimer
|  2> ! wB97X-D3 def2-TZVP TIGHTSCF CHELPG PMODEL PAL8
|  3>
|  4> %base "18-18_DFT_AB"
|  5>
|  6> %scf
|  7> MaxIter 1000
|  8> end
|  9>
| 10> * xyz 0 1
| 11>   C                      -5.176520            -0.642955            5.468790
| 12>   O                      -4.038877            -1.295501            5.945422
| 13>   H                      -4.126203            -2.205438            5.650035
| 14>   H                      -5.286508            -0.774904            4.375683
| 15>   H                      -6.105946            -0.911018            5.899308
| 16>   H                      -5.090722            0.414521             5.747167
| 17>   C                      -2.094311            2.283453             2.567803
| 18>   O                      -2.206315            1.869918             1.194003
| 19>   H                      -3.161988            1.826491             1.108694
| 20>   H                      -2.770650            1.809254             3.256604
| 21>   H                      -1.121342            2.272797             2.978147
| 22>   H                      -2.354916            3.318122             2.580382
| 23> *
| 24>
| 25> #Run DFT-D3 single point of the molecule with dimer basis set
| 26> $new_job
| 27> %base "18-18_DFT_A"
| 28> ! wB97X-D3 def2-TZVP TIGHTSCF CHELPG PMODEL
| 29>
| 30> %scf
| 31> MaxIter 1000
| 32> end
| 33>
| 34> * xyz 0 1
| 35>   C                      -5.176520            -0.642955            5.468790
| 36>   O                      -4.038877            -1.295501            5.945422
| 37>   H                      -4.126203            -2.205438            5.650035
| 38>   H                      -5.286508            -0.774904            4.375683
| 39>   H                      -6.105946            -0.911018            5.899308
| 40>   H                      -5.090722            0.414521             5.747167
| 41>   C                    : -2.094311            2.283453             2.567803
| 42>   O                    : -2.206315            1.869918             1.194003
| 43>   H                    : -3.161988            1.826491             1.108694
| 44>   H                    : -2.770650            1.809254             3.256604
| 45>   H                    : -1.121342            2.272797             2.978147
| 46>   H                    : -2.354916            3.318122             2.580382
| 47> *
| 48>
| 49> #Run DFT-D3 single point of the particle with dimer basis set
| 50> $new_job
| 51> %base "18-18_DFT_B"
| 52> ! wB97X-D3 def2-TZVP TIGHTSCF CHELPG PMODEL
| 53>
| 54> %scf
| 55> MaxIter 1000
| 56> end
| 57>
| 58> * xyz 0 1
| 59>   C                    : -5.176520            -0.642955            5.468790
| 60>   O                    : -4.038877            -1.295501            5.945422
| 61>   H                    : -4.126203            -2.205438            5.650035
| 62>   H                    : -5.286508            -0.774904            4.375683
| 63>   H                    : -6.105946            -0.911018            5.899308
| 64>   H                    : -5.090722            0.414521             5.747167
| 65>   C                      -2.094311            2.283453             2.567803
| 66>   O                      -2.206315            1.869918             1.194003
| 67>   H                      -3.161988            1.826491             1.108694
| 68>   H                      -2.770650            1.809254             3.256604
| 69>   H                      -1.121342            2.272797             2.978147
| 70>   H                      -2.354916            3.318122             2.580382
| 71> *
| 72>
| 73>                          ****END OF INPUT****
 Total Charge           Charge          ....    0
 Multiplicity           Mult            ....    1
 Number of Electrons    NEL             ....   36
Dispersion correction           -0.000766183
FINAL SINGLE POINT ENERGY      -231.463628756812
Dispersion correction           -0.000229559
FINAL SINGLE POINT ENERGY      -115.734120986842

CARTESIAN COORDINATES (ANGSTROEM)
---------------------------------
  C     -5.176520   -0.642955    5.468790
  O     -4.038877   -1.295501    5.945422
  H     -4.126203   -2.205438    5.650035
  H     -5.286508   -0.774904    4.375683
  H     -6.105946   -0.911018    5.899308
  H     -5.090722    0.414521    5.747167
  C     -2.094311    2.283453    2.567803
  O     -2.206315    1.869918    1.194003
  H     -3.161988    1.826491    1.108694
  H     -2.770650    1.809254    3.256604
  H     -1.121342    2.272797    2.978147
  H     -2.354916    3.318122    2.580382

 Multiplicity           Mult            ....    1
 Number of Electrons    NEL             ....   18
 Basis Dimension        Dim             ....  172

ORBITAL ENERGIES
----------------

  NO   OCC          E(Eh)            E(eV)
   0   2.0000     -19.232497      -523.3429
   1   2.0000     -10.305951      -280.4392
   2   2.0000      -1.133826       -30.8530
   3   2.0000      -0.802248       -21.8303
   4   2.0000      -0.606672       -16.5084
   5   2.0000      -0.538930       -14.6650
   6   2.0000      -0.531549       -14.4642
   7   2.0000      -0.447587       -12.1795
   8   2.0000      -0.372547       -10.1375
   9   0.0000       0.078555         2.1376
  10   0.0000       0.116670         3.1748
  11   0.0000       0.148769         4.0482
  12   0.0000       0.165037         4.4909
  13   0.0000       0.183726         4.9994

MULLIKEN ATOMIC CHARGES
-----------------------
   0 C :    0.000039
   1 O :   -0.000012
   2 H :   -0.000002
   3 H :    0.000033
   4 H :    0.000004
   5 H :   -0.000136
   6 C :   -0.190020
   7 O :   -0.465745
   8 H :    0.312856
   9 H :    0.107727
  10 H :    0.124439
  11 H :    0.110816
Sum of atomic charges:   -0.0000000

LOEWDIN ATOMIC CHARGES
----------------------
   0 C :   -0.000355
   1 O :   -0.000004
   2 H :   -0.000001
   3 H :   -0.000052
   4 H :   -0.000003
   5 H :   -0.000142
   6 C :   -0.366293
   7 O :   -0.092370
   8 H :    0.172095
   9 H :    0.092868
  10 H :    0.100297
  11 H :    0.093961

  Mayer bond orders larger than 0.1
B(  6-C ,  7-O ) :   0.9922 B(  6-C ,  9-H ) :   0.9741 B(  6-C , 10-H ) :   0.9734
B(  6-C , 11-H ) :   0.9869 B(  7-O ,  8-H ) :   0.9046

Dispersion correction           -0.000222008
FINAL SINGLE POINT ENERGY      -115.729058040426

DIPOLE MOMENT
-------------
                                X             Y             Z
Electronic contribution:      0.09955      -0.69042      -1.76662
Nuclear contribution   :     -0.63656       0.84792       2.27928
                        -----------------------------------------
Total Dipole Moment    :     -0.53701       0.15749       0.51266
                        -----------------------------------------
Magnitude (a.u.)       :      0.75895
Magnitude (Debye)      :      1.92910

Rotational constants in cm-1:     4.503283     0.817863     0.783448
Rotational constants in MHz : 135005.026414 24518.904653 23487.182076

                             ****ORCA TERMINATED NORMALLY****
TOTAL RUN TIME: 0 days 0 hours 0 minutes 50 seconds 335 msec
