                         Program Version 4.1.2  - RELEASE  -
|  1> #Run DFT-D3 single point of the dimer
|  2> ! wB97X-D3 def2-TZVP TIGHTSCF CHELPG PMODEL PAL8
|  3>
|  4> %base "5-152_DFT_AB"
|  5>
|  6> %scf
|  7> MaxIter 1000
|  8> end
|  9>
| 10> * xyz 0 1
| 11>   C                      0.625427             -9.647288            6.378910
| 12>   O                      0.518731             -10.901716           7.107057
| 13>   H                      0.329576             -11.554856           6.438292
| 14>   H                      -0.355403            -9.255541            5.926921
| 15>   H                      0.954236             -8.852449            7.008761
| 16>   H                      1.365462             -9.696381            5.531986
| 17>   C                      -1.254427            -9.150178            9.782864
| 18>   O                      -0.017424            -9.841747            9.832732
| 19>   H                      0.160211             -9.991979            8.942840
| 20>   H                      -1.706994            -9.217638            10.726953
| 21>   H                      -0.986296            -8.129542            9.582045
| 22>   H                      -1.961842            -9.583843            9.047206
| 23> *
| 24>
| 25> #Run DFT-D3 single point of the molecule with dimer basis set
| 26> $new_job
| 27> %base "5-152_DFT_A"
| 28> ! wB97X-D3 def2-TZVP TIGHTSCF CHELPG PMODEL
| 29>
| 30> %scf
| 31> MaxIter 1000
| 32> end
| 33>
| 34> * xyz 0 1
| 35>   C                      0.625427             -9.647288            6.378910
| 36>   O                      0.518731             -10.901716           7.107057
| 37>   H                      0.329576             -11.554856           6.438292
| 38>   H                      -0.355403            -9.255541            5.926921
| 39>   H                      0.954236             -8.852449            7.008761
| 40>   H                      1.365462             -9.696381            5.531986
| 41>   C                    : -1.254427            -9.150178            9.782864
| 42>   O                    : -0.017424            -9.841747            9.832732
| 43>   H                    : 0.160211             -9.991979            8.942840
| 44>   H                    : -1.706994            -9.217638            10.726953
| 45>   H                    : -0.986296            -8.129542            9.582045
| 46>   H                    : -1.961842            -9.583843            9.047206
| 47> *
| 48>
| 49> #Run DFT-D3 single point of the particle with dimer basis set
| 50> $new_job
| 51> %base "5-152_DFT_B"
| 52> ! wB97X-D3 def2-TZVP TIGHTSCF CHELPG PMODEL
| 53>
| 54> %scf
| 55> MaxIter 1000
| 56> end
| 57>
| 58> * xyz 0 1
| 59>   C                    : 0.625427             -9.647288            6.378910
| 60>   O                    : 0.518731             -10.901716           7.107057
| 61>   H                    : 0.329576             -11.554856           6.438292
| 62>   H                    : -0.355403            -9.255541            5.926921
| 63>   H                    : 0.954236             -8.852449            7.008761
| 64>   H                    : 1.365462             -9.696381            5.531986
| 65>   C                      -1.254427            -9.150178            9.782864
| 66>   O                      -0.017424            -9.841747            9.832732
| 67>   H                      0.160211             -9.991979            8.942840
| 68>   H                      -1.706994            -9.217638            10.726953
| 69>   H                      -0.986296            -8.129542            9.582045
| 70>   H                      -1.961842            -9.583843            9.047206
| 71> *
| 72>
| 73>                          ****END OF INPUT****
 Total Charge           Charge          ....    0
 Multiplicity           Mult            ....    1
 Number of Electrons    NEL             ....   36
Dispersion correction           -0.001999651
FINAL SINGLE POINT ENERGY      -231.468799156873
Dispersion correction           -0.000280081
FINAL SINGLE POINT ENERGY      -115.732467299490

CARTESIAN COORDINATES (ANGSTROEM)
---------------------------------
  C      0.625427   -9.647288    6.378910
  O      0.518731  -10.901716    7.107057
  H      0.329576  -11.554856    6.438292
  H     -0.355403   -9.255541    5.926921
  H      0.954236   -8.852449    7.008761
  H      1.365462   -9.696381    5.531986
  C     -1.254427   -9.150178    9.782864
  O     -0.017424   -9.841747    9.832732
  H      0.160211   -9.991979    8.942840
  H     -1.706994   -9.217638   10.726953
  H     -0.986296   -8.129542    9.582045
  H     -1.961842   -9.583843    9.047206

 Multiplicity           Mult            ....    1
 Number of Electrons    NEL             ....   18
 Basis Dimension        Dim             ....  172

ORBITAL ENERGIES
----------------

  NO   OCC          E(Eh)            E(eV)
   0   2.0000     -19.224622      -523.1286
   1   2.0000     -10.307577      -280.4834
   2   2.0000      -1.146267       -31.1915
   3   2.0000      -0.799690       -21.7607
   4   2.0000      -0.609989       -16.5986
   5   2.0000      -0.553607       -15.0644
   6   2.0000      -0.526961       -14.3393
   7   2.0000      -0.441812       -12.0223
   8   2.0000      -0.374160       -10.1814
   9   0.0000       0.069443         1.8896
  10   0.0000       0.140556         3.8247
  11   0.0000       0.151273         4.1163
  12   0.0000       0.160347         4.3633
  13   0.0000       0.189906         5.1676

MULLIKEN ATOMIC CHARGES
-----------------------
   0 C :   -0.000698
   1 O :   -0.001987
   2 H :   -0.000158
   3 H :   -0.000093
   4 H :   -0.002979
   5 H :   -0.000224
   6 C :   -0.174086
   7 O :   -0.457040
   8 H :    0.299481
   9 H :    0.125585
  10 H :    0.108859
  11 H :    0.103342
Sum of atomic charges:   -0.0000000

LOEWDIN ATOMIC CHARGES
----------------------
   0 C :   -0.007482
   1 O :   -0.012453
   2 H :   -0.000516
   3 H :   -0.000177
   4 H :   -0.002445
   5 H :   -0.000108
   6 C :   -0.369275
   7 O :   -0.049347
   8 H :    0.146650
   9 H :    0.098286
  10 H :    0.095866
  11 H :    0.101001

  Mayer bond orders larger than 0.1
B(  6-C ,  7-O ) :   0.9774 B(  6-C ,  9-H ) :   0.9768 B(  6-C , 10-H ) :   0.9851
B(  6-C , 11-H ) :   0.9749 B(  7-O ,  8-H ) :   0.9277

Dispersion correction           -0.000205352
FINAL SINGLE POINT ENERGY      -115.731364228655

DIPOLE MOMENT
-------------
                                X             Y             Z
Electronic contribution:      1.49180      -0.85461       0.21871
Nuclear contribution   :     -1.88020       1.02656      -0.77536
                        -----------------------------------------
Total Dipole Moment    :     -0.38840       0.17195      -0.55666
                        -----------------------------------------
Magnitude (a.u.)       :      0.70021
Magnitude (Debye)      :      1.77978

Rotational constants in cm-1:     4.329913     0.845175     0.820204
Rotational constants in MHz : 129807.513345 25337.711698 24589.110647

                             ****ORCA TERMINATED NORMALLY****
TOTAL RUN TIME: 0 days 0 hours 1 minutes 3 seconds 14 msec
