                         Program Version 4.1.2  - RELEASE  -
|  1> #Run DFT-D3 single point of the dimer
|  2> ! wB97X-D3 def2-TZVP TIGHTSCF CHELPG PMODEL PAL8
|  3>
|  4> %base "7-52_DFT_AB"
|  5>
|  6> %scf
|  7> MaxIter 1000
|  8> end
|  9>
| 10> * xyz 0 1
| 11>   C                      -10.430630           5.965214             -6.659766
| 12>   O                      -11.506915           6.842817             -6.664926
| 13>   H                      -12.269845           6.244401             -6.518812
| 14>   H                      -10.239529           5.594698             -5.660409
| 15>   H                      -10.552653           5.211127             -7.463928
| 16>   H                      -9.466643            6.469908             -6.833632
| 17>   C                      -8.073983            1.833345             -9.588540
| 18>   O                      -7.130411            2.584063             -8.864001
| 19>   H                      -6.456292            1.998703             -8.551465
| 20>   H                      -8.235140            0.778497             -9.290424
| 21>   H                      -9.112701            2.244961             -9.539074
| 22>   H                      -7.848559            1.591181             -10.633758
| 23> *
| 24>
| 25> #Run DFT-D3 single point of the molecule with dimer basis set
| 26> $new_job
| 27> %base "7-52_DFT_A"
| 28> ! wB97X-D3 def2-TZVP TIGHTSCF CHELPG PMODEL
| 29>
| 30> %scf
| 31> MaxIter 1000
| 32> end
| 33>
| 34> * xyz 0 1
| 35>   C                      -10.430630           5.965214             -6.659766
| 36>   O                      -11.506915           6.842817             -6.664926
| 37>   H                      -12.269845           6.244401             -6.518812
| 38>   H                      -10.239529           5.594698             -5.660409
| 39>   H                      -10.552653           5.211127             -7.463928
| 40>   H                      -9.466643            6.469908             -6.833632
| 41>   C                    : -8.073983            1.833345             -9.588540
| 42>   O                    : -7.130411            2.584063             -8.864001
| 43>   H                    : -6.456292            1.998703             -8.551465
| 44>   H                    : -8.235140            0.778497             -9.290424
| 45>   H                    : -9.112701            2.244961             -9.539074
| 46>   H                    : -7.848559            1.591181             -10.633758
| 47> *
| 48>
| 49> #Run DFT-D3 single point of the particle with dimer basis set
| 50> $new_job
| 51> %base "7-52_DFT_B"
| 52> ! wB97X-D3 def2-TZVP TIGHTSCF CHELPG PMODEL
| 53>
| 54> %scf
| 55> MaxIter 1000
| 56> end
| 57>
| 58> * xyz 0 1
| 59>   C                    : -10.430630           5.965214             -6.659766
| 60>   O                    : -11.506915           6.842817             -6.664926
| 61>   H                    : -12.269845           6.244401             -6.518812
| 62>   H                    : -10.239529           5.594698             -5.660409
| 63>   H                    : -10.552653           5.211127             -7.463928
| 64>   H                    : -9.466643            6.469908             -6.833632
| 65>   C                      -8.073983            1.833345             -9.588540
| 66>   O                      -7.130411            2.584063             -8.864001
| 67>   H                      -6.456292            1.998703             -8.551465
| 68>   H                      -8.235140            0.778497             -9.290424
| 69>   H                      -9.112701            2.244961             -9.539074
| 70>   H                      -7.848559            1.591181             -10.633758
| 71> *
| 72>
| 73>                          ****END OF INPUT****
 Total Charge           Charge          ....    0
 Multiplicity           Mult            ....    1
 Number of Electrons    NEL             ....   36
Dispersion correction           -0.000684227
FINAL SINGLE POINT ENERGY      -231.460151181654
Dispersion correction           -0.000219080
FINAL SINGLE POINT ENERGY      -115.731158251097

CARTESIAN COORDINATES (ANGSTROEM)
---------------------------------
  C    -10.430630    5.965214   -6.659766
  O    -11.506915    6.842817   -6.664926
  H    -12.269845    6.244401   -6.518812
  H    -10.239529    5.594698   -5.660409
  H    -10.552653    5.211127   -7.463928
  H     -9.466643    6.469908   -6.833632
  C     -8.073983    1.833345   -9.588540
  O     -7.130411    2.584063   -8.864001
  H     -6.456292    1.998703   -8.551465
  H     -8.235140    0.778497   -9.290424
  H     -9.112701    2.244961   -9.539074
  H     -7.848559    1.591181  -10.633758

 Multiplicity           Mult            ....    1
 Number of Electrons    NEL             ....   18
 Basis Dimension        Dim             ....  172

ORBITAL ENERGIES
----------------

  NO   OCC          E(Eh)            E(eV)
   0   2.0000     -19.237254      -523.4723
   1   2.0000     -10.317368      -280.7499
   2   2.0000      -1.144730       -31.1497
   3   2.0000      -0.798815       -21.7369
   4   2.0000      -0.625829       -17.0297
   5   2.0000      -0.534087       -14.5332
   6   2.0000      -0.521463       -14.1897
   7   2.0000      -0.435190       -11.8421
   8   2.0000      -0.375335       -10.2134
   9   0.0000       0.091904         2.5008
  10   0.0000       0.116184         3.1615
  11   0.0000       0.145540         3.9603
  12   0.0000       0.168214         4.5773
  13   0.0000       0.180857         4.9214

MULLIKEN ATOMIC CHARGES
-----------------------
   0 C :   -0.000052
   1 O :    0.000002
   2 H :    0.000000
   3 H :    0.000004
   4 H :   -0.000057
   5 H :   -0.000012
   6 C :   -0.182097
   7 O :   -0.459411
   8 H :    0.317013
   9 H :    0.100767
  10 H :    0.123117
  11 H :    0.100725
Sum of atomic charges:    0.0000000

LOEWDIN ATOMIC CHARGES
----------------------
   0 C :   -0.000060
   1 O :   -0.000002
   2 H :   -0.000001
   3 H :   -0.000001
   4 H :   -0.000037
   5 H :   -0.000009
   6 C :   -0.411545
   7 O :   -0.056064
   8 H :    0.164139
   9 H :    0.097199
  10 H :    0.112586
  11 H :    0.093795

  Mayer bond orders larger than 0.1
B(  6-C ,  7-O ) :   1.0135 B(  6-C ,  9-H ) :   0.9757 B(  6-C , 10-H ) :   0.9743
B(  6-C , 11-H ) :   0.9679 B(  7-O ,  8-H ) :   0.8993

Dispersion correction           -0.000277076
FINAL SINGLE POINT ENERGY      -115.728658780828

DIPOLE MOMENT
-------------
                                X             Y             Z
Electronic contribution:      1.31345       1.29243       1.01646
Nuclear contribution   :     -1.23382      -1.99130      -1.07404
                        -----------------------------------------
Total Dipole Moment    :      0.07963      -0.69887      -0.05758
                        -----------------------------------------
Magnitude (a.u.)       :      0.70575
Magnitude (Debye)      :      1.79386

Rotational constants in cm-1:     4.539100     0.815944     0.782167
Rotational constants in MHz : 136078.806625 24461.391101 23448.783749

                             ****ORCA TERMINATED NORMALLY****
TOTAL RUN TIME: 0 days 0 hours 1 minutes 12 seconds 374 msec
