                         Program Version 4.1.2  - RELEASE  -
|  1> #Run DFT-D3 single point of the dimer
|  2> ! wB97X-D3 def2-TZVP TIGHTSCF CHELPG PMODEL PAL8
|  3>
|  4> %base "22-43_DFT_AB"
|  5>
|  6> %scf
|  7> MaxIter 1000
|  8> end
|  9>
| 10> * xyz 0 1
| 11>   C                      3.346385             5.166609             -0.324777
| 12>   O                      4.605433             4.856927             -0.851271
| 13>   H                      4.735588             5.658297             -1.389277
| 14>   H                      2.939554             4.225934             -0.016089
| 15>   H                      3.411675             5.727115             0.579502
| 16>   H                      2.613158             5.716876             -1.000328
| 17>   C                      6.482601             7.842035             -1.496625
| 18>   O                      5.451297             7.279990             -2.213697
| 19>   H                      5.302266             7.795353             -3.038521
| 20>   H                      7.370266             7.345764             -1.568673
| 21>   H                      6.736706             8.879642             -1.829562
| 22>   H                      6.207652             7.865627             -0.439105
| 23> *
| 24>
| 25> #Run DFT-D3 single point of the molecule with dimer basis set
| 26> $new_job
| 27> %base "22-43_DFT_A"
| 28> ! wB97X-D3 def2-TZVP TIGHTSCF CHELPG PMODEL
| 29>
| 30> %scf
| 31> MaxIter 1000
| 32> end
| 33>
| 34> * xyz 0 1
| 35>   C                      3.346385             5.166609             -0.324777
| 36>   O                      4.605433             4.856927             -0.851271
| 37>   H                      4.735588             5.658297             -1.389277
| 38>   H                      2.939554             4.225934             -0.016089
| 39>   H                      3.411675             5.727115             0.579502
| 40>   H                      2.613158             5.716876             -1.000328
| 41>   C                    : 6.482601             7.842035             -1.496625
| 42>   O                    : 5.451297             7.279990             -2.213697
| 43>   H                    : 5.302266             7.795353             -3.038521
| 44>   H                    : 7.370266             7.345764             -1.568673
| 45>   H                    : 6.736706             8.879642             -1.829562
| 46>   H                    : 6.207652             7.865627             -0.439105
| 47> *
| 48>
| 49> #Run DFT-D3 single point of the particle with dimer basis set
| 50> $new_job
| 51> %base "22-43_DFT_B"
| 52> ! wB97X-D3 def2-TZVP TIGHTSCF CHELPG PMODEL
| 53>
| 54> %scf
| 55> MaxIter 1000
| 56> end
| 57>
| 58> * xyz 0 1
| 59>   C                    : 3.346385             5.166609             -0.324777
| 60>   O                    : 4.605433             4.856927             -0.851271
| 61>   H                    : 4.735588             5.658297             -1.389277
| 62>   H                    : 2.939554             4.225934             -0.016089
| 63>   H                    : 3.411675             5.727115             0.579502
| 64>   H                    : 2.613158             5.716876             -1.000328
| 65>   C                      6.482601             7.842035             -1.496625
| 66>   O                      5.451297             7.279990             -2.213697
| 67>   H                      5.302266             7.795353             -3.038521
| 68>   H                      7.370266             7.345764             -1.568673
| 69>   H                      6.736706             8.879642             -1.829562
| 70>   H                      6.207652             7.865627             -0.439105
| 71> *
| 72>
| 73>                          ****END OF INPUT****
 Total Charge           Charge          ....    0
 Multiplicity           Mult            ....    1
 Number of Electrons    NEL             ....   36
Dispersion correction           -0.001778909
FINAL SINGLE POINT ENERGY      -231.468158894758
Dispersion correction           -0.000224358
FINAL SINGLE POINT ENERGY      -115.729730434451

CARTESIAN COORDINATES (ANGSTROEM)
---------------------------------
  C      3.346385    5.166609   -0.324777
  O      4.605433    4.856927   -0.851271
  H      4.735588    5.658297   -1.389277
  H      2.939554    4.225934   -0.016089
  H      3.411675    5.727115    0.579502
  H      2.613158    5.716876   -1.000328
  C      6.482601    7.842035   -1.496625
  O      5.451297    7.279990   -2.213697
  H      5.302266    7.795353   -3.038521
  H      7.370266    7.345764   -1.568673
  H      6.736706    8.879642   -1.829562
  H      6.207652    7.865627   -0.439105

 Multiplicity           Mult            ....    1
 Number of Electrons    NEL             ....   18
 Basis Dimension        Dim             ....  172

ORBITAL ENERGIES
----------------

  NO   OCC          E(Eh)            E(eV)
   0   2.0000     -19.231999      -523.3293
   1   2.0000     -10.303547      -280.3738
   2   2.0000      -1.143223       -31.1087
   3   2.0000      -0.798201       -21.7202
   4   2.0000      -0.618972       -16.8431
   5   2.0000      -0.547744       -14.9049
   6   2.0000      -0.532776       -14.4976
   7   2.0000      -0.428114       -11.6496
   8   2.0000      -0.372051       -10.1240
   9   0.0000       0.097249         2.6463
  10   0.0000       0.120528         3.2797
  11   0.0000       0.154363         4.2004
  12   0.0000       0.189137         5.1467
  13   0.0000       0.199359         5.4248

MULLIKEN ATOMIC CHARGES
-----------------------
   0 C :    0.000603
   1 O :   -0.000310
   2 H :   -0.006047
   3 H :   -0.000230
   4 H :   -0.000432
   5 H :   -0.001681
   6 C :   -0.152078
   7 O :   -0.469923
   8 H :    0.318797
   9 H :    0.110185
  10 H :    0.090173
  11 H :    0.110942
Sum of atomic charges:   -0.0000000

LOEWDIN ATOMIC CHARGES
----------------------
   0 C :   -0.003386
   1 O :   -0.003790
   2 H :   -0.038373
   3 H :   -0.000048
   4 H :   -0.000088
   5 H :   -0.000741
   6 C :   -0.405033
   7 O :   -0.022054
   8 H :    0.187186
   9 H :    0.078639
  10 H :    0.101725
  11 H :    0.105961

  Mayer bond orders larger than 0.1
B(  6-C ,  7-O ) :   1.0031 B(  6-C ,  9-H ) :   0.9750 B(  6-C , 10-H ) :   0.9798
B(  6-C , 11-H ) :   0.9821 B(  7-O ,  8-H ) :   0.8919

Dispersion correction           -0.000234467
FINAL SINGLE POINT ENERGY      -115.729770632285

DIPOLE MOMENT
-------------
                                X             Y             Z
Electronic contribution:     -1.35187      -0.92465      -0.88223
Nuclear contribution   :      1.66782       1.47377       0.60935
                        -----------------------------------------
Total Dipole Moment    :      0.31595       0.54911      -0.27288
                        -----------------------------------------
Magnitude (a.u.)       :      0.68979
Magnitude (Debye)      :      1.75332

Rotational constants in cm-1:     4.435735     0.870275     0.827188
Rotational constants in MHz : 132979.997707 26090.185569 24798.483435

                             ****ORCA TERMINATED NORMALLY****
TOTAL RUN TIME: 0 days 0 hours 1 minutes 3 seconds 376 msec
