                         Program Version 4.1.2  - RELEASE  -
|  1> #Run DFT-D3 single point of the dimer
|  2> ! wB97X-D3 def2-TZVP TIGHTSCF CHELPG PMODEL PAL8
|  3>
|  4> %base "19-212_DFT_AB"
|  5>
|  6> %scf
|  7> MaxIter 1000
|  8> end
|  9>
| 10> * xyz 0 1
| 11>   C                      4.563243             -8.956103            -7.843925
| 12>   O                      4.352439             -9.628202            -9.066214
| 13>   H                      4.870757             -10.458427           -8.890365
| 14>   H                      3.999747             -9.345409            -6.942468
| 15>   H                      5.655802             -9.041741            -7.518581
| 16>   H                      4.320447             -7.883231            -7.849700
| 17>   C                      1.244050             -8.453987            -10.388188
| 18>   O                      1.664093             -9.660979            -9.837517
| 19>   H                      2.536157             -9.586399            -9.458400
| 20>   H                      0.131395             -8.463388            -10.428698
| 21>   H                      1.676084             -7.529242            -9.946032
| 22>   H                      1.614825             -8.406289            -11.399821
| 23> *
| 24>
| 25> #Run DFT-D3 single point of the molecule with dimer basis set
| 26> $new_job
| 27> %base "19-212_DFT_A"
| 28> ! wB97X-D3 def2-TZVP TIGHTSCF CHELPG PMODEL
| 29>
| 30> %scf
| 31> MaxIter 1000
| 32> end
| 33>
| 34> * xyz 0 1
| 35>   C                      4.563243             -8.956103            -7.843925
| 36>   O                      4.352439             -9.628202            -9.066214
| 37>   H                      4.870757             -10.458427           -8.890365
| 38>   H                      3.999747             -9.345409            -6.942468
| 39>   H                      5.655802             -9.041741            -7.518581
| 40>   H                      4.320447             -7.883231            -7.849700
| 41>   C                    : 1.244050             -8.453987            -10.388188
| 42>   O                    : 1.664093             -9.660979            -9.837517
| 43>   H                    : 2.536157             -9.586399            -9.458400
| 44>   H                    : 0.131395             -8.463388            -10.428698
| 45>   H                    : 1.676084             -7.529242            -9.946032
| 46>   H                    : 1.614825             -8.406289            -11.399821
| 47> *
| 48>
| 49> #Run DFT-D3 single point of the particle with dimer basis set
| 50> $new_job
| 51> %base "19-212_DFT_B"
| 52> ! wB97X-D3 def2-TZVP TIGHTSCF CHELPG PMODEL
| 53>
| 54> %scf
| 55> MaxIter 1000
| 56> end
| 57>
| 58> * xyz 0 1
| 59>   C                    : 4.563243             -8.956103            -7.843925
| 60>   O                    : 4.352439             -9.628202            -9.066214
| 61>   H                    : 4.870757             -10.458427           -8.890365
| 62>   H                    : 3.999747             -9.345409            -6.942468
| 63>   H                    : 5.655802             -9.041741            -7.518581
| 64>   H                    : 4.320447             -7.883231            -7.849700
| 65>   C                      1.244050             -8.453987            -10.388188
| 66>   O                      1.664093             -9.660979            -9.837517
| 67>   H                      2.536157             -9.586399            -9.458400
| 68>   H                      0.131395             -8.463388            -10.428698
| 69>   H                      1.676084             -7.529242            -9.946032
| 70>   H                      1.614825             -8.406289            -11.399821
| 71> *
| 72>
| 73>                          ****END OF INPUT****
 Total Charge           Charge          ....    0
 Multiplicity           Mult            ....    1
 Number of Electrons    NEL             ....   36
Dispersion correction           -0.001787276
FINAL SINGLE POINT ENERGY      -231.469865883184
Dispersion correction           -0.000251702
FINAL SINGLE POINT ENERGY      -115.729481447368

CARTESIAN COORDINATES (ANGSTROEM)
---------------------------------
  C      4.563243   -8.956103   -7.843925
  O      4.352439   -9.628202   -9.066214
  H      4.870757  -10.458427   -8.890365
  H      3.999747   -9.345409   -6.942468
  H      5.655802   -9.041741   -7.518581
  H      4.320447   -7.883231   -7.849700
  C      1.244050   -8.453987  -10.388188
  O      1.664093   -9.660979   -9.837517
  H      2.536157   -9.586399   -9.458400
  H      0.131395   -8.463388  -10.428698
  H      1.676084   -7.529242   -9.946032
  H      1.614825   -8.406289  -11.399821

 Multiplicity           Mult            ....    1
 Number of Electrons    NEL             ....   18
 Basis Dimension        Dim             ....  172

ORBITAL ENERGIES
----------------

  NO   OCC          E(Eh)            E(eV)
   0   2.0000     -19.229072      -523.2496
   1   2.0000     -10.313179      -280.6359
   2   2.0000      -1.142859       -31.0988
   3   2.0000      -0.795483       -21.6462
   4   2.0000      -0.620339       -16.8803
   5   2.0000      -0.536976       -14.6119
   6   2.0000      -0.528593       -14.3837
   7   2.0000      -0.435446       -11.8491
   8   2.0000      -0.367985       -10.0134
   9   0.0000       0.068137         1.8541
  10   0.0000       0.134612         3.6630
  11   0.0000       0.148413         4.0385
  12   0.0000       0.169715         4.6182
  13   0.0000       0.190176         5.1750

MULLIKEN ATOMIC CHARGES
-----------------------
   0 C :   -0.004946
   1 O :   -0.004431
   2 H :   -0.000558
   3 H :    0.000417
   4 H :   -0.000146
   5 H :    0.000182
   6 C :   -0.152689
   7 O :   -0.468853
   8 H :    0.314981
   9 H :    0.119157
  10 H :    0.097003
  11 H :    0.099884
Sum of atomic charges:   -0.0000000

LOEWDIN ATOMIC CHARGES
----------------------
   0 C :   -0.007130
   1 O :   -0.023873
   2 H :   -0.001296
   3 H :   -0.000442
   4 H :   -0.000160
   5 H :   -0.000346
   6 C :   -0.402228
   7 O :   -0.043788
   8 H :    0.177526
   9 H :    0.112701
  10 H :    0.097725
  11 H :    0.091311

  Mayer bond orders larger than 0.1
B(  6-C ,  7-O ) :   0.9856 B(  6-C ,  9-H ) :   0.9744 B(  6-C , 10-H ) :   0.9716
B(  6-C , 11-H ) :   0.9814 B(  7-O ,  8-H ) :   0.9073

Dispersion correction           -0.000241903
FINAL SINGLE POINT ENERGY      -115.733266166583

DIPOLE MOMENT
-------------
                                X             Y             Z
Electronic contribution:      0.38976      -1.59789       0.78542
Nuclear contribution   :      0.02116       2.11387      -0.76563
                        -----------------------------------------
Total Dipole Moment    :      0.41092       0.51598       0.01979
                        -----------------------------------------
Magnitude (a.u.)       :      0.65991
Magnitude (Debye)      :      1.67735

Rotational constants in cm-1:     4.300413     0.855442     0.811847
Rotational constants in MHz : 128923.124527 25645.508350 24338.551134

                             ****ORCA TERMINATED NORMALLY****
TOTAL RUN TIME: 0 days 0 hours 0 minutes 51 seconds 296 msec
