                         Program Version 4.1.2  - RELEASE  -
|  1> #Run DFT-D3 single point of the dimer
|  2> ! wB97X-D3 def2-TZVP TIGHTSCF CHELPG PMODEL PAL8
|  3>
|  4> %base "8-177_DFT_AB"
|  5>
|  6> %scf
|  7> MaxIter 1000
|  8> end
|  9>
| 10> * xyz 0 1
| 11>   C                      -7.670524            1.589111             5.019114
| 12>   O                      -7.899167            3.008859             4.966002
| 13>   H                      -7.537661            3.317314             4.077069
| 14>   H                      -7.944804            1.121915             4.083185
| 15>   H                      -6.718689            1.262393             5.348484
| 16>   H                      -8.318081            1.192866             5.761390
| 17>   C                      -11.249174           2.018224             5.395163
| 18>   O                      -10.634018           3.354803             5.549049
| 19>   H                      -9.685463            3.182150             5.422154
| 20>   H                      -12.363706           2.057807             5.528582
| 21>   H                      -11.108641           1.548726             4.443364
| 22>   H                      -10.909125           1.291521             6.139330
| 23> *
| 24>
| 25> #Run DFT-D3 single point of the molecule with dimer basis set
| 26> $new_job
| 27> %base "8-177_DFT_A"
| 28> ! wB97X-D3 def2-TZVP TIGHTSCF CHELPG PMODEL
| 29>
| 30> %scf
| 31> MaxIter 1000
| 32> end
| 33>
| 34> * xyz 0 1
| 35>   C                      -7.670524            1.589111             5.019114
| 36>   O                      -7.899167            3.008859             4.966002
| 37>   H                      -7.537661            3.317314             4.077069
| 38>   H                      -7.944804            1.121915             4.083185
| 39>   H                      -6.718689            1.262393             5.348484
| 40>   H                      -8.318081            1.192866             5.761390
| 41>   C                    : -11.249174           2.018224             5.395163
| 42>   O                    : -10.634018           3.354803             5.549049
| 43>   H                    : -9.685463            3.182150             5.422154
| 44>   H                    : -12.363706           2.057807             5.528582
| 45>   H                    : -11.108641           1.548726             4.443364
| 46>   H                    : -10.909125           1.291521             6.139330
| 47> *
| 48>
| 49> #Run DFT-D3 single point of the particle with dimer basis set
| 50> $new_job
| 51> %base "8-177_DFT_B"
| 52> ! wB97X-D3 def2-TZVP TIGHTSCF CHELPG PMODEL
| 53>
| 54> %scf
| 55> MaxIter 1000
| 56> end
| 57>
| 58> * xyz 0 1
| 59>   C                    : -7.670524            1.589111             5.019114
| 60>   O                    : -7.899167            3.008859             4.966002
| 61>   H                    : -7.537661            3.317314             4.077069
| 62>   H                    : -7.944804            1.121915             4.083185
| 63>   H                    : -6.718689            1.262393             5.348484
| 64>   H                    : -8.318081            1.192866             5.761390
| 65>   C                      -11.249174           2.018224             5.395163
| 66>   O                      -10.634018           3.354803             5.549049
| 67>   H                      -9.685463            3.182150             5.422154
| 68>   H                      -12.363706           2.057807             5.528582
| 69>   H                      -11.108641           1.548726             4.443364
| 70>   H                      -10.909125           1.291521             6.139330
| 71> *
| 72>
| 73>                          ****END OF INPUT****
 Total Charge           Charge          ....    0
 Multiplicity           Mult            ....    1
 Number of Electrons    NEL             ....   36
Dispersion correction           -0.002255460
FINAL SINGLE POINT ENERGY      -231.470477187774
Dispersion correction           -0.000252488
FINAL SINGLE POINT ENERGY      -115.731490340796

CARTESIAN COORDINATES (ANGSTROEM)
---------------------------------
  C     -7.670524    1.589111    5.019114
  O     -7.899167    3.008859    4.966002
  H     -7.537661    3.317314    4.077069
  H     -7.944804    1.121915    4.083185
  H     -6.718689    1.262393    5.348484
  H     -8.318081    1.192866    5.761390
  C    -11.249174    2.018224    5.395163
  O    -10.634018    3.354803    5.549049
  H     -9.685463    3.182150    5.422154
  H    -12.363706    2.057807    5.528582
  H    -11.108641    1.548726    4.443364
  H    -10.909125    1.291521    6.139330

 Multiplicity           Mult            ....    1
 Number of Electrons    NEL             ....   18
 Basis Dimension        Dim             ....  172

ORBITAL ENERGIES
----------------

  NO   OCC          E(Eh)            E(eV)
   0   2.0000     -19.237754      -523.4859
   1   2.0000     -10.319527      -280.8086
   2   2.0000      -1.119869       -30.4732
   3   2.0000      -0.798305       -21.7230
   4   2.0000      -0.599738       -16.3197
   5   2.0000      -0.534657       -14.5487
   6   2.0000      -0.515945       -14.0396
   7   2.0000      -0.443212       -12.0604
   8   2.0000      -0.379947       -10.3389
   9   0.0000       0.068557         1.8655
  10   0.0000       0.134450         3.6586
  11   0.0000       0.146267         3.9801
  12   0.0000       0.164035         4.4636
  13   0.0000       0.185227         5.0403

MULLIKEN ATOMIC CHARGES
-----------------------
   0 C :   -0.000980
   1 O :   -0.004242
   2 H :   -0.000374
   3 H :   -0.000322
   4 H :   -0.000050
   5 H :   -0.000273
   6 C :   -0.211009
   7 O :   -0.466048
   8 H :    0.315462
   9 H :    0.130958
  10 H :    0.119110
  11 H :    0.117768
Sum of atomic charges:    0.0000000

LOEWDIN ATOMIC CHARGES
----------------------
   0 C :   -0.009655
   1 O :   -0.024131
   2 H :   -0.001551
   3 H :   -0.000449
   4 H :   -0.000130
   5 H :   -0.003156
   6 C :   -0.349162
   7 O :   -0.105215
   8 H :    0.186915
   9 H :    0.116214
  10 H :    0.092034
  11 H :    0.098286

  Mayer bond orders larger than 0.1
B(  6-C ,  7-O ) :   0.9948 B(  6-C ,  9-H ) :   0.9741 B(  6-C , 10-H ) :   0.9692
B(  6-C , 11-H ) :   0.9736 B(  7-O ,  8-H ) :   0.9077

Dispersion correction           -0.000279523
FINAL SINGLE POINT ENERGY      -115.731569069766

DIPOLE MOMENT
-------------
                                X             Y             Z
Electronic contribution:      0.70123       1.81419       0.17929
Nuclear contribution   :     -0.38603      -2.48856      -0.32591
                        -----------------------------------------
Total Dipole Moment    :      0.31520      -0.67437      -0.14662
                        -----------------------------------------
Magnitude (a.u.)       :      0.75870
Magnitude (Debye)      :      1.92846

Rotational constants in cm-1:     4.349960     0.765625     0.736537
Rotational constants in MHz : 130408.523338 22952.869111 22080.835642

                             ****ORCA TERMINATED NORMALLY****
TOTAL RUN TIME: 0 days 0 hours 0 minutes 46 seconds 724 msec
