                         Program Version 4.1.2  - RELEASE  -
|  1> #Run DFT-D3 single point of the dimer
|  2> ! wB97X-D3 def2-TZVP TIGHTSCF CHELPG PMODEL PAL8
|  3>
|  4> %base "10-95_DFT_AB"
|  5>
|  6> %scf
|  7> MaxIter 1000
|  8> end
|  9>
| 10> * xyz 0 1
| 11>   C                      -6.546840            0.074704             9.038280
| 12>   O                      -6.336000            1.429750             8.808845
| 13>   H                      -5.428613            1.515341             8.559811
| 14>   H                      -7.109638            -0.391232            8.240486
| 15>   H                      -5.589320            -0.496312            9.039589
| 16>   H                      -7.081118            -0.070553            9.995042
| 17>   C                      -3.729851            3.038293             4.185323
| 18>   O                      -3.523052            2.471416             5.433180
| 19>   H                      -4.135422            2.762021             6.113348
| 20>   H                      -4.740345            3.461552             4.070275
| 21>   H                      -3.093136            3.884884             4.062776
| 22>   H                      -3.567683            2.320354             3.352861
| 23> *
| 24>
| 25> #Run DFT-D3 single point of the molecule with dimer basis set
| 26> $new_job
| 27> %base "10-95_DFT_A"
| 28> ! wB97X-D3 def2-TZVP TIGHTSCF CHELPG PMODEL
| 29>
| 30> %scf
| 31> MaxIter 1000
| 32> end
| 33>
| 34> * xyz 0 1
| 35>   C                      -6.546840            0.074704             9.038280
| 36>   O                      -6.336000            1.429750             8.808845
| 37>   H                      -5.428613            1.515341             8.559811
| 38>   H                      -7.109638            -0.391232            8.240486
| 39>   H                      -5.589320            -0.496312            9.039589
| 40>   H                      -7.081118            -0.070553            9.995042
| 41>   C                    : -3.729851            3.038293             4.185323
| 42>   O                    : -3.523052            2.471416             5.433180
| 43>   H                    : -4.135422            2.762021             6.113348
| 44>   H                    : -4.740345            3.461552             4.070275
| 45>   H                    : -3.093136            3.884884             4.062776
| 46>   H                    : -3.567683            2.320354             3.352861
| 47> *
| 48>
| 49> #Run DFT-D3 single point of the particle with dimer basis set
| 50> $new_job
| 51> %base "10-95_DFT_B"
| 52> ! wB97X-D3 def2-TZVP TIGHTSCF CHELPG PMODEL
| 53>
| 54> %scf
| 55> MaxIter 1000
| 56> end
| 57>
| 58> * xyz 0 1
| 59>   C                    : -6.546840            0.074704             9.038280
| 60>   O                    : -6.336000            1.429750             8.808845
| 61>   H                    : -5.428613            1.515341             8.559811
| 62>   H                    : -7.109638            -0.391232            8.240486
| 63>   H                    : -5.589320            -0.496312            9.039589
| 64>   H                    : -7.081118            -0.070553            9.995042
| 65>   C                      -3.729851            3.038293             4.185323
| 66>   O                      -3.523052            2.471416             5.433180
| 67>   H                      -4.135422            2.762021             6.113348
| 68>   H                      -4.740345            3.461552             4.070275
| 69>   H                      -3.093136            3.884884             4.062776
| 70>   H                      -3.567683            2.320354             3.352861
| 71> *
| 72>
| 73>                          ****END OF INPUT****
 Total Charge           Charge          ....    0
 Multiplicity           Mult            ....    1
 Number of Electrons    NEL             ....   36
Dispersion correction           -0.000819203
FINAL SINGLE POINT ENERGY      -231.468001491512
Dispersion correction           -0.000234363
FINAL SINGLE POINT ENERGY      -115.734201770988

CARTESIAN COORDINATES (ANGSTROEM)
---------------------------------
  C     -6.546840    0.074704    9.038280
  O     -6.336000    1.429750    8.808845
  H     -5.428613    1.515341    8.559811
  H     -7.109638   -0.391232    8.240486
  H     -5.589320   -0.496312    9.039589
  H     -7.081118   -0.070553    9.995042
  C     -3.729851    3.038293    4.185323
  O     -3.523052    2.471416    5.433180
  H     -4.135422    2.762021    6.113348
  H     -4.740345    3.461552    4.070275
  H     -3.093136    3.884884    4.062776
  H     -3.567683    2.320354    3.352861

 Multiplicity           Mult            ....    1
 Number of Electrons    NEL             ....   18
 Basis Dimension        Dim             ....  172

ORBITAL ENERGIES
----------------

  NO   OCC          E(Eh)            E(eV)
   0   2.0000     -19.226913      -523.1909
   1   2.0000     -10.310468      -280.5621
   2   2.0000      -1.140129       -31.0245
   3   2.0000      -0.797792       -21.7090
   4   2.0000      -0.619613       -16.8605
   5   2.0000      -0.543861       -14.7992
   6   2.0000      -0.529803       -14.4167
   7   2.0000      -0.423257       -11.5174
   8   2.0000      -0.370634       -10.0855
   9   0.0000       0.081642         2.2216
  10   0.0000       0.115697         3.1483
  11   0.0000       0.148608         4.0438
  12   0.0000       0.184918         5.0319
  13   0.0000       0.197284         5.3684

MULLIKEN ATOMIC CHARGES
-----------------------
   0 C :   -0.000062
   1 O :    0.000023
   2 H :   -0.000410
   3 H :    0.000015
   4 H :    0.000015
   5 H :   -0.000006
   6 C :   -0.146195
   7 O :   -0.486064
   8 H :    0.322387
   9 H :    0.096130
  10 H :    0.101830
  11 H :    0.112336
Sum of atomic charges:    0.0000000

LOEWDIN ATOMIC CHARGES
----------------------
   0 C :   -0.000039
   1 O :   -0.000055
   2 H :   -0.000604
   3 H :   -0.000001
   4 H :   -0.000003
   5 H :   -0.000003
   6 C :   -0.403013
   7 O :   -0.060210
   8 H :    0.170291
   9 H :    0.096001
  10 H :    0.089408
  11 H :    0.108228

  Mayer bond orders larger than 0.1
B(  6-C ,  7-O ) :   1.0045 B(  6-C ,  9-H ) :   0.9849 B(  6-C , 10-H ) :   0.9789
B(  6-C , 11-H ) :   0.9703 B(  7-O ,  8-H ) :   0.8909

Dispersion correction           -0.000246681
FINAL SINGLE POINT ENERGY      -115.733242544896

DIPOLE MOMENT
-------------
                                X             Y             Z
Electronic contribution:      0.38616      -0.85324       1.58898
Nuclear contribution   :     -0.89184       1.28393      -1.62573
                        -----------------------------------------
Total Dipole Moment    :     -0.50568       0.43069      -0.03675
                        -----------------------------------------
Magnitude (a.u.)       :      0.66525
Magnitude (Debye)      :      1.69093

Rotational constants in cm-1:     4.434726     0.848088     0.816350
Rotational constants in MHz : 132949.736175 25425.035592 24473.569864

                             ****ORCA TERMINATED NORMALLY****
TOTAL RUN TIME: 0 days 0 hours 0 minutes 59 seconds 176 msec
