                         Program Version 4.1.2  - RELEASE  -
|  1> #Run DFT-D3 single point of the dimer
|  2> ! wB97X-D3 def2-TZVP TIGHTSCF CHELPG PMODEL PAL8
|  3>
|  4> %base "22-193_DFT_AB"
|  5>
|  6> %scf
|  7> MaxIter 1000
|  8> end
|  9>
| 10> * xyz 0 1
| 11>   C                      4.063604             -4.164335            1.522662
| 12>   O                      3.636612             -3.300503            0.440059
| 13>   H                      4.382438             -2.679649            0.364125
| 14>   H                      3.242593             -4.589483            2.142196
| 15>   H                      4.763362             -5.016916            1.216015
| 16>   H                      4.592937             -3.590968            2.334445
| 17>   C                      6.876349             -0.965767            -0.600827
| 18>   O                      6.418567             -1.609504            0.569782
| 19>   H                      6.191820             -1.056474            1.278961
| 20>   H                      7.664219             -0.300239            -0.340674
| 21>   H                      7.239622             -1.624826            -1.357148
| 22>   H                      6.163370             -0.292304            -1.059410
| 23> *
| 24>
| 25> #Run DFT-D3 single point of the molecule with dimer basis set
| 26> $new_job
| 27> %base "22-193_DFT_A"
| 28> ! wB97X-D3 def2-TZVP TIGHTSCF CHELPG PMODEL
| 29>
| 30> %scf
| 31> MaxIter 1000
| 32> end
| 33>
| 34> * xyz 0 1
| 35>   C                      4.063604             -4.164335            1.522662
| 36>   O                      3.636612             -3.300503            0.440059
| 37>   H                      4.382438             -2.679649            0.364125
| 38>   H                      3.242593             -4.589483            2.142196
| 39>   H                      4.763362             -5.016916            1.216015
| 40>   H                      4.592937             -3.590968            2.334445
| 41>   C                    : 6.876349             -0.965767            -0.600827
| 42>   O                    : 6.418567             -1.609504            0.569782
| 43>   H                    : 6.191820             -1.056474            1.278961
| 44>   H                    : 7.664219             -0.300239            -0.340674
| 45>   H                    : 7.239622             -1.624826            -1.357148
| 46>   H                    : 6.163370             -0.292304            -1.059410
| 47> *
| 48>
| 49> #Run DFT-D3 single point of the particle with dimer basis set
| 50> $new_job
| 51> %base "22-193_DFT_B"
| 52> ! wB97X-D3 def2-TZVP TIGHTSCF CHELPG PMODEL
| 53>
| 54> %scf
| 55> MaxIter 1000
| 56> end
| 57>
| 58> * xyz 0 1
| 59>   C                    : 4.063604             -4.164335            1.522662
| 60>   O                    : 3.636612             -3.300503            0.440059
| 61>   H                    : 4.382438             -2.679649            0.364125
| 62>   H                    : 3.242593             -4.589483            2.142196
| 63>   H                    : 4.763362             -5.016916            1.216015
| 64>   H                    : 4.592937             -3.590968            2.334445
| 65>   C                      6.876349             -0.965767            -0.600827
| 66>   O                      6.418567             -1.609504            0.569782
| 67>   H                      6.191820             -1.056474            1.278961
| 68>   H                      7.664219             -0.300239            -0.340674
| 69>   H                      7.239622             -1.624826            -1.357148
| 70>   H                      6.163370             -0.292304            -1.059410
| 71> *
| 72>
| 73>                          ****END OF INPUT****
 Total Charge           Charge          ....    0
 Multiplicity           Mult            ....    1
 Number of Electrons    NEL             ....   36
Dispersion correction           -0.001714006
FINAL SINGLE POINT ENERGY      -231.466963462087
Dispersion correction           -0.000281969
FINAL SINGLE POINT ENERGY      -115.728919612779

CARTESIAN COORDINATES (ANGSTROEM)
---------------------------------
  C      4.063604   -4.164335    1.522662
  O      3.636612   -3.300503    0.440059
  H      4.382438   -2.679649    0.364125
  H      3.242593   -4.589483    2.142196
  H      4.763362   -5.016916    1.216015
  H      4.592937   -3.590968    2.334445
  C      6.876349   -0.965767   -0.600827
  O      6.418567   -1.609504    0.569782
  H      6.191820   -1.056474    1.278961
  H      7.664219   -0.300239   -0.340674
  H      7.239622   -1.624826   -1.357148
  H      6.163370   -0.292304   -1.059410

 Multiplicity           Mult            ....    1
 Number of Electrons    NEL             ....   18
 Basis Dimension        Dim             ....  172

ORBITAL ENERGIES
----------------

  NO   OCC          E(Eh)            E(eV)
   0   2.0000     -19.225065      -523.1406
   1   2.0000     -10.307237      -280.4742
   2   2.0000      -1.138008       -30.9668
   3   2.0000      -0.809249       -22.0208
   4   2.0000      -0.622322       -16.9342
   5   2.0000      -0.540451       -14.7064
   6   2.0000      -0.535021       -14.5587
   7   2.0000      -0.429005       -11.6738
   8   2.0000      -0.371749       -10.1158
   9   0.0000       0.097828         2.6620
  10   0.0000       0.127991         3.4828
  11   0.0000       0.152371         4.1462
  12   0.0000       0.187394         5.0993
  13   0.0000       0.202545         5.5115

MULLIKEN ATOMIC CHARGES
-----------------------
   0 C :    0.005212
   1 O :   -0.000107
   2 H :   -0.013249
   3 H :   -0.000157
   4 H :   -0.000869
   5 H :   -0.003327
   6 C :   -0.151634
   7 O :   -0.483700
   8 H :    0.314900
   9 H :    0.104663
  10 H :    0.128046
  11 H :    0.100222
Sum of atomic charges:   -0.0000000

LOEWDIN ATOMIC CHARGES
----------------------
   0 C :   -0.004196
   1 O :   -0.001786
   2 H :   -0.022025
   3 H :   -0.000043
   4 H :   -0.000214
   5 H :   -0.001333
   6 C :   -0.371506
   7 O :   -0.037355
   8 H :    0.147234
   9 H :    0.092447
  10 H :    0.105572
  11 H :    0.093205

  Mayer bond orders larger than 0.1
B(  6-C ,  7-O ) :   0.9791 B(  6-C ,  9-H ) :   0.9814 B(  6-C , 10-H ) :   0.9730
B(  6-C , 11-H ) :   0.9752 B(  7-O ,  8-H ) :   0.8981

Dispersion correction           -0.000247716
FINAL SINGLE POINT ENERGY      -115.730878582905

DIPOLE MOMENT
-------------
                                X             Y             Z
Electronic contribution:     -0.57819      -1.01935       1.40403
Nuclear contribution   :      0.65246       1.68441      -1.42658
                        -----------------------------------------
Total Dipole Moment    :      0.07426       0.66506      -0.02255
                        -----------------------------------------
Magnitude (a.u.)       :      0.66958
Magnitude (Debye)      :      1.70193

Rotational constants in cm-1:     4.721431     0.824403     0.793978
Rotational constants in MHz : 141544.932990 24714.990551 23802.853916

                             ****ORCA TERMINATED NORMALLY****
TOTAL RUN TIME: 0 days 0 hours 1 minutes 5 seconds 654 msec
