                         Program Version 4.1.2  - RELEASE  -
|  1> #Run DFT-D3 single point of the dimer
|  2> ! wB97X-D3 def2-TZVP TIGHTSCF CHELPG PMODEL PAL8
|  3>
|  4> %base "17-118_DFT_AB"
|  5>
|  6> %scf
|  7> MaxIter 1000
|  8> end
|  9>
| 10> * xyz 0 1
| 11>   C                      -4.988998            9.601026             -3.583272
| 12>   O                      -3.625614            9.389035             -3.176934
| 13>   H                      -3.637029            9.435312             -2.249069
| 14>   H                      -5.701993            9.682365             -2.747060
| 15>   H                      -5.095622            10.449238            -4.301233
| 16>   H                      -5.365626            8.684799             -4.130717
| 17>   C                      -4.029235            9.908186             -7.570120
| 18>   O                      -5.007800            10.875405            -7.276400
| 19>   H                      -4.651881            11.612690            -6.757358
| 20>   H                      -3.444197            9.656401             -6.654471
| 21>   H                      -4.388459            9.014390             -8.010654
| 22>   H                      -3.274616            10.329817            -8.183493
| 23> *
| 24>
| 25> #Run DFT-D3 single point of the molecule with dimer basis set
| 26> $new_job
| 27> %base "17-118_DFT_A"
| 28> ! wB97X-D3 def2-TZVP TIGHTSCF CHELPG PMODEL
| 29>
| 30> %scf
| 31> MaxIter 1000
| 32> end
| 33>
| 34> * xyz 0 1
| 35>   C                      -4.988998            9.601026             -3.583272
| 36>   O                      -3.625614            9.389035             -3.176934
| 37>   H                      -3.637029            9.435312             -2.249069
| 38>   H                      -5.701993            9.682365             -2.747060
| 39>   H                      -5.095622            10.449238            -4.301233
| 40>   H                      -5.365626            8.684799             -4.130717
| 41>   C                    : -4.029235            9.908186             -7.570120
| 42>   O                    : -5.007800            10.875405            -7.276400
| 43>   H                    : -4.651881            11.612690            -6.757358
| 44>   H                    : -3.444197            9.656401             -6.654471
| 45>   H                    : -4.388459            9.014390             -8.010654
| 46>   H                    : -3.274616            10.329817            -8.183493
| 47> *
| 48>
| 49> #Run DFT-D3 single point of the particle with dimer basis set
| 50> $new_job
| 51> %base "17-118_DFT_B"
| 52> ! wB97X-D3 def2-TZVP TIGHTSCF CHELPG PMODEL
| 53>
| 54> %scf
| 55> MaxIter 1000
| 56> end
| 57>
| 58> * xyz 0 1
| 59>   C                    : -4.988998            9.601026             -3.583272
| 60>   O                    : -3.625614            9.389035             -3.176934
| 61>   H                    : -3.637029            9.435312             -2.249069
| 62>   H                    : -5.701993            9.682365             -2.747060
| 63>   H                    : -5.095622            10.449238            -4.301233
| 64>   H                    : -5.365626            8.684799             -4.130717
| 65>   C                      -4.029235            9.908186             -7.570120
| 66>   O                      -5.007800            10.875405            -7.276400
| 67>   H                      -4.651881            11.612690            -6.757358
| 68>   H                      -3.444197            9.656401             -6.654471
| 69>   H                      -4.388459            9.014390             -8.010654
| 70>   H                      -3.274616            10.329817            -8.183493
| 71> *
| 72>
| 73>                          ****END OF INPUT****
 Total Charge           Charge          ....    0
 Multiplicity           Mult            ....    1
 Number of Electrons    NEL             ....   36
Dispersion correction           -0.001649033
FINAL SINGLE POINT ENERGY      -231.465755100932
Dispersion correction           -0.000269140
FINAL SINGLE POINT ENERGY      -115.731836707393

CARTESIAN COORDINATES (ANGSTROEM)
---------------------------------
  C     -4.988998    9.601026   -3.583272
  O     -3.625614    9.389035   -3.176934
  H     -3.637029    9.435312   -2.249069
  H     -5.701993    9.682365   -2.747060
  H     -5.095622   10.449238   -4.301233
  H     -5.365626    8.684799   -4.130717
  C     -4.029235    9.908186   -7.570120
  O     -5.007800   10.875405   -7.276400
  H     -4.651881   11.612690   -6.757358
  H     -3.444197    9.656401   -6.654471
  H     -4.388459    9.014390   -8.010654
  H     -3.274616   10.329817   -8.183493

 Multiplicity           Mult            ....    1
 Number of Electrons    NEL             ....   18
 Basis Dimension        Dim             ....  172

ORBITAL ENERGIES
----------------

  NO   OCC          E(Eh)            E(eV)
   0   2.0000     -19.229299      -523.2558
   1   2.0000     -10.308142      -280.4988
   2   2.0000      -1.133869       -30.8541
   3   2.0000      -0.801177       -21.8011
   4   2.0000      -0.615131       -16.7386
   5   2.0000      -0.542705       -14.7677
   6   2.0000      -0.533030       -14.5045
   7   2.0000      -0.431517       -11.7422
   8   2.0000      -0.368522       -10.0280
   9   0.0000       0.083332         2.2676
  10   0.0000       0.122230         3.3260
  11   0.0000       0.151947         4.1347
  12   0.0000       0.170867         4.6495
  13   0.0000       0.190479         5.1832

MULLIKEN ATOMIC CHARGES
-----------------------
   0 C :    0.007325
   1 O :   -0.000317
   2 H :   -0.000005
   3 H :   -0.000287
   4 H :   -0.012509
   5 H :   -0.000690
   6 C :   -0.159677
   7 O :   -0.481379
   8 H :    0.320898
   9 H :    0.092559
  10 H :    0.125490
  11 H :    0.108592
Sum of atomic charges:   -0.0000000

LOEWDIN ATOMIC CHARGES
----------------------
   0 C :   -0.002742
   1 O :   -0.000261
   2 H :   -0.000010
   3 H :   -0.000012
   4 H :   -0.004880
   5 H :   -0.000255
   6 C :   -0.381335
   7 O :   -0.074610
   8 H :    0.175507
   9 H :    0.098749
  10 H :    0.101431
  11 H :    0.088417

  Mayer bond orders larger than 0.1
B(  6-C ,  7-O ) :   0.9914 B(  6-C ,  9-H ) :   0.9824 B(  6-C , 10-H ) :   0.9710
B(  6-C , 11-H ) :   0.9821 B(  7-O ,  8-H ) :   0.8905

Dispersion correction           -0.000234234
FINAL SINGLE POINT ENERGY      -115.731915048623

DIPOLE MOMENT
-------------
                                X             Y             Z
Electronic contribution:     -1.48320       1.08359       0.18749
Nuclear contribution   :      2.11963      -1.00147       0.00467
                        -----------------------------------------
Total Dipole Moment    :      0.63643       0.08212       0.19216
                        -----------------------------------------
Magnitude (a.u.)       :      0.66986
Magnitude (Debye)      :      1.70265

Rotational constants in cm-1:     4.488940     0.836025     0.799089
Rotational constants in MHz : 134575.032763 25063.391400 23956.090964

                             ****ORCA TERMINATED NORMALLY****
TOTAL RUN TIME: 0 days 0 hours 1 minutes 1 seconds 694 msec
