                         Program Version 4.1.2  - RELEASE  -
|  1> #Run DFT-D3 single point of the dimer
|  2> ! wB97X-D3 def2-TZVP TIGHTSCF CHELPG PMODEL PAL8
|  3>
|  4> %base "5-98_DFT_AB"
|  5>
|  6> %scf
|  7> MaxIter 1000
|  8> end
|  9>
| 10> * xyz 0 1
| 11>   C                      9.518140             -9.620616            -3.107383
| 12>   O                      10.506839            -9.162423            -4.033828
| 13>   H                      10.192911            -8.597301            -4.716816
| 14>   H                      8.766802             -8.855435            -2.834577
| 15>   H                      8.944407             -10.443229           -3.539903
| 16>   H                      9.859461             -9.901562            -2.110812
| 17>   C                      9.972915             -7.685073            0.459403
| 18>   O                      9.593615             -6.860634            1.550641
| 19>   H                      8.854218             -7.338539            1.910346
| 20>   H                      10.720847            -8.414273            0.751041
| 21>   H                      9.034047             -8.157437            0.053867
| 22>   H                      10.279727            -7.073836            -0.428352
| 23> *
| 24>
| 25> #Run DFT-D3 single point of the molecule with dimer basis set
| 26> $new_job
| 27> %base "5-98_DFT_A"
| 28> ! wB97X-D3 def2-TZVP TIGHTSCF CHELPG PMODEL
| 29>
| 30> %scf
| 31> MaxIter 1000
| 32> end
| 33>
| 34> * xyz 0 1
| 35>   C                      9.518140             -9.620616            -3.107383
| 36>   O                      10.506839            -9.162423            -4.033828
| 37>   H                      10.192911            -8.597301            -4.716816
| 38>   H                      8.766802             -8.855435            -2.834577
| 39>   H                      8.944407             -10.443229           -3.539903
| 40>   H                      9.859461             -9.901562            -2.110812
| 41>   C                    : 9.972915             -7.685073            0.459403
| 42>   O                    : 9.593615             -6.860634            1.550641
| 43>   H                    : 8.854218             -7.338539            1.910346
| 44>   H                    : 10.720847            -8.414273            0.751041
| 45>   H                    : 9.034047             -8.157437            0.053867
| 46>   H                    : 10.279727            -7.073836            -0.428352
| 47> *
| 48>
| 49> #Run DFT-D3 single point of the particle with dimer basis set
| 50> $new_job
| 51> %base "5-98_DFT_B"
| 52> ! wB97X-D3 def2-TZVP TIGHTSCF CHELPG PMODEL
| 53>
| 54> %scf
| 55> MaxIter 1000
| 56> end
| 57>
| 58> * xyz 0 1
| 59>   C                    : 9.518140             -9.620616            -3.107383
| 60>   O                    : 10.506839            -9.162423            -4.033828
| 61>   H                    : 10.192911            -8.597301            -4.716816
| 62>   H                    : 8.766802             -8.855435            -2.834577
| 63>   H                    : 8.944407             -10.443229           -3.539903
| 64>   H                    : 9.859461             -9.901562            -2.110812
| 65>   C                      9.972915             -7.685073            0.459403
| 66>   O                      9.593615             -6.860634            1.550641
| 67>   H                      8.854218             -7.338539            1.910346
| 68>   H                      10.720847            -8.414273            0.751041
| 69>   H                      9.034047             -8.157437            0.053867
| 70>   H                      10.279727            -7.073836            -0.428352
| 71> *
| 72>
| 73>                          ****END OF INPUT****
 Total Charge           Charge          ....    0
 Multiplicity           Mult            ....    1
 Number of Electrons    NEL             ....   36
Dispersion correction           -0.001389986
FINAL SINGLE POINT ENERGY      -231.462361224705
Dispersion correction           -0.000278238
FINAL SINGLE POINT ENERGY      -115.730302003243

CARTESIAN COORDINATES (ANGSTROEM)
---------------------------------
  C      9.518140   -9.620616   -3.107383
  O     10.506839   -9.162423   -4.033828
  H     10.192911   -8.597301   -4.716816
  H      8.766802   -8.855435   -2.834577
  H      8.944407  -10.443229   -3.539903
  H      9.859461   -9.901562   -2.110812
  C      9.972915   -7.685073    0.459403
  O      9.593615   -6.860634    1.550641
  H      8.854218   -7.338539    1.910346
  H     10.720847   -8.414273    0.751041
  H      9.034047   -8.157437    0.053867
  H     10.279727   -7.073836   -0.428352

 Multiplicity           Mult            ....    1
 Number of Electrons    NEL             ....   18
 Basis Dimension        Dim             ....  172

ORBITAL ENERGIES
----------------

  NO   OCC          E(Eh)            E(eV)
   0   2.0000     -19.230107      -523.2778
   1   2.0000     -10.319275      -280.8017
   2   2.0000      -1.140777       -31.0421
   3   2.0000      -0.789235       -21.4762
   4   2.0000      -0.606797       -16.5118
   5   2.0000      -0.553364       -15.0578
   6   2.0000      -0.521633       -14.1944
   7   2.0000      -0.428510       -11.6604
   8   2.0000      -0.378211       -10.2917
   9   0.0000       0.080700         2.1960
  10   0.0000       0.113679         3.0934
  11   0.0000       0.146540         3.9876
  12   0.0000       0.165452         4.5022
  13   0.0000       0.185332         5.0432

MULLIKEN ATOMIC CHARGES
-----------------------
   0 C :   -0.000038
   1 O :    0.000001
   2 H :   -0.000009
   3 H :   -0.000907
   4 H :   -0.000103
   5 H :   -0.000387
   6 C :   -0.178786
   7 O :   -0.462676
   8 H :    0.315442
   9 H :    0.112565
  10 H :    0.097393
  11 H :    0.117504
Sum of atomic charges:   -0.0000000

LOEWDIN ATOMIC CHARGES
----------------------
   0 C :   -0.001871
   1 O :   -0.000017
   2 H :   -0.000005
   3 H :   -0.000985
   4 H :   -0.000011
   5 H :   -0.001163
   6 C :   -0.391181
   7 O :   -0.078942
   8 H :    0.165986
   9 H :    0.094612
  10 H :    0.102747
  11 H :    0.110830

  Mayer bond orders larger than 0.1
B(  6-C ,  7-O ) :   1.0067 B(  6-C ,  9-H ) :   0.9653 B(  6-C , 10-H ) :   0.9915
B(  6-C , 11-H ) :   0.9708 B(  7-O ,  8-H ) :   0.9046

Dispersion correction           -0.000231264
FINAL SINGLE POINT ENERGY      -115.731345079292

DIPOLE MOMENT
-------------
                                X             Y             Z
Electronic contribution:     -0.22313       1.12938       1.46189
Nuclear contribution   :     -0.11405      -1.73854      -1.66839
                        -----------------------------------------
Total Dipole Moment    :     -0.33719      -0.60915      -0.20650
                        -----------------------------------------
Magnitude (a.u.)       :      0.72623
Magnitude (Debye)      :      1.84592

Rotational constants in cm-1:     4.129801     0.827713     0.807909
Rotational constants in MHz : 123808.305751 24814.214782 24220.491640

                             ****ORCA TERMINATED NORMALLY****
TOTAL RUN TIME: 0 days 0 hours 0 minutes 40 seconds 64 msec
