                         Program Version 4.1.2  - RELEASE  -
|  1> #Run DFT-D3 single point of the dimer
|  2> ! wB97X-D3 def2-TZVP TIGHTSCF CHELPG PMODEL PAL8
|  3>
|  4> %base "17-47_DFT_AB"
|  5>
|  6> %scf
|  7> MaxIter 1000
|  8> end
|  9>
| 10> * xyz 0 1
| 11>   C                      8.855435             2.500085             -1.398292
| 12>   O                      8.460156             1.355056             -0.672985
| 13>   H                      9.255421             1.118995             -0.121987
| 14>   H                      9.214119             3.364614             -0.741264
| 15>   H                      9.646805             2.202095             -2.062144
| 16>   H                      8.024161             2.826217             -2.019382
| 17>   C                      6.432539             1.573066             2.084114
| 18>   O                      6.031638             2.885209             2.530038
| 19>   H                      5.766672             3.462999             1.764961
| 20>   H                      7.336730             1.598345             1.367785
| 21>   H                      6.681411             0.854883             2.840152
| 22>   H                      5.621836             1.199433             1.360271
| 23> *
| 24>
| 25> #Run DFT-D3 single point of the molecule with dimer basis set
| 26> $new_job
| 27> %base "17-47_DFT_A"
| 28> ! wB97X-D3 def2-TZVP TIGHTSCF CHELPG PMODEL
| 29>
| 30> %scf
| 31> MaxIter 1000
| 32> end
| 33>
| 34> * xyz 0 1
| 35>   C                      8.855435             2.500085             -1.398292
| 36>   O                      8.460156             1.355056             -0.672985
| 37>   H                      9.255421             1.118995             -0.121987
| 38>   H                      9.214119             3.364614             -0.741264
| 39>   H                      9.646805             2.202095             -2.062144
| 40>   H                      8.024161             2.826217             -2.019382
| 41>   C                    : 6.432539             1.573066             2.084114
| 42>   O                    : 6.031638             2.885209             2.530038
| 43>   H                    : 5.766672             3.462999             1.764961
| 44>   H                    : 7.336730             1.598345             1.367785
| 45>   H                    : 6.681411             0.854883             2.840152
| 46>   H                    : 5.621836             1.199433             1.360271
| 47> *
| 48>
| 49> #Run DFT-D3 single point of the particle with dimer basis set
| 50> $new_job
| 51> %base "17-47_DFT_B"
| 52> ! wB97X-D3 def2-TZVP TIGHTSCF CHELPG PMODEL
| 53>
| 54> %scf
| 55> MaxIter 1000
| 56> end
| 57>
| 58> * xyz 0 1
| 59>   C                    : 8.855435             2.500085             -1.398292
| 60>   O                    : 8.460156             1.355056             -0.672985
| 61>   H                    : 9.255421             1.118995             -0.121987
| 62>   H                    : 9.214119             3.364614             -0.741264
| 63>   H                    : 9.646805             2.202095             -2.062144
| 64>   H                    : 8.024161             2.826217             -2.019382
| 65>   C                      6.432539             1.573066             2.084114
| 66>   O                      6.031638             2.885209             2.530038
| 67>   H                      5.766672             3.462999             1.764961
| 68>   H                      7.336730             1.598345             1.367785
| 69>   H                      6.681411             0.854883             2.840152
| 70>   H                      5.621836             1.199433             1.360271
| 71> *
| 72>
| 73>                          ****END OF INPUT****
 Total Charge           Charge          ....    0
 Multiplicity           Mult            ....    1
 Number of Electrons    NEL             ....   36
Dispersion correction           -0.001548736
FINAL SINGLE POINT ENERGY      -231.460718491384
Dispersion correction           -0.000231603
FINAL SINGLE POINT ENERGY      -115.733889956793

CARTESIAN COORDINATES (ANGSTROEM)
---------------------------------
  C      8.855435    2.500085   -1.398292
  O      8.460156    1.355056   -0.672985
  H      9.255421    1.118995   -0.121987
  H      9.214119    3.364614   -0.741264
  H      9.646805    2.202095   -2.062144
  H      8.024161    2.826217   -2.019382
  C      6.432539    1.573066    2.084114
  O      6.031638    2.885209    2.530038
  H      5.766672    3.462999    1.764961
  H      7.336730    1.598345    1.367785
  H      6.681411    0.854883    2.840152
  H      5.621836    1.199433    1.360271

 Multiplicity           Mult            ....    1
 Number of Electrons    NEL             ....   18
 Basis Dimension        Dim             ....  172

ORBITAL ENERGIES
----------------

  NO   OCC          E(Eh)            E(eV)
   0   2.0000     -19.234277      -523.3913
   1   2.0000     -10.327149      -281.0160
   2   2.0000      -1.120583       -30.4926
   3   2.0000      -0.790310       -21.5054
   4   2.0000      -0.602565       -16.3966
   5   2.0000      -0.539585       -14.6829
   6   2.0000      -0.516582       -14.0569
   7   2.0000      -0.432345       -11.7647
   8   2.0000      -0.366914        -9.9842
   9   0.0000       0.077718         2.1148
  10   0.0000       0.113420         3.0863
  11   0.0000       0.142487         3.8773
  12   0.0000       0.171413         4.6644
  13   0.0000       0.190588         5.1862

MULLIKEN ATOMIC CHARGES
-----------------------
   0 C :    0.001019
   1 O :    0.000204
   2 H :   -0.001140
   3 H :   -0.000096
   4 H :    0.000125
   5 H :   -0.000201
   6 C :   -0.175312
   7 O :   -0.483586
   8 H :    0.323296
   9 H :    0.091473
  10 H :    0.137822
  11 H :    0.106395
Sum of atomic charges:    0.0000000

LOEWDIN ATOMIC CHARGES
----------------------
   0 C :   -0.002253
   1 O :   -0.010736
   2 H :   -0.003775
   3 H :   -0.000188
   4 H :   -0.000030
   5 H :   -0.000077
   6 C :   -0.377005
   7 O :   -0.114953
   8 H :    0.188568
   9 H :    0.110961
  10 H :    0.103242
  11 H :    0.106246

  Mayer bond orders larger than 0.1
B(  6-C ,  7-O ) :   0.9913 B(  6-C ,  9-H ) :   0.9742 B(  6-C , 10-H ) :   0.9642
B(  6-C , 11-H ) :   0.9841 B(  7-O ,  8-H ) :   0.8878

Dispersion correction           -0.000276061
FINAL SINGLE POINT ENERGY      -115.725666899633

DIPOLE MOMENT
-------------
                                X             Y             Z
Electronic contribution:     -0.48657       1.60176       1.00590
Nuclear contribution   :      0.48307      -1.77404      -1.65461
                        -----------------------------------------
Total Dipole Moment    :     -0.00350      -0.17228      -0.64871
                        -----------------------------------------
Magnitude (a.u.)       :      0.67121
Magnitude (Debye)      :      1.70607

Rotational constants in cm-1:     4.157764     0.790890     0.756297
Rotational constants in MHz : 124646.641926 23710.277611 22673.209357

                             ****ORCA TERMINATED NORMALLY****
TOTAL RUN TIME: 0 days 0 hours 1 minutes 11 seconds 40 msec
