                         Program Version 4.1.2  - RELEASE  -
|  1> #Run DFT-D3 single point of the dimer
|  2> ! wB97X-D3 def2-TZVP TIGHTSCF CHELPG PMODEL PAL8
|  3>
|  4> %base "20-122_DFT_AB"
|  5>
|  6> %scf
|  7> MaxIter 1000
|  8> end
|  9>
| 10> * xyz 0 1
| 11>   C                      -1.761067            5.722091             -2.002277
| 12>   O                      -1.949604            4.450320             -2.319201
| 13>   H                      -2.743328            3.992807             -2.075747
| 14>   H                      -2.692750            6.144057             -1.678658
| 15>   H                      -0.954174            5.871586             -1.341224
| 16>   H                      -1.561292            6.309232             -2.952997
| 17>   C                      -2.629353            0.751410             -0.072952
| 18>   O                      -2.026080            2.004343             -0.059670
| 19>   H                      -2.642368            2.604601             0.310254
| 20>   H                      -1.946076            0.063422             -0.479698
| 21>   H                      -2.841996            0.328647             0.935642
| 22>   H                      -3.550534            0.740549             -0.749496
| 23> *
| 24>
| 25> #Run DFT-D3 single point of the molecule with dimer basis set
| 26> $new_job
| 27> %base "20-122_DFT_A"
| 28> ! wB97X-D3 def2-TZVP TIGHTSCF CHELPG PMODEL
| 29>
| 30> %scf
| 31> MaxIter 1000
| 32> end
| 33>
| 34> * xyz 0 1
| 35>   C                      -1.761067            5.722091             -2.002277
| 36>   O                      -1.949604            4.450320             -2.319201
| 37>   H                      -2.743328            3.992807             -2.075747
| 38>   H                      -2.692750            6.144057             -1.678658
| 39>   H                      -0.954174            5.871586             -1.341224
| 40>   H                      -1.561292            6.309232             -2.952997
| 41>   C                    : -2.629353            0.751410             -0.072952
| 42>   O                    : -2.026080            2.004343             -0.059670
| 43>   H                    : -2.642368            2.604601             0.310254
| 44>   H                    : -1.946076            0.063422             -0.479698
| 45>   H                    : -2.841996            0.328647             0.935642
| 46>   H                    : -3.550534            0.740549             -0.749496
| 47> *
| 48>
| 49> #Run DFT-D3 single point of the particle with dimer basis set
| 50> $new_job
| 51> %base "20-122_DFT_B"
| 52> ! wB97X-D3 def2-TZVP TIGHTSCF CHELPG PMODEL
| 53>
| 54> %scf
| 55> MaxIter 1000
| 56> end
| 57>
| 58> * xyz 0 1
| 59>   C                    : -1.761067            5.722091             -2.002277
| 60>   O                    : -1.949604            4.450320             -2.319201
| 61>   H                    : -2.743328            3.992807             -2.075747
| 62>   H                    : -2.692750            6.144057             -1.678658
| 63>   H                    : -0.954174            5.871586             -1.341224
| 64>   H                    : -1.561292            6.309232             -2.952997
| 65>   C                      -2.629353            0.751410             -0.072952
| 66>   O                      -2.026080            2.004343             -0.059670
| 67>   H                      -2.642368            2.604601             0.310254
| 68>   H                      -1.946076            0.063422             -0.479698
| 69>   H                      -2.841996            0.328647             0.935642
| 70>   H                      -3.550534            0.740549             -0.749496
| 71> *
| 72>
| 73>                          ****END OF INPUT****
 Total Charge           Charge          ....    0
 Multiplicity           Mult            ....    1
 Number of Electrons    NEL             ....   36
Dispersion correction           -0.001332450
FINAL SINGLE POINT ENERGY      -231.455832224553
Dispersion correction           -0.000226593
FINAL SINGLE POINT ENERGY      -115.723435031897

CARTESIAN COORDINATES (ANGSTROEM)
---------------------------------
  C     -1.761067    5.722091   -2.002277
  O     -1.949604    4.450320   -2.319201
  H     -2.743328    3.992807   -2.075747
  H     -2.692750    6.144057   -1.678658
  H     -0.954174    5.871586   -1.341224
  H     -1.561292    6.309232   -2.952997
  C     -2.629353    0.751410   -0.072952
  O     -2.026080    2.004343   -0.059670
  H     -2.642368    2.604601    0.310254
  H     -1.946076    0.063422   -0.479698
  H     -2.841996    0.328647    0.935642
  H     -3.550534    0.740549   -0.749496

 Multiplicity           Mult            ....    1
 Number of Electrons    NEL             ....   18
 Basis Dimension        Dim             ....  172

ORBITAL ENERGIES
----------------

  NO   OCC          E(Eh)            E(eV)
   0   2.0000     -19.231158      -523.3064
   1   2.0000     -10.313855      -280.6543
   2   2.0000      -1.150501       -31.3067
   3   2.0000      -0.797454       -21.6998
   4   2.0000      -0.614420       -16.7192
   5   2.0000      -0.544908       -14.8277
   6   2.0000      -0.533140       -14.5075
   7   2.0000      -0.432458       -11.7678
   8   2.0000      -0.375807       -10.2262
   9   0.0000       0.087961         2.3935
  10   0.0000       0.123759         3.3677
  11   0.0000       0.154888         4.2147
  12   0.0000       0.179272         4.8782
  13   0.0000       0.199596         5.4313

MULLIKEN ATOMIC CHARGES
-----------------------
   0 C :   -0.000297
   1 O :    0.000866
   2 H :   -0.006664
   3 H :    0.000073
   4 H :    0.000008
   5 H :   -0.000055
   6 C :   -0.161455
   7 O :   -0.456592
   8 H :    0.313316
   9 H :    0.122026
  10 H :    0.095361
  11 H :    0.093415
Sum of atomic charges:   -0.0000000

LOEWDIN ATOMIC CHARGES
----------------------
   0 C :   -0.000653
   1 O :   -0.002659
   2 H :   -0.005768
   3 H :   -0.000010
   4 H :   -0.000054
   5 H :   -0.000019
   6 C :   -0.406588
   7 O :   -0.038994
   8 H :    0.156578
   9 H :    0.098864
  10 H :    0.097064
  11 H :    0.102239

  Mayer bond orders larger than 0.1
B(  6-C ,  7-O ) :   1.0091 B(  6-C ,  9-H ) :   0.9757 B(  6-C , 10-H ) :   0.9717
B(  6-C , 11-H ) :   0.9766 B(  7-O ,  8-H ) :   0.9032

Dispersion correction           -0.000239338
FINAL SINGLE POINT ENERGY      -115.733741893721

DIPOLE MOMENT
-------------
                                X             Y             Z
Electronic contribution:      0.92588       1.62710       0.00599
Nuclear contribution   :     -1.50589      -1.73880       0.22808
                        -----------------------------------------
Total Dipole Moment    :     -0.58001      -0.11169       0.23407
                        -----------------------------------------
Magnitude (a.u.)       :      0.63536
Magnitude (Debye)      :      1.61495

Rotational constants in cm-1:     4.297082     0.845222     0.828106
Rotational constants in MHz : 128823.273615 25339.107173 24826.003167

                             ****ORCA TERMINATED NORMALLY****
TOTAL RUN TIME: 0 days 0 hours 1 minutes 6 seconds 356 msec
