                         Program Version 4.1.2  - RELEASE  -
|  1> #Run DFT-D3 single point of the dimer
|  2> ! wB97X-D3 def2-TZVP TIGHTSCF CHELPG PMODEL PAL8
|  3>
|  4> %base "17-93_DFT_AB"
|  5>
|  6> %scf
|  7> MaxIter 1000
|  8> end
|  9>
| 10> * xyz 0 1
| 11>   C                      6.352193             4.195746             -4.190666
| 12>   O                      5.100575             4.500113             -4.616961
| 13>   H                      4.495087             4.304367             -3.860152
| 14>   H                      7.093230             4.700914             -4.815245
| 15>   H                      6.551793             4.589563             -3.174605
| 16>   H                      6.623159             3.143777             -4.209572
| 17>   C                      3.270100             3.122538             -7.130253
| 18>   O                      3.381538             2.572077             -5.852959
| 19>   H                      4.009754             3.136969             -5.411769
| 20>   H                      3.960779             3.980982             -7.247778
| 21>   H                      3.434063             2.453098             -7.943087
| 22>   H                      2.231694             3.476196             -7.282018
| 23> *
| 24>
| 25> #Run DFT-D3 single point of the molecule with dimer basis set
| 26> $new_job
| 27> %base "17-93_DFT_A"
| 28> ! wB97X-D3 def2-TZVP TIGHTSCF CHELPG PMODEL
| 29>
| 30> %scf
| 31> MaxIter 1000
| 32> end
| 33>
| 34> * xyz 0 1
| 35>   C                      6.352193             4.195746             -4.190666
| 36>   O                      5.100575             4.500113             -4.616961
| 37>   H                      4.495087             4.304367             -3.860152
| 38>   H                      7.093230             4.700914             -4.815245
| 39>   H                      6.551793             4.589563             -3.174605
| 40>   H                      6.623159             3.143777             -4.209572
| 41>   C                    : 3.270100             3.122538             -7.130253
| 42>   O                    : 3.381538             2.572077             -5.852959
| 43>   H                    : 4.009754             3.136969             -5.411769
| 44>   H                    : 3.960779             3.980982             -7.247778
| 45>   H                    : 3.434063             2.453098             -7.943087
| 46>   H                    : 2.231694             3.476196             -7.282018
| 47> *
| 48>
| 49> #Run DFT-D3 single point of the particle with dimer basis set
| 50> $new_job
| 51> %base "17-93_DFT_B"
| 52> ! wB97X-D3 def2-TZVP TIGHTSCF CHELPG PMODEL
| 53>
| 54> %scf
| 55> MaxIter 1000
| 56> end
| 57>
| 58> * xyz 0 1
| 59>   C                    : 6.352193             4.195746             -4.190666
| 60>   O                    : 5.100575             4.500113             -4.616961
| 61>   H                    : 4.495087             4.304367             -3.860152
| 62>   H                    : 7.093230             4.700914             -4.815245
| 63>   H                    : 6.551793             4.589563             -3.174605
| 64>   H                    : 6.623159             3.143777             -4.209572
| 65>   C                      3.270100             3.122538             -7.130253
| 66>   O                      3.381538             2.572077             -5.852959
| 67>   H                      4.009754             3.136969             -5.411769
| 68>   H                      3.960779             3.980982             -7.247778
| 69>   H                      3.434063             2.453098             -7.943087
| 70>   H                      2.231694             3.476196             -7.282018
| 71> *
| 72>
| 73>                          ****END OF INPUT****
 Total Charge           Charge          ....    0
 Multiplicity           Mult            ....    1
 Number of Electrons    NEL             ....   36
Dispersion correction           -0.001797620
FINAL SINGLE POINT ENERGY      -231.474010235475
Dispersion correction           -0.000226117
FINAL SINGLE POINT ENERGY      -115.733740032984

CARTESIAN COORDINATES (ANGSTROEM)
---------------------------------
  C      6.352193    4.195746   -4.190666
  O      5.100575    4.500113   -4.616961
  H      4.495087    4.304367   -3.860152
  H      7.093230    4.700914   -4.815245
  H      6.551793    4.589563   -3.174605
  H      6.623159    3.143777   -4.209572
  C      3.270100    3.122538   -7.130253
  O      3.381538    2.572077   -5.852959
  H      4.009754    3.136969   -5.411769
  H      3.960779    3.980982   -7.247778
  H      3.434063    2.453098   -7.943087
  H      2.231694    3.476196   -7.282018

 Multiplicity           Mult            ....    1
 Number of Electrons    NEL             ....   18
 Basis Dimension        Dim             ....  172

ORBITAL ENERGIES
----------------

  NO   OCC          E(Eh)            E(eV)
   0   2.0000     -19.232148      -523.3334
   1   2.0000     -10.311842      -280.5995
   2   2.0000      -1.147414       -31.2227
   3   2.0000      -0.794614       -21.6226
   4   2.0000      -0.616850       -16.7853
   5   2.0000      -0.541907       -14.7460
   6   2.0000      -0.534198       -14.5363
   7   2.0000      -0.437375       -11.9016
   8   2.0000      -0.372319       -10.1313
   9   0.0000       0.068753         1.8709
  10   0.0000       0.132317         3.6005
  11   0.0000       0.151012         4.1093
  12   0.0000       0.175277         4.7695
  13   0.0000       0.183056         4.9812

MULLIKEN ATOMIC CHARGES
-----------------------
   0 C :   -0.002489
   1 O :   -0.004037
   2 H :   -0.002083
   3 H :    0.000049
   4 H :   -0.000016
   5 H :   -0.000216
   6 C :   -0.161521
   7 O :   -0.455811
   8 H :    0.318437
   9 H :    0.095771
  10 H :    0.111344
  11 H :    0.100570
Sum of atomic charges:   -0.0000000

LOEWDIN ATOMIC CHARGES
----------------------
   0 C :   -0.004021
   1 O :   -0.019256
   2 H :   -0.005306
   3 H :   -0.000055
   4 H :   -0.000070
   5 H :   -0.000659
   6 C :   -0.397628
   7 O :   -0.045319
   8 H :    0.179234
   9 H :    0.099254
  10 H :    0.092655
  11 H :    0.101171

  Mayer bond orders larger than 0.1
B(  6-C ,  7-O ) :   1.0019 B(  6-C ,  9-H ) :   0.9882 B(  6-C , 10-H ) :   0.9731
B(  6-C , 11-H ) :   0.9801 B(  7-O ,  8-H ) :   0.9090

Dispersion correction           -0.000234687
FINAL SINGLE POINT ENERGY      -115.733013684586

DIPOLE MOMENT
-------------
                                X             Y             Z
Electronic contribution:      0.11617      -0.92121       1.65104
Nuclear contribution   :      0.24765       1.48399      -1.86231
                        -----------------------------------------
Total Dipole Moment    :      0.36382       0.56277      -0.21127
                        -----------------------------------------
Magnitude (a.u.)       :      0.70265
Magnitude (Debye)      :      1.78599

Rotational constants in cm-1:     4.325330     0.854883     0.815949
Rotational constants in MHz : 129670.119480 25628.742871 24461.537000

                             ****ORCA TERMINATED NORMALLY****
TOTAL RUN TIME: 0 days 0 hours 1 minutes 8 seconds 928 msec
