                         Program Version 4.1.2  - RELEASE  -
|  1> #Run DFT-D3 single point of the dimer
|  2> ! wB97X-D3 def2-TZVP TIGHTSCF CHELPG PMODEL PAL8
|  3>
|  4> %base "16-147_DFT_AB"
|  5>
|  6> %scf
|  7> MaxIter 1000
|  8> end
|  9>
| 10> * xyz 0 1
| 11>   C                      3.966741             6.720232             0.746698
| 12>   O                      3.416166             6.261532             2.001378
| 13>   H                      3.399390             5.330941             2.007699
| 14>   H                      4.958919             6.341420             0.529668
| 15>   H                      3.288763             6.520529             -0.083598
| 16>   H                      4.116659             7.806077             0.736759
| 17>   C                      5.477825             10.222591            2.055904
| 18>   O                      6.314687             9.784553             0.931115
| 19>   H                      6.687954             8.989488             1.259072
| 20>   H                      5.959780             10.902845            2.777499
| 21>   H                      4.533393             10.671920            1.844271
| 22>   H                      5.174428             9.336066             2.686822
| 23> *
| 24>
| 25> #Run DFT-D3 single point of the molecule with dimer basis set
| 26> $new_job
| 27> %base "16-147_DFT_A"
| 28> ! wB97X-D3 def2-TZVP TIGHTSCF CHELPG PMODEL
| 29>
| 30> %scf
| 31> MaxIter 1000
| 32> end
| 33>
| 34> * xyz 0 1
| 35>   C                      3.966741             6.720232             0.746698
| 36>   O                      3.416166             6.261532             2.001378
| 37>   H                      3.399390             5.330941             2.007699
| 38>   H                      4.958919             6.341420             0.529668
| 39>   H                      3.288763             6.520529             -0.083598
| 40>   H                      4.116659             7.806077             0.736759
| 41>   C                    : 5.477825             10.222591            2.055904
| 42>   O                    : 6.314687             9.784553             0.931115
| 43>   H                    : 6.687954             8.989488             1.259072
| 44>   H                    : 5.959780             10.902845            2.777499
| 45>   H                    : 4.533393             10.671920            1.844271
| 46>   H                    : 5.174428             9.336066             2.686822
| 47> *
| 48>
| 49> #Run DFT-D3 single point of the particle with dimer basis set
| 50> $new_job
| 51> %base "16-147_DFT_B"
| 52> ! wB97X-D3 def2-TZVP TIGHTSCF CHELPG PMODEL
| 53>
| 54> %scf
| 55> MaxIter 1000
| 56> end
| 57>
| 58> * xyz 0 1
| 59>   C                    : 3.966741             6.720232             0.746698
| 60>   O                    : 3.416166             6.261532             2.001378
| 61>   H                    : 3.399390             5.330941             2.007699
| 62>   H                    : 4.958919             6.341420             0.529668
| 63>   H                    : 3.288763             6.520529             -0.083598
| 64>   H                    : 4.116659             7.806077             0.736759
| 65>   C                      5.477825             10.222591            2.055904
| 66>   O                      6.314687             9.784553             0.931115
| 67>   H                      6.687954             8.989488             1.259072
| 68>   H                      5.959780             10.902845            2.777499
| 69>   H                      4.533393             10.671920            1.844271
| 70>   H                      5.174428             9.336066             2.686822
| 71> *
| 72>
| 73>                          ****END OF INPUT****
 Total Charge           Charge          ....    0
 Multiplicity           Mult            ....    1
 Number of Electrons    NEL             ....   36
Dispersion correction           -0.001773613
FINAL SINGLE POINT ENERGY      -231.463886129842
Dispersion correction           -0.000264223
FINAL SINGLE POINT ENERGY      -115.734158545341

CARTESIAN COORDINATES (ANGSTROEM)
---------------------------------
  C      3.966741    6.720232    0.746698
  O      3.416166    6.261532    2.001378
  H      3.399390    5.330941    2.007699
  H      4.958919    6.341420    0.529668
  H      3.288763    6.520529   -0.083598
  H      4.116659    7.806077    0.736759
  C      5.477825   10.222591    2.055904
  O      6.314687    9.784553    0.931115
  H      6.687954    8.989488    1.259072
  H      5.959780   10.902845    2.777499
  H      4.533393   10.671920    1.844271
  H      5.174428    9.336066    2.686822

 Multiplicity           Mult            ....    1
 Number of Electrons    NEL             ....   18
 Basis Dimension        Dim             ....  172

ORBITAL ENERGIES
----------------

  NO   OCC          E(Eh)            E(eV)
   0   2.0000     -19.236247      -523.4449
   1   2.0000     -10.321616      -280.8654
   2   2.0000      -1.132038       -30.8043
   3   2.0000      -0.800775       -21.7902
   4   2.0000      -0.605088       -16.4653
   5   2.0000      -0.533523       -14.5179
   6   2.0000      -0.527198       -14.3458
   7   2.0000      -0.439629       -11.9629
   8   2.0000      -0.381535       -10.3821
   9   0.0000       0.079670         2.1679
  10   0.0000       0.125540         3.4161
  11   0.0000       0.141581         3.8526
  12   0.0000       0.169290         4.6066
  13   0.0000       0.193933         5.2772

MULLIKEN ATOMIC CHARGES
-----------------------
   0 C :   -0.000889
   1 O :   -0.000112
   2 H :   -0.000020
   3 H :   -0.000471
   4 H :   -0.000338
   5 H :   -0.002085
   6 C :   -0.208666
   7 O :   -0.463970
   8 H :    0.315801
   9 H :    0.121082
  10 H :    0.129748
  11 H :    0.109918
Sum of atomic charges:   -0.0000000

LOEWDIN ATOMIC CHARGES
----------------------
   0 C :   -0.003523
   1 O :   -0.000138
   2 H :   -0.000009
   3 H :   -0.000458
   4 H :   -0.000025
   5 H :   -0.004303
   6 C :   -0.357725
   7 O :   -0.093870
   8 H :    0.155158
   9 H :    0.099792
  10 H :    0.099349
  11 H :    0.105752

  Mayer bond orders larger than 0.1
B(  6-C ,  7-O ) :   0.9885 B(  6-C ,  9-H ) :   0.9707 B(  6-C , 10-H ) :   0.9749
B(  6-C , 11-H ) :   0.9866 B(  7-O ,  8-H ) :   0.9060

Dispersion correction           -0.000278453
FINAL SINGLE POINT ENERGY      -115.727458640584

DIPOLE MOMENT
-------------
                                X             Y             Z
Electronic contribution:      1.07026      -0.33026      -1.70439
Nuclear contribution   :     -1.19776       0.00605       2.38128
                        -----------------------------------------
Total Dipole Moment    :     -0.12750      -0.32421       0.67688
                        -----------------------------------------
Magnitude (a.u.)       :      0.76128
Magnitude (Debye)      :      1.93501

Rotational constants in cm-1:     4.450932     0.770724     0.746076
Rotational constants in MHz : 133435.594557 23105.734416 22366.782964

                             ****ORCA TERMINATED NORMALLY****
TOTAL RUN TIME: 0 days 0 hours 0 minutes 54 seconds 411 msec
