                         Program Version 4.1.2  - RELEASE  -
|  1> #Run DFT-D3 single point of the dimer
|  2> ! wB97X-D3 def2-TZVP TIGHTSCF CHELPG PMODEL PAL8
|  3>
|  4> %base "21-126_DFT_AB"
|  5>
|  6> %scf
|  7> MaxIter 1000
|  8> end
|  9>
| 10> * xyz 0 1
| 11>   C                      -5.919274            -3.266028            -9.765933
| 12>   O                      -7.007712            -2.477800            -10.131426
| 13>   H                      -7.419284            -2.264709            -9.271346
| 14>   H                      -5.092639            -3.122663            -10.527099
| 15>   H                      -5.501222            -2.933932            -8.783267
| 16>   H                      -6.205399            -4.343898            -9.720369
| 17>   C                      -8.175844            -6.461726            -9.529841
| 18>   O                      -6.888502            -6.628987            -8.963924
| 19>   H                      -6.925999            -7.424524            -8.347092
| 20>   H                      -8.688891            -7.439171            -9.596102
| 21>   H                      -8.830355            -5.949237            -8.826932
| 22>   H                      -8.134614            -6.010198            -10.551838
| 23> *
| 24>
| 25> #Run DFT-D3 single point of the molecule with dimer basis set
| 26> $new_job
| 27> %base "21-126_DFT_A"
| 28> ! wB97X-D3 def2-TZVP TIGHTSCF CHELPG PMODEL
| 29>
| 30> %scf
| 31> MaxIter 1000
| 32> end
| 33>
| 34> * xyz 0 1
| 35>   C                      -5.919274            -3.266028            -9.765933
| 36>   O                      -7.007712            -2.477800            -10.131426
| 37>   H                      -7.419284            -2.264709            -9.271346
| 38>   H                      -5.092639            -3.122663            -10.527099
| 39>   H                      -5.501222            -2.933932            -8.783267
| 40>   H                      -6.205399            -4.343898            -9.720369
| 41>   C                    : -8.175844            -6.461726            -9.529841
| 42>   O                    : -6.888502            -6.628987            -8.963924
| 43>   H                    : -6.925999            -7.424524            -8.347092
| 44>   H                    : -8.688891            -7.439171            -9.596102
| 45>   H                    : -8.830355            -5.949237            -8.826932
| 46>   H                    : -8.134614            -6.010198            -10.551838
| 47> *
| 48>
| 49> #Run DFT-D3 single point of the particle with dimer basis set
| 50> $new_job
| 51> %base "21-126_DFT_B"
| 52> ! wB97X-D3 def2-TZVP TIGHTSCF CHELPG PMODEL
| 53>
| 54> %scf
| 55> MaxIter 1000
| 56> end
| 57>
| 58> * xyz 0 1
| 59>   C                    : -5.919274            -3.266028            -9.765933
| 60>   O                    : -7.007712            -2.477800            -10.131426
| 61>   H                    : -7.419284            -2.264709            -9.271346
| 62>   H                    : -5.092639            -3.122663            -10.527099
| 63>   H                    : -5.501222            -2.933932            -8.783267
| 64>   H                    : -6.205399            -4.343898            -9.720369
| 65>   C                      -8.175844            -6.461726            -9.529841
| 66>   O                      -6.888502            -6.628987            -8.963924
| 67>   H                      -6.925999            -7.424524            -8.347092
| 68>   H                      -8.688891            -7.439171            -9.596102
| 69>   H                      -8.830355            -5.949237            -8.826932
| 70>   H                      -8.134614            -6.010198            -10.551838
| 71> *
| 72>
| 73>                          ****END OF INPUT****
 Total Charge           Charge          ....    0
 Multiplicity           Mult            ....    1
 Number of Electrons    NEL             ....   36
Dispersion correction           -0.001641598
FINAL SINGLE POINT ENERGY      -231.465976665772
Dispersion correction           -0.000230944
FINAL SINGLE POINT ENERGY      -115.733402671698

CARTESIAN COORDINATES (ANGSTROEM)
---------------------------------
  C     -5.919274   -3.266028   -9.765933
  O     -7.007712   -2.477800  -10.131426
  H     -7.419284   -2.264709   -9.271346
  H     -5.092639   -3.122663  -10.527099
  H     -5.501222   -2.933932   -8.783267
  H     -6.205399   -4.343898   -9.720369
  C     -8.175844   -6.461726   -9.529841
  O     -6.888502   -6.628987   -8.963924
  H     -6.925999   -7.424524   -8.347092
  H     -8.688891   -7.439171   -9.596102
  H     -8.830355   -5.949237   -8.826932
  H     -8.134614   -6.010198  -10.551838

 Multiplicity           Mult            ....    1
 Number of Electrons    NEL             ....   18
 Basis Dimension        Dim             ....  172

ORBITAL ENERGIES
----------------

  NO   OCC          E(Eh)            E(eV)
   0   2.0000     -19.233556      -523.3717
   1   2.0000     -10.316386      -280.7231
   2   2.0000      -1.127378       -30.6775
   3   2.0000      -0.788687       -21.4613
   4   2.0000      -0.608315       -16.5531
   5   2.0000      -0.540357       -14.7039
   6   2.0000      -0.521468       -14.1899
   7   2.0000      -0.432426       -11.7669
   8   2.0000      -0.369694       -10.0599
   9   0.0000       0.093520         2.5448
  10   0.0000       0.114980         3.1288
  11   0.0000       0.150272         4.0891
  12   0.0000       0.175904         4.7866
  13   0.0000       0.192417         5.2359

MULLIKEN ATOMIC CHARGES
-----------------------
   0 C :   -0.002302
   1 O :    0.000069
   2 H :   -0.000063
   3 H :   -0.000063
   4 H :   -0.000053
   5 H :   -0.000451
   6 C :   -0.177119
   7 O :   -0.472142
   8 H :    0.316048
   9 H :    0.105161
  10 H :    0.104897
  11 H :    0.126019
Sum of atomic charges:   -0.0000000

LOEWDIN ATOMIC CHARGES
----------------------
   0 C :   -0.003775
   1 O :   -0.000084
   2 H :   -0.000048
   3 H :   -0.000020
   4 H :   -0.000103
   5 H :   -0.008765
   6 C :   -0.393326
   7 O :   -0.094878
   8 H :    0.196318
   9 H :    0.097409
  10 H :    0.093332
  11 H :    0.113939

  Mayer bond orders larger than 0.1
B(  6-C ,  7-O ) :   0.9930 B(  6-C ,  9-H ) :   0.9808 B(  6-C , 10-H ) :   0.9729
B(  6-C , 11-H ) :   0.9702 B(  7-O ,  8-H ) :   0.8912

Dispersion correction           -0.000240568
FINAL SINGLE POINT ENERGY      -115.730633806205

DIPOLE MOMENT
-------------
                                X             Y             Z
Electronic contribution:      1.76194       0.02518       0.56290
Nuclear contribution   :     -2.30142      -0.48800      -0.40262
                        -----------------------------------------
Total Dipole Moment    :     -0.53948      -0.46281       0.16028
                        -----------------------------------------
Magnitude (a.u.)       :      0.72864
Magnitude (Debye)      :      1.85206

Rotational constants in cm-1:     4.144276     0.830787     0.790512
Rotational constants in MHz : 124242.265973 24906.365612 23698.958903

                             ****ORCA TERMINATED NORMALLY****
TOTAL RUN TIME: 0 days 0 hours 1 minutes 0 seconds 938 msec
