                         Program Version 4.1.2  - RELEASE  -
|  1> #Run DFT-D3 single point of the dimer
|  2> ! wB97X-D3 def2-TZVP TIGHTSCF CHELPG PMODEL PAL8
|  3>
|  4> %base "13-53_DFT_AB"
|  5>
|  6> %scf
|  7> MaxIter 1000
|  8> end
|  9>
| 10> * xyz 0 1
| 11>   C                      -2.615448            -10.755304           2.628873
| 12>   O                      -2.908532            -9.997534            1.453146
| 13>   H                      -3.393054            -10.558160           0.797230
| 14>   H                      -3.465573            -11.407798           2.994486
| 15>   H                      -1.643496            -11.228046           2.392343
| 16>   H                      -2.479222            -10.048655           3.452952
| 17>   C                      -5.962459            -8.021586            1.465362
| 18>   O                      -5.627130            -8.082584            2.823401
| 19>   H                      -4.845257            -8.568784            3.022787
| 20>   H                      -5.807610            -9.027297            1.034918
| 21>   H                      -7.024644            -7.824120            1.297368
| 22>   H                      -5.520833            -7.173313            0.824412
| 23> *
| 24>
| 25> #Run DFT-D3 single point of the molecule with dimer basis set
| 26> $new_job
| 27> %base "13-53_DFT_A"
| 28> ! wB97X-D3 def2-TZVP TIGHTSCF CHELPG PMODEL
| 29>
| 30> %scf
| 31> MaxIter 1000
| 32> end
| 33>
| 34> * xyz 0 1
| 35>   C                      -2.615448            -10.755304           2.628873
| 36>   O                      -2.908532            -9.997534            1.453146
| 37>   H                      -3.393054            -10.558160           0.797230
| 38>   H                      -3.465573            -11.407798           2.994486
| 39>   H                      -1.643496            -11.228046           2.392343
| 40>   H                      -2.479222            -10.048655           3.452952
| 41>   C                    : -5.962459            -8.021586            1.465362
| 42>   O                    : -5.627130            -8.082584            2.823401
| 43>   H                    : -4.845257            -8.568784            3.022787
| 44>   H                    : -5.807610            -9.027297            1.034918
| 45>   H                    : -7.024644            -7.824120            1.297368
| 46>   H                    : -5.520833            -7.173313            0.824412
| 47> *
| 48>
| 49> #Run DFT-D3 single point of the particle with dimer basis set
| 50> $new_job
| 51> %base "13-53_DFT_B"
| 52> ! wB97X-D3 def2-TZVP TIGHTSCF CHELPG PMODEL
| 53>
| 54> %scf
| 55> MaxIter 1000
| 56> end
| 57>
| 58> * xyz 0 1
| 59>   C                    : -2.615448            -10.755304           2.628873
| 60>   O                    : -2.908532            -9.997534            1.453146
| 61>   H                    : -3.393054            -10.558160           0.797230
| 62>   H                    : -3.465573            -11.407798           2.994486
| 63>   H                    : -1.643496            -11.228046           2.392343
| 64>   H                    : -2.479222            -10.048655           3.452952
| 65>   C                      -5.962459            -8.021586            1.465362
| 66>   O                      -5.627130            -8.082584            2.823401
| 67>   H                      -4.845257            -8.568784            3.022787
| 68>   H                      -5.807610            -9.027297            1.034918
| 69>   H                      -7.024644            -7.824120            1.297368
| 70>   H                      -5.520833            -7.173313            0.824412
| 71> *
| 72>
| 73>                          ****END OF INPUT****
 Total Charge           Charge          ....    0
 Multiplicity           Mult            ....    1
 Number of Electrons    NEL             ....   36
Dispersion correction           -0.001918913
FINAL SINGLE POINT ENERGY      -231.462943474181
Dispersion correction           -0.000258058
FINAL SINGLE POINT ENERGY      -115.730985587619

CARTESIAN COORDINATES (ANGSTROEM)
---------------------------------
  C     -2.615448  -10.755304    2.628873
  O     -2.908532   -9.997534    1.453146
  H     -3.393054  -10.558160    0.797230
  H     -3.465573  -11.407798    2.994486
  H     -1.643496  -11.228046    2.392343
  H     -2.479222  -10.048655    3.452952
  C     -5.962459   -8.021586    1.465362
  O     -5.627130   -8.082584    2.823401
  H     -4.845257   -8.568784    3.022787
  H     -5.807610   -9.027297    1.034918
  H     -7.024644   -7.824120    1.297368
  H     -5.520833   -7.173313    0.824412

 Multiplicity           Mult            ....    1
 Number of Electrons    NEL             ....   18
 Basis Dimension        Dim             ....  172

ORBITAL ENERGIES
----------------

  NO   OCC          E(Eh)            E(eV)
   0   2.0000     -19.229768      -523.2686
   1   2.0000     -10.320462      -280.8341
   2   2.0000      -1.141256       -31.0552
   3   2.0000      -0.798054       -21.7161
   4   2.0000      -0.616042       -16.7633
   5   2.0000      -0.545688       -14.8489
   6   2.0000      -0.525809       -14.3080
   7   2.0000      -0.418373       -11.3845
   8   2.0000      -0.374579       -10.1928
   9   0.0000       0.068199         1.8558
  10   0.0000       0.134841         3.6692
  11   0.0000       0.141139         3.8406
  12   0.0000       0.166796         4.5387
  13   0.0000       0.183936         5.0051

MULLIKEN ATOMIC CHARGES
-----------------------
   0 C :   -0.001986
   1 O :   -0.000022
   2 H :   -0.000406
   3 H :    0.000143
   4 H :   -0.000041
   5 H :    0.000070
   6 C :   -0.158476
   7 O :   -0.478767
   8 H :    0.318884
   9 H :    0.103956
  10 H :    0.121217
  11 H :    0.095428
Sum of atomic charges:   -0.0000000

LOEWDIN ATOMIC CHARGES
----------------------
   0 C :   -0.002853
   1 O :   -0.001477
   2 H :   -0.001203
   3 H :   -0.000227
   4 H :   -0.000061
   5 H :   -0.000664
   6 C :   -0.404908
   7 O :   -0.054500
   8 H :    0.157071
   9 H :    0.099099
  10 H :    0.106266
  11 H :    0.103456

  Mayer bond orders larger than 0.1
B(  6-C ,  7-O ) :   0.9978 B(  6-C ,  9-H ) :   0.9848 B(  6-C , 10-H ) :   0.9722
B(  6-C , 11-H ) :   0.9664 B(  7-O ,  8-H ) :   0.9012

Dispersion correction           -0.000274656
FINAL SINGLE POINT ENERGY      -115.728930553456

DIPOLE MOMENT
-------------
                                X             Y             Z
Electronic contribution:      0.43725      -0.01563       1.87982
Nuclear contribution   :     -0.09185      -0.30186      -2.27392
                        -----------------------------------------
Total Dipole Moment    :      0.34540      -0.31749      -0.39410
                        -----------------------------------------
Magnitude (a.u.)       :      0.61271
Magnitude (Debye)      :      1.55739

Rotational constants in cm-1:     4.432379     0.817677     0.798189
Rotational constants in MHz : 132879.384011 24513.324985 23929.089701

                             ****ORCA TERMINATED NORMALLY****
TOTAL RUN TIME: 0 days 0 hours 1 minutes 9 seconds 638 msec
