                         Program Version 4.1.2  - RELEASE  -
|  1> #Run DFT-D3 single point of the dimer
|  2> ! wB97X-D3 def2-TZVP TIGHTSCF CHELPG PMODEL PAL8
|  3>
|  4> %base "13-154_DFT_AB"
|  5>
|  6> %scf
|  7> MaxIter 1000
|  8> end
|  9>
| 10> * xyz 0 1
| 11>   C                      -5.096008            -3.753451            3.326381
| 12>   O                      -5.380777            -2.400970            2.826767
| 13>   H                      -4.569839            -1.883165            2.985100
| 14>   H                      -5.602730            -3.811661            4.240219
| 15>   H                      -5.307437            -4.498748            2.542012
| 16>   H                      -4.063225            -3.850784            3.599259
| 17>   C                      -8.231021            -2.321032            5.418552
| 18>   O                      -7.593325            -1.459487            4.532825
| 19>   H                      -7.053479            -1.994212            3.917231
| 20>   H                      -8.694611            -1.840338            6.231808
| 21>   H                      -9.013949            -2.975823            4.948725
| 22>   H                      -7.423615            -2.892773            5.845033
| 23> *
| 24>
| 25> #Run DFT-D3 single point of the molecule with dimer basis set
| 26> $new_job
| 27> %base "13-154_DFT_A"
| 28> ! wB97X-D3 def2-TZVP TIGHTSCF CHELPG PMODEL
| 29>
| 30> %scf
| 31> MaxIter 1000
| 32> end
| 33>
| 34> * xyz 0 1
| 35>   C                      -5.096008            -3.753451            3.326381
| 36>   O                      -5.380777            -2.400970            2.826767
| 37>   H                      -4.569839            -1.883165            2.985100
| 38>   H                      -5.602730            -3.811661            4.240219
| 39>   H                      -5.307437            -4.498748            2.542012
| 40>   H                      -4.063225            -3.850784            3.599259
| 41>   C                    : -8.231021            -2.321032            5.418552
| 42>   O                    : -7.593325            -1.459487            4.532825
| 43>   H                    : -7.053479            -1.994212            3.917231
| 44>   H                    : -8.694611            -1.840338            6.231808
| 45>   H                    : -9.013949            -2.975823            4.948725
| 46>   H                    : -7.423615            -2.892773            5.845033
| 47> *
| 48>
| 49> #Run DFT-D3 single point of the particle with dimer basis set
| 50> $new_job
| 51> %base "13-154_DFT_B"
| 52> ! wB97X-D3 def2-TZVP TIGHTSCF CHELPG PMODEL
| 53>
| 54> %scf
| 55> MaxIter 1000
| 56> end
| 57>
| 58> * xyz 0 1
| 59>   C                    : -5.096008            -3.753451            3.326381
| 60>   O                    : -5.380777            -2.400970            2.826767
| 61>   H                    : -4.569839            -1.883165            2.985100
| 62>   H                    : -5.602730            -3.811661            4.240219
| 63>   H                    : -5.307437            -4.498748            2.542012
| 64>   H                    : -4.063225            -3.850784            3.599259
| 65>   C                      -8.231021            -2.321032            5.418552
| 66>   O                      -7.593325            -1.459487            4.532825
| 67>   H                      -7.053479            -1.994212            3.917231
| 68>   H                      -8.694611            -1.840338            6.231808
| 69>   H                      -9.013949            -2.975823            4.948725
| 70>   H                      -7.423615            -2.892773            5.845033
| 71> *
| 72>
| 73>                          ****END OF INPUT****
 Total Charge           Charge          ....    0
 Multiplicity           Mult            ....    1
 Number of Electrons    NEL             ....   36
Dispersion correction           -0.001889940
FINAL SINGLE POINT ENERGY      -231.467584929072
Dispersion correction           -0.000242624
FINAL SINGLE POINT ENERGY      -115.729482912124

CARTESIAN COORDINATES (ANGSTROEM)
---------------------------------
  C     -5.096008   -3.753451    3.326381
  O     -5.380777   -2.400970    2.826767
  H     -4.569839   -1.883165    2.985100
  H     -5.602730   -3.811661    4.240219
  H     -5.307437   -4.498748    2.542012
  H     -4.063225   -3.850784    3.599259
  C     -8.231021   -2.321032    5.418552
  O     -7.593325   -1.459487    4.532825
  H     -7.053479   -1.994212    3.917231
  H     -8.694611   -1.840338    6.231808
  H     -9.013949   -2.975823    4.948725
  H     -7.423615   -2.892773    5.845033

 Multiplicity           Mult            ....    1
 Number of Electrons    NEL             ....   18
 Basis Dimension        Dim             ....  172

ORBITAL ENERGIES
----------------

  NO   OCC          E(Eh)            E(eV)
   0   2.0000     -19.230408      -523.2860
   1   2.0000     -10.307424      -280.4793
   2   2.0000      -1.140341       -31.0302
   3   2.0000      -0.795741       -21.6532
   4   2.0000      -0.609097       -16.5744
   5   2.0000      -0.549593       -14.9552
   6   2.0000      -0.537784       -14.6338
   7   2.0000      -0.426107       -11.5950
   8   2.0000      -0.370968       -10.0946
   9   0.0000       0.070278         1.9124
  10   0.0000       0.139270         3.7897
  11   0.0000       0.148092         4.0298
  12   0.0000       0.174010         4.7351
  13   0.0000       0.179814         4.8930

MULLIKEN ATOMIC CHARGES
-----------------------
   0 C :   -0.003426
   1 O :   -0.000545
   2 H :   -0.000141
   3 H :    0.000331
   4 H :    0.000077
   5 H :    0.000001
   6 C :   -0.161245
   7 O :   -0.467707
   8 H :    0.314883
   9 H :    0.122134
  10 H :    0.095164
  11 H :    0.100472
Sum of atomic charges:    0.0000000

LOEWDIN ATOMIC CHARGES
----------------------
   0 C :   -0.006879
   1 O :   -0.014135
   2 H :   -0.001139
   3 H :   -0.003003
   4 H :   -0.000096
   5 H :   -0.000101
   6 C :   -0.398986
   7 O :   -0.058511
   8 H :    0.190215
   9 H :    0.098268
  10 H :    0.099135
  11 H :    0.095232

  Mayer bond orders larger than 0.1
B(  6-C ,  7-O ) :   0.9946 B(  6-C ,  9-H ) :   0.9711 B(  6-C , 10-H ) :   0.9743
B(  6-C , 11-H ) :   0.9914 B(  7-O ,  8-H ) :   0.9026

Dispersion correction           -0.000223998
FINAL SINGLE POINT ENERGY      -115.731150572989

DIPOLE MOMENT
-------------
                                X             Y             Z
Electronic contribution:      0.68481       1.30516      -1.06317
Nuclear contribution   :     -0.58492      -1.95141       1.05359
                        -----------------------------------------
Total Dipole Moment    :      0.09989      -0.64625      -0.00958
                        -----------------------------------------
Magnitude (a.u.)       :      0.65399
Magnitude (Debye)      :      1.66232

Rotational constants in cm-1:     4.362132     0.850156     0.828423
Rotational constants in MHz : 130773.436094 25487.031508 24835.491186

                             ****ORCA TERMINATED NORMALLY****
TOTAL RUN TIME: 0 days 0 hours 1 minutes 12 seconds 576 msec
