                         Program Version 4.1.2  - RELEASE  -
|  1> #Run DFT-D3 single point of the dimer
|  2> ! wB97X-D3 def2-TZVP TIGHTSCF CHELPG PMODEL PAL8
|  3>
|  4> %base "10-194_DFT_AB"
|  5>
|  6> %scf
|  7> MaxIter 1000
|  8> end
|  9>
| 10> * xyz 0 1
| 11>   C                      -8.020745            -3.527914            -10.654631
| 12>   O                      -8.474491            -2.329523            -9.997077
| 13>   H                      -8.064790            -2.411890            -9.082494
| 14>   H                      -8.798983            -3.828442            -11.400321
| 15>   H                      -7.035876            -3.412075            -11.068720
| 16>   H                      -8.014309            -4.342159            -9.886195
| 17>   C                      -10.934407           -2.970035            -7.608139
| 18>   O                      -10.588801           -1.707947            -7.190822
| 19>   H                      -10.509147           -1.214420            -7.942285
| 20>   H                      -11.835404           -2.955898            -8.170487
| 21>   H                      -10.203607           -3.363992            -8.317791
| 22>   H                      -10.983227           -3.712127            -6.780344
| 23> *
| 24>
| 25> #Run DFT-D3 single point of the molecule with dimer basis set
| 26> $new_job
| 27> %base "10-194_DFT_A"
| 28> ! wB97X-D3 def2-TZVP TIGHTSCF CHELPG PMODEL
| 29>
| 30> %scf
| 31> MaxIter 1000
| 32> end
| 33>
| 34> * xyz 0 1
| 35>   C                      -8.020745            -3.527914            -10.654631
| 36>   O                      -8.474491            -2.329523            -9.997077
| 37>   H                      -8.064790            -2.411890            -9.082494
| 38>   H                      -8.798983            -3.828442            -11.400321
| 39>   H                      -7.035876            -3.412075            -11.068720
| 40>   H                      -8.014309            -4.342159            -9.886195
| 41>   C                    : -10.934407           -2.970035            -7.608139
| 42>   O                    : -10.588801           -1.707947            -7.190822
| 43>   H                    : -10.509147           -1.214420            -7.942285
| 44>   H                    : -11.835404           -2.955898            -8.170487
| 45>   H                    : -10.203607           -3.363992            -8.317791
| 46>   H                    : -10.983227           -3.712127            -6.780344
| 47> *
| 48>
| 49> #Run DFT-D3 single point of the particle with dimer basis set
| 50> $new_job
| 51> %base "10-194_DFT_B"
| 52> ! wB97X-D3 def2-TZVP TIGHTSCF CHELPG PMODEL
| 53>
| 54> %scf
| 55> MaxIter 1000
| 56> end
| 57>
| 58> * xyz 0 1
| 59>   C                    : -8.020745            -3.527914            -10.654631
| 60>   O                    : -8.474491            -2.329523            -9.997077
| 61>   H                    : -8.064790            -2.411890            -9.082494
| 62>   H                    : -8.798983            -3.828442            -11.400321
| 63>   H                    : -7.035876            -3.412075            -11.068720
| 64>   H                    : -8.014309            -4.342159            -9.886195
| 65>   C                      -10.934407           -2.970035            -7.608139
| 66>   O                      -10.588801           -1.707947            -7.190822
| 67>   H                      -10.509147           -1.214420            -7.942285
| 68>   H                      -11.835404           -2.955898            -8.170487
| 69>   H                      -10.203607           -3.363992            -8.317791
| 70>   H                      -10.983227           -3.712127            -6.780344
| 71> *
| 72>
| 73>                          ****END OF INPUT****
 Total Charge           Charge          ....    0
 Multiplicity           Mult            ....    1
 Number of Electrons    NEL             ....   36
Dispersion correction           -0.001845040
FINAL SINGLE POINT ENERGY      -231.465398276023
Dispersion correction           -0.000235702
FINAL SINGLE POINT ENERGY      -115.731808639234

CARTESIAN COORDINATES (ANGSTROEM)
---------------------------------
  C     -8.020745   -3.527914  -10.654631
  O     -8.474491   -2.329523   -9.997077
  H     -8.064790   -2.411890   -9.082494
  H     -8.798983   -3.828442  -11.400321
  H     -7.035876   -3.412075  -11.068720
  H     -8.014309   -4.342159   -9.886195
  C    -10.934407   -2.970035   -7.608139
  O    -10.588801   -1.707947   -7.190822
  H    -10.509147   -1.214420   -7.942285
  H    -11.835404   -2.955898   -8.170487
  H    -10.203607   -3.363992   -8.317791
  H    -10.983227   -3.712127   -6.780344

 Multiplicity           Mult            ....    1
 Number of Electrons    NEL             ....   18
 Basis Dimension        Dim             ....  172

ORBITAL ENERGIES
----------------

  NO   OCC          E(Eh)            E(eV)
   0   2.0000     -19.225975      -523.1654
   1   2.0000     -10.308276      -280.5025
   2   2.0000      -1.163827       -31.6693
   3   2.0000      -0.799941       -21.7675
   4   2.0000      -0.629560       -17.1312
   5   2.0000      -0.547542       -14.8994
   6   2.0000      -0.534313       -14.5394
   7   2.0000      -0.437964       -11.9176
   8   2.0000      -0.371732       -10.1154
   9   0.0000       0.080656         2.1948
  10   0.0000       0.125980         3.4281
  11   0.0000       0.156066         4.2468
  12   0.0000       0.179934         4.8963
  13   0.0000       0.190478         5.1832

MULLIKEN ATOMIC CHARGES
-----------------------
   0 C :    0.000137
   1 O :    0.000378
   2 H :   -0.000131
   3 H :   -0.000553
   4 H :    0.000059
   5 H :   -0.000003
   6 C :   -0.163621
   7 O :   -0.446287
   8 H :    0.302392
   9 H :    0.104226
  10 H :    0.088244
  11 H :    0.115160
Sum of atomic charges:   -0.0000000

LOEWDIN ATOMIC CHARGES
----------------------
   0 C :   -0.003612
   1 O :   -0.003578
   2 H :   -0.002784
   3 H :   -0.000188
   4 H :   -0.000042
   5 H :   -0.001210
   6 C :   -0.407811
   7 O :   -0.012885
   8 H :    0.135199
   9 H :    0.087963
  10 H :    0.095723
  11 H :    0.113224

  Mayer bond orders larger than 0.1
B(  6-C ,  7-O ) :   0.9976 B(  6-C ,  9-H ) :   0.9841 B(  6-C , 10-H ) :   0.9807
B(  6-C , 11-H ) :   0.9725 B(  7-O ,  8-H ) :   0.9152

Dispersion correction           -0.000204643
FINAL SINGLE POINT ENERGY      -115.729822712700

DIPOLE MOMENT
-------------
                                X             Y             Z
Electronic contribution:      0.39600       1.68746       0.76603
Nuclear contribution   :     -0.47598      -1.83611      -1.41685
                        -----------------------------------------
Total Dipole Moment    :     -0.07998      -0.14865      -0.65082
                        -----------------------------------------
Magnitude (a.u.)       :      0.67235
Magnitude (Debye)      :      1.70899

Rotational constants in cm-1:     4.463635     0.878855     0.839616
Rotational constants in MHz : 133816.395892 26347.403296 25171.059185

                             ****ORCA TERMINATED NORMALLY****
TOTAL RUN TIME: 0 days 0 hours 1 minutes 6 seconds 814 msec
