                         Program Version 4.1.2  - RELEASE  -
|  1> #Run DFT-D3 single point of the dimer
|  2> ! wB97X-D3 def2-TZVP TIGHTSCF CHELPG PMODEL PAL8
|  3>
|  4> %base "16-136_DFT_AB"
|  5>
|  6> %scf
|  7> MaxIter 1000
|  8> end
|  9>
| 10> * xyz 0 1
| 11>   C                      -3.015513            4.657646             8.973627
| 12>   O                      -1.868843            4.290034             9.722191
| 13>   H                      -1.130121            4.887643             9.436925
| 14>   H                      -2.824309            4.660446             7.877721
| 15>   H                      -3.872396            3.998280             9.281944
| 16>   H                      -3.256881            5.665914             9.192009
| 17>   C                      0.073207             3.280420             4.744708
| 18>   O                      -0.777346            4.145417             5.499248
| 19>   H                      -0.465038            4.121903             6.407785
| 20>   H                      1.088714             3.540638             4.926400
| 21>   H                      0.023586             2.303060             5.157050
| 22>   H                      -0.040117            3.339934             3.648191
| 23> *
| 24>
| 25> #Run DFT-D3 single point of the molecule with dimer basis set
| 26> $new_job
| 27> %base "16-136_DFT_A"
| 28> ! wB97X-D3 def2-TZVP TIGHTSCF CHELPG PMODEL
| 29>
| 30> %scf
| 31> MaxIter 1000
| 32> end
| 33>
| 34> * xyz 0 1
| 35>   C                      -3.015513            4.657646             8.973627
| 36>   O                      -1.868843            4.290034             9.722191
| 37>   H                      -1.130121            4.887643             9.436925
| 38>   H                      -2.824309            4.660446             7.877721
| 39>   H                      -3.872396            3.998280             9.281944
| 40>   H                      -3.256881            5.665914             9.192009
| 41>   C                    : 0.073207             3.280420             4.744708
| 42>   O                    : -0.777346            4.145417             5.499248
| 43>   H                    : -0.465038            4.121903             6.407785
| 44>   H                    : 1.088714             3.540638             4.926400
| 45>   H                    : 0.023586             2.303060             5.157050
| 46>   H                    : -0.040117            3.339934             3.648191
| 47> *
| 48>
| 49> #Run DFT-D3 single point of the particle with dimer basis set
| 50> $new_job
| 51> %base "16-136_DFT_B"
| 52> ! wB97X-D3 def2-TZVP TIGHTSCF CHELPG PMODEL
| 53>
| 54> %scf
| 55> MaxIter 1000
| 56> end
| 57>
| 58> * xyz 0 1
| 59>   C                    : -3.015513            4.657646             8.973627
| 60>   O                    : -1.868843            4.290034             9.722191
| 61>   H                    : -1.130121            4.887643             9.436925
| 62>   H                    : -2.824309            4.660446             7.877721
| 63>   H                    : -3.872396            3.998280             9.281944
| 64>   H                    : -3.256881            5.665914             9.192009
| 65>   C                      0.073207             3.280420             4.744708
| 66>   O                      -0.777346            4.145417             5.499248
| 67>   H                      -0.465038            4.121903             6.407785
| 68>   H                      1.088714             3.540638             4.926400
| 69>   H                      0.023586             2.303060             5.157050
| 70>   H                      -0.040117            3.339934             3.648191
| 71> *
| 72>
| 73>                          ****END OF INPUT****
 Total Charge           Charge          ....    0
 Multiplicity           Mult            ....    1
 Number of Electrons    NEL             ....   36
Dispersion correction           -0.001135719
FINAL SINGLE POINT ENERGY      -231.464541634650
Dispersion correction           -0.000231480
FINAL SINGLE POINT ENERGY      -115.733095865654

CARTESIAN COORDINATES (ANGSTROEM)
---------------------------------
  C     -3.015513    4.657646    8.973627
  O     -1.868843    4.290034    9.722191
  H     -1.130121    4.887643    9.436925
  H     -2.824309    4.660446    7.877721
  H     -3.872396    3.998280    9.281944
  H     -3.256881    5.665914    9.192009
  C      0.073207    3.280420    4.744708
  O     -0.777346    4.145417    5.499248
  H     -0.465038    4.121903    6.407785
  H      1.088714    3.540638    4.926400
  H      0.023586    2.303060    5.157050
  H     -0.040117    3.339934    3.648191

 Multiplicity           Mult            ....    1
 Number of Electrons    NEL             ....   18
 Basis Dimension        Dim             ....  172

ORBITAL ENERGIES
----------------

  NO   OCC          E(Eh)            E(eV)
   0   2.0000     -19.228694      -523.2394
   1   2.0000     -10.308786      -280.5163
   2   2.0000      -1.131684       -30.7947
   3   2.0000      -0.800203       -21.7746
   4   2.0000      -0.611340       -16.6354
   5   2.0000      -0.545000       -14.8302
   6   2.0000      -0.525220       -14.2920
   7   2.0000      -0.437471       -11.9042
   8   2.0000      -0.370572       -10.0838
   9   0.0000       0.081131         2.2077
  10   0.0000       0.123102         3.3498
  11   0.0000       0.151967         4.1352
  12   0.0000       0.171077         4.6552
  13   0.0000       0.200267         5.4495

MULLIKEN ATOMIC CHARGES
-----------------------
   0 C :    0.001121
   1 O :    0.000030
   2 H :   -0.000017
   3 H :   -0.004813
   4 H :    0.000043
   5 H :   -0.000123
   6 C :   -0.180746
   7 O :   -0.473831
   8 H :    0.317274
   9 H :    0.104724
  10 H :    0.108572
  11 H :    0.127766
Sum of atomic charges:    0.0000000

LOEWDIN ATOMIC CHARGES
----------------------
   0 C :   -0.000857
   1 O :   -0.000073
   2 H :   -0.000290
   3 H :   -0.002478
   4 H :   -0.000002
   5 H :   -0.000010
   6 C :   -0.370334
   7 O :   -0.088938
   8 H :    0.169911
   9 H :    0.089482
  10 H :    0.090185
  11 H :    0.113403

  Mayer bond orders larger than 0.1
B(  6-C ,  7-O ) :   0.9872 B(  6-C ,  9-H ) :   0.9833 B(  6-C , 10-H ) :   0.9806
B(  6-C , 11-H ) :   0.9698 B(  7-O ,  8-H ) :   0.8963

Dispersion correction           -0.000222669
FINAL SINGLE POINT ENERGY      -115.730525284967

DIPOLE MOMENT
-------------
                                X             Y             Z
Electronic contribution:     -1.25971       1.09772       0.71918
Nuclear contribution   :      1.84508      -1.46371      -0.45696
                        -----------------------------------------
Total Dipole Moment    :      0.58537      -0.36599       0.26221
                        -----------------------------------------
Magnitude (a.u.)       :      0.73849
Magnitude (Debye)      :      1.87708

Rotational constants in cm-1:     4.432122     0.825982     0.786009
Rotational constants in MHz : 132871.677288 24762.332255 23563.970669

                             ****ORCA TERMINATED NORMALLY****
TOTAL RUN TIME: 0 days 0 hours 1 minutes 1 seconds 234 msec
