                         Program Version 4.1.2  - RELEASE  -
|  1> #Run DFT-D3 single point of the dimer
|  2> ! wB97X-D3 def2-TZVP TIGHTSCF CHELPG PMODEL PAL8
|  3>
|  4> %base "9-10_DFT_AB"
|  5>
|  6> %scf
|  7> MaxIter 1000
|  8> end
|  9>
| 10> * xyz 0 1
| 11>   C                      5.326910             4.806322             -3.533113
| 12>   O                      6.034877             3.972360             -4.447765
| 13>   H                      6.237275             3.163824             -3.960999
| 14>   H                      6.014065             5.326131             -2.833834
| 15>   H                      4.817935             5.581777             -4.157801
| 16>   H                      4.623172             4.233674             -2.922331
| 17>   C                      0.577072             7.430577             -5.325749
| 18>   O                      -0.539211            6.571745             -5.105877
| 19>   H                      -0.771812            6.328538             -6.027023
| 20>   H                      1.232494             7.362839             -4.458135
| 21>   H                      1.010095             7.216277             -6.323681
| 22>   H                      0.174260             8.464364             -5.333653
| 23> *
| 24>
| 25> #Run DFT-D3 single point of the molecule with dimer basis set
| 26> $new_job
| 27> %base "9-10_DFT_A"
| 28> ! wB97X-D3 def2-TZVP TIGHTSCF CHELPG PMODEL
| 29>
| 30> %scf
| 31> MaxIter 1000
| 32> end
| 33>
| 34> * xyz 0 1
| 35>   C                      5.326910             4.806322             -3.533113
| 36>   O                      6.034877             3.972360             -4.447765
| 37>   H                      6.237275             3.163824             -3.960999
| 38>   H                      6.014065             5.326131             -2.833834
| 39>   H                      4.817935             5.581777             -4.157801
| 40>   H                      4.623172             4.233674             -2.922331
| 41>   C                    : 0.577072             7.430577             -5.325749
| 42>   O                    : -0.539211            6.571745             -5.105877
| 43>   H                    : -0.771812            6.328538             -6.027023
| 44>   H                    : 1.232494             7.362839             -4.458135
| 45>   H                    : 1.010095             7.216277             -6.323681
| 46>   H                    : 0.174260             8.464364             -5.333653
| 47> *
| 48>
| 49> #Run DFT-D3 single point of the particle with dimer basis set
| 50> $new_job
| 51> %base "9-10_DFT_B"
| 52> ! wB97X-D3 def2-TZVP TIGHTSCF CHELPG PMODEL
| 53>
| 54> %scf
| 55> MaxIter 1000
| 56> end
| 57>
| 58> * xyz 0 1
| 59>   C                    : 5.326910             4.806322             -3.533113
| 60>   O                    : 6.034877             3.972360             -4.447765
| 61>   H                    : 6.237275             3.163824             -3.960999
| 62>   H                    : 6.014065             5.326131             -2.833834
| 63>   H                    : 4.817935             5.581777             -4.157801
| 64>   H                    : 4.623172             4.233674             -2.922331
| 65>   C                      0.577072             7.430577             -5.325749
| 66>   O                      -0.539211            6.571745             -5.105877
| 67>   H                      -0.771812            6.328538             -6.027023
| 68>   H                      1.232494             7.362839             -4.458135
| 69>   H                      1.010095             7.216277             -6.323681
| 70>   H                      0.174260             8.464364             -5.333653
| 71> *
| 72>
| 73>                          ****END OF INPUT****
 Total Charge           Charge          ....    0
 Multiplicity           Mult            ....    1
 Number of Electrons    NEL             ....   36
Dispersion correction           -0.000602437
FINAL SINGLE POINT ENERGY      -231.467083099416
Dispersion correction           -0.000242129
FINAL SINGLE POINT ENERGY      -115.735828726476

CARTESIAN COORDINATES (ANGSTROEM)
---------------------------------
  C      5.326910    4.806322   -3.533113
  O      6.034877    3.972360   -4.447765
  H      6.237275    3.163824   -3.960999
  H      6.014065    5.326131   -2.833834
  H      4.817935    5.581777   -4.157801
  H      4.623172    4.233674   -2.922331
  C      0.577072    7.430577   -5.325749
  O     -0.539211    6.571745   -5.105877
  H     -0.771812    6.328538   -6.027023
  H      1.232494    7.362839   -4.458135
  H      1.010095    7.216277   -6.323681
  H      0.174260    8.464364   -5.333653

 Multiplicity           Mult            ....    1
 Number of Electrons    NEL             ....   18
 Basis Dimension        Dim             ....  172

ORBITAL ENERGIES
----------------

  NO   OCC          E(Eh)            E(eV)
   0   2.0000     -19.229630      -523.2648
   1   2.0000     -10.316739      -280.7328
   2   2.0000      -1.132389       -30.8139
   3   2.0000      -0.786956       -21.4142
   4   2.0000      -0.607558       -16.5325
   5   2.0000      -0.534618       -14.5477
   6   2.0000      -0.526286       -14.3210
   7   2.0000      -0.444709       -12.1011
   8   2.0000      -0.367327        -9.9955
   9   0.0000       0.086338         2.3494
  10   0.0000       0.107609         2.9282
  11   0.0000       0.147202         4.0056
  12   0.0000       0.172063         4.6821
  13   0.0000       0.190836         5.1929

MULLIKEN ATOMIC CHARGES
-----------------------
   0 C :    0.000047
   1 O :   -0.000001
   2 H :   -0.000000
   3 H :   -0.000002
   4 H :   -0.000143
   5 H :   -0.000004
   6 C :   -0.175458
   7 O :   -0.464422
   8 H :    0.312147
   9 H :    0.121591
  10 H :    0.103302
  11 H :    0.102944
Sum of atomic charges:    0.0000000

LOEWDIN ATOMIC CHARGES
----------------------
   0 C :   -0.000025
   1 O :   -0.000001
   2 H :   -0.000000
   3 H :   -0.000000
   4 H :   -0.000074
   5 H :   -0.000002
   6 C :   -0.383154
   7 O :   -0.100500
   8 H :    0.181697
   9 H :    0.104426
  10 H :    0.099006
  11 H :    0.098626

  Mayer bond orders larger than 0.1
B(  6-C ,  7-O ) :   1.0001 B(  6-C ,  9-H ) :   0.9741 B(  6-C , 10-H ) :   0.9849
B(  6-C , 11-H ) :   0.9764 B(  7-O ,  8-H ) :   0.9036

Dispersion correction           -0.000220109
FINAL SINGLE POINT ENERGY      -115.730967375589

DIPOLE MOMENT
-------------
                                X             Y             Z
Electronic contribution:     -1.25172      -1.13314       0.45092
Nuclear contribution   :      1.53976       1.31578      -1.09846
                        -----------------------------------------
Total Dipole Moment    :      0.28804       0.18265      -0.64754
                        -----------------------------------------
Magnitude (a.u.)       :      0.73187
Magnitude (Debye)      :      1.86028

Rotational constants in cm-1:     4.024350     0.844947     0.800048
Rotational constants in MHz : 120646.978557 25330.875759 23984.842610

                             ****ORCA TERMINATED NORMALLY****
TOTAL RUN TIME: 0 days 0 hours 0 minutes 35 seconds 393 msec
