                         Program Version 4.1.2  - RELEASE  -
|  1> #Run DFT-D3 single point of the dimer
|  2> ! wB97X-D3 def2-TZVP TIGHTSCF CHELPG PMODEL PAL8
|  3>
|  4> %base "22-0_DFT_AB"
|  5>
|  6> %scf
|  7> MaxIter 1000
|  8> end
|  9>
| 10> * xyz 0 1
| 11>   C                      -3.366488            1.354718             8.299496
| 12>   O                      -2.747762            2.580068             8.513952
| 13>   H                      -2.097212            2.607204             7.804503
| 14>   H                      -3.091532            0.606645             9.087924
| 15>   H                      -4.464560            1.385830             8.357553
| 16>   H                      -3.098089            0.935276             7.304372
| 17>   C                      -3.152113            -1.685180            5.511687
| 18>   O                      -3.578452            -2.644021            4.578806
| 19>   H                      -2.831220            -3.224825            4.420491
| 20>   H                      -2.231712            -1.127083            5.128433
| 21>   H                      -3.887088            -1.022022            5.889255
| 22>   H                      -2.718246            -2.180419            6.352590
| 23> *
| 24>
| 25> #Run DFT-D3 single point of the molecule with dimer basis set
| 26> $new_job
| 27> %base "22-0_DFT_A"
| 28> ! wB97X-D3 def2-TZVP TIGHTSCF CHELPG PMODEL
| 29>
| 30> %scf
| 31> MaxIter 1000
| 32> end
| 33>
| 34> * xyz 0 1
| 35>   C                      -3.366488            1.354718             8.299496
| 36>   O                      -2.747762            2.580068             8.513952
| 37>   H                      -2.097212            2.607204             7.804503
| 38>   H                      -3.091532            0.606645             9.087924
| 39>   H                      -4.464560            1.385830             8.357553
| 40>   H                      -3.098089            0.935276             7.304372
| 41>   C                    : -3.152113            -1.685180            5.511687
| 42>   O                    : -3.578452            -2.644021            4.578806
| 43>   H                    : -2.831220            -3.224825            4.420491
| 44>   H                    : -2.231712            -1.127083            5.128433
| 45>   H                    : -3.887088            -1.022022            5.889255
| 46>   H                    : -2.718246            -2.180419            6.352590
| 47> *
| 48>
| 49> #Run DFT-D3 single point of the particle with dimer basis set
| 50> $new_job
| 51> %base "22-0_DFT_B"
| 52> ! wB97X-D3 def2-TZVP TIGHTSCF CHELPG PMODEL
| 53>
| 54> %scf
| 55> MaxIter 1000
| 56> end
| 57>
| 58> * xyz 0 1
| 59>   C                    : -3.366488            1.354718             8.299496
| 60>   O                    : -2.747762            2.580068             8.513952
| 61>   H                    : -2.097212            2.607204             7.804503
| 62>   H                    : -3.091532            0.606645             9.087924
| 63>   H                    : -4.464560            1.385830             8.357553
| 64>   H                    : -3.098089            0.935276             7.304372
| 65>   C                      -3.152113            -1.685180            5.511687
| 66>   O                      -3.578452            -2.644021            4.578806
| 67>   H                      -2.831220            -3.224825            4.420491
| 68>   H                      -2.231712            -1.127083            5.128433
| 69>   H                      -3.887088            -1.022022            5.889255
| 70>   H                      -2.718246            -2.180419            6.352590
| 71> *
| 72>
| 73>                          ****END OF INPUT****
 Total Charge           Charge          ....    0
 Multiplicity           Mult            ....    1
 Number of Electrons    NEL             ....   36
Dispersion correction           -0.001255997
FINAL SINGLE POINT ENERGY      -231.462822832497
Dispersion correction           -0.000239875
FINAL SINGLE POINT ENERGY      -115.732549673804

CARTESIAN COORDINATES (ANGSTROEM)
---------------------------------
  C     -3.366488    1.354718    8.299496
  O     -2.747762    2.580068    8.513952
  H     -2.097212    2.607204    7.804503
  H     -3.091532    0.606645    9.087924
  H     -4.464560    1.385830    8.357553
  H     -3.098089    0.935276    7.304372
  C     -3.152113   -1.685180    5.511687
  O     -3.578452   -2.644021    4.578806
  H     -2.831220   -3.224825    4.420491
  H     -2.231712   -1.127083    5.128433
  H     -3.887088   -1.022022    5.889255
  H     -2.718246   -2.180419    6.352590

 Multiplicity           Mult            ....    1
 Number of Electrons    NEL             ....   18
 Basis Dimension        Dim             ....  172

ORBITAL ENERGIES
----------------

  NO   OCC          E(Eh)            E(eV)
   0   2.0000     -19.230852      -523.2981
   1   2.0000     -10.311663      -280.5946
   2   2.0000      -1.140908       -31.0457
   3   2.0000      -0.797383       -21.6979
   4   2.0000      -0.616317       -16.7708
   5   2.0000      -0.542123       -14.7519
   6   2.0000      -0.530113       -14.4251
   7   2.0000      -0.439171       -11.9505
   8   2.0000      -0.367331        -9.9956
   9   0.0000       0.082327         2.2402
  10   0.0000       0.113576         3.0906
  11   0.0000       0.150451         4.0940
  12   0.0000       0.164815         4.4849
  13   0.0000       0.185262         5.0412

MULLIKEN ATOMIC CHARGES
-----------------------
   0 C :   -0.000681
   1 O :   -0.000006
   2 H :   -0.000007
   3 H :    0.000019
   4 H :    0.000032
   5 H :    0.000340
   6 C :   -0.177454
   7 O :   -0.467222
   8 H :    0.316942
   9 H :    0.091128
  10 H :    0.131800
  11 H :    0.105110
Sum of atomic charges:    0.0000000

LOEWDIN ATOMIC CHARGES
----------------------
   0 C :   -0.001307
   1 O :   -0.000011
   2 H :   -0.000004
   3 H :   -0.000062
   4 H :   -0.000074
   5 H :   -0.002164
   6 C :   -0.393045
   7 O :   -0.069336
   8 H :    0.172498
   9 H :    0.102035
  10 H :    0.101627
  11 H :    0.089845

  Mayer bond orders larger than 0.1
B(  6-C ,  7-O ) :   1.0016 B(  6-C ,  9-H ) :   0.9771 B(  6-C , 10-H ) :   0.9709
B(  6-C , 11-H ) :   0.9810 B(  7-O ,  8-H ) :   0.8979

Dispersion correction           -0.000223718
FINAL SINGLE POINT ENERGY      -115.729846142742

DIPOLE MOMENT
-------------
                                X             Y             Z
Electronic contribution:     -0.93839      -1.13835      -1.23463
Nuclear contribution   :      1.56634       1.12266       1.53129
                        -----------------------------------------
Total Dipole Moment    :      0.62795      -0.01569       0.29666
                        -----------------------------------------
Magnitude (a.u.)       :      0.69467
Magnitude (Debye)      :      1.76572

Rotational constants in cm-1:     4.378010     0.843313     0.803573
Rotational constants in MHz : 131249.448295 25281.901981 24090.508603

                             ****ORCA TERMINATED NORMALLY****
TOTAL RUN TIME: 0 days 0 hours 0 minutes 53 seconds 131 msec
