                         Program Version 4.1.2  - RELEASE  -
|  1> #Run DFT-D3 single point of the dimer
|  2> ! wB97X-D3 def2-TZVP TIGHTSCF CHELPG PMODEL PAL8
|  3>
|  4> %base "19-185_DFT_AB"
|  5>
|  6> %scf
|  7> MaxIter 1000
|  8> end
|  9>
| 10> * xyz 0 1
| 11>   C                      -1.953081            0.452528             -0.283085
| 12>   O                      -2.417833            1.621188             0.379749
| 13>   H                      -2.843032            1.413224             1.202916
| 14>   H                      -2.778291            -0.140561            -0.668962
| 15>   H                      -1.331316            0.778315             -1.150622
| 16>   H                      -1.219793            -0.095008            0.314135
| 17>   C                      -4.309679            0.139881             3.274753
| 18>   O                      -3.997063            1.453591             2.977763
| 19>   H                      -4.850942            1.963425             2.857807
| 20>   H                      -4.736021            -0.485051            2.500253
| 21>   H                      -3.409156            -0.389718            3.671393
| 22>   H                      -5.119480            0.125753             4.057112
| 23> *
| 24>
| 25> #Run DFT-D3 single point of the molecule with dimer basis set
| 26> $new_job
| 27> %base "19-185_DFT_A"
| 28> ! wB97X-D3 def2-TZVP TIGHTSCF CHELPG PMODEL
| 29>
| 30> %scf
| 31> MaxIter 1000
| 32> end
| 33>
| 34> * xyz 0 1
| 35>   C                      -1.953081            0.452528             -0.283085
| 36>   O                      -2.417833            1.621188             0.379749
| 37>   H                      -2.843032            1.413224             1.202916
| 38>   H                      -2.778291            -0.140561            -0.668962
| 39>   H                      -1.331316            0.778315             -1.150622
| 40>   H                      -1.219793            -0.095008            0.314135
| 41>   C                    : -4.309679            0.139881             3.274753
| 42>   O                    : -3.997063            1.453591             2.977763
| 43>   H                    : -4.850942            1.963425             2.857807
| 44>   H                    : -4.736021            -0.485051            2.500253
| 45>   H                    : -3.409156            -0.389718            3.671393
| 46>   H                    : -5.119480            0.125753             4.057112
| 47> *
| 48>
| 49> #Run DFT-D3 single point of the particle with dimer basis set
| 50> $new_job
| 51> %base "19-185_DFT_B"
| 52> ! wB97X-D3 def2-TZVP TIGHTSCF CHELPG PMODEL
| 53>
| 54> %scf
| 55> MaxIter 1000
| 56> end
| 57>
| 58> * xyz 0 1
| 59>   C                    : -1.953081            0.452528             -0.283085
| 60>   O                    : -2.417833            1.621188             0.379749
| 61>   H                    : -2.843032            1.413224             1.202916
| 62>   H                    : -2.778291            -0.140561            -0.668962
| 63>   H                    : -1.331316            0.778315             -1.150622
| 64>   H                    : -1.219793            -0.095008            0.314135
| 65>   C                      -4.309679            0.139881             3.274753
| 66>   O                      -3.997063            1.453591             2.977763
| 67>   H                      -4.850942            1.963425             2.857807
| 68>   H                      -4.736021            -0.485051            2.500253
| 69>   H                      -3.409156            -0.389718            3.671393
| 70>   H                      -5.119480            0.125753             4.057112
| 71> *
| 72>
| 73>                          ****END OF INPUT****
 Total Charge           Charge          ....    0
 Multiplicity           Mult            ....    1
 Number of Electrons    NEL             ....   36
Dispersion correction           -0.001696455
FINAL SINGLE POINT ENERGY      -231.473967230850
Dispersion correction           -0.000255279
FINAL SINGLE POINT ENERGY      -115.735266785755

CARTESIAN COORDINATES (ANGSTROEM)
---------------------------------
  C     -1.953081    0.452528   -0.283085
  O     -2.417833    1.621188    0.379749
  H     -2.843032    1.413224    1.202916
  H     -2.778291   -0.140561   -0.668962
  H     -1.331316    0.778315   -1.150622
  H     -1.219793   -0.095008    0.314135
  C     -4.309679    0.139881    3.274753
  O     -3.997063    1.453591    2.977763
  H     -4.850942    1.963425    2.857807
  H     -4.736021   -0.485051    2.500253
  H     -3.409156   -0.389718    3.671393
  H     -5.119480    0.125753    4.057112

 Multiplicity           Mult            ....    1
 Number of Electrons    NEL             ....   18
 Basis Dimension        Dim             ....  172

ORBITAL ENERGIES
----------------

  NO   OCC          E(Eh)            E(eV)
   0   2.0000     -19.237561      -523.4807
   1   2.0000     -10.315254      -280.6923
   2   2.0000      -1.141098       -31.0508
   3   2.0000      -0.788773       -21.4636
   4   2.0000      -0.617647       -16.8070
   5   2.0000      -0.537585       -14.6284
   6   2.0000      -0.529441       -14.4068
   7   2.0000      -0.431892       -11.7524
   8   2.0000      -0.369994       -10.0680
   9   0.0000       0.091454         2.4886
  10   0.0000       0.116068         3.1584
  11   0.0000       0.150390         4.0923
  12   0.0000       0.187616         5.1053
  13   0.0000       0.190666         5.1883

MULLIKEN ATOMIC CHARGES
-----------------------
   0 C :    0.000596
   1 O :   -0.002328
   2 H :   -0.006441
   3 H :   -0.000128
   4 H :   -0.000022
   5 H :   -0.000116
   6 C :   -0.161643
   7 O :   -0.466243
   8 H :    0.321553
   9 H :    0.103177
  10 H :    0.118939
  11 H :    0.092657
Sum of atomic charges:   -0.0000000

LOEWDIN ATOMIC CHARGES
----------------------
   0 C :   -0.000608
   1 O :   -0.004115
   2 H :   -0.030936
   3 H :   -0.000059
   4 H :   -0.000013
   5 H :   -0.000027
   6 C :   -0.421398
   7 O :   -0.041412
   8 H :    0.197714
   9 H :    0.088472
  10 H :    0.113811
  11 H :    0.098573

  Mayer bond orders larger than 0.1
B(  6-C ,  7-O ) :   0.9931 B(  6-C ,  9-H ) :   0.9651 B(  6-C , 10-H ) :   0.9753
B(  6-C , 11-H ) :   0.9810 B(  7-O ,  8-H ) :   0.8869

Dispersion correction           -0.000243180
FINAL SINGLE POINT ENERGY      -115.731806057491

DIPOLE MOMENT
-------------
                                X             Y             Z
Electronic contribution:      0.64809       1.74837      -0.50231
Nuclear contribution   :     -1.30220      -1.91509       0.54409
                        -----------------------------------------
Total Dipole Moment    :     -0.65411      -0.16672       0.04178
                        -----------------------------------------
Magnitude (a.u.)       :      0.67631
Magnitude (Debye)      :      1.71905

Rotational constants in cm-1:     4.226976     0.855951     0.811874
Rotational constants in MHz : 126721.546674 25660.763738 24339.356826

                             ****ORCA TERMINATED NORMALLY****
TOTAL RUN TIME: 0 days 0 hours 1 minutes 48 seconds 348 msec
