                         Program Version 4.1.2  - RELEASE  -
|  1> #Run DFT-D3 single point of the dimer
|  2> ! wB97X-D3 def2-TZVP TIGHTSCF CHELPG PMODEL PAL8
|  3>
|  4> %base "9-121_DFT_AB"
|  5>
|  6> %scf
|  7> MaxIter 1000
|  8> end
|  9>
| 10> * xyz 0 1
| 11>   C                      -10.376710           0.560321             10.733533
| 12>   O                      -10.489828           -0.487567            9.837764
| 13>   H                      -9.996989            -0.133378            9.085985
| 14>   H                      -11.348913           0.771899             11.190426
| 15>   H                      -9.592105            0.376492             11.515323
| 16>   H                      -10.203514           1.569726             10.237749
| 17>   C                      -10.058210           -2.708673            7.810617
| 18>   O                      -9.294148            -2.970554            8.993616
| 19>   H                      -9.375292            -2.210584            9.623569
| 20>   H                      -11.093265           -2.415261            8.091974
| 21>   H                      -9.757479            -1.929562            7.148214
| 22>   H                      -9.995265            -3.549433            7.215435
| 23> *
| 24>
| 25> #Run DFT-D3 single point of the molecule with dimer basis set
| 26> $new_job
| 27> %base "9-121_DFT_A"
| 28> ! wB97X-D3 def2-TZVP TIGHTSCF CHELPG PMODEL
| 29>
| 30> %scf
| 31> MaxIter 1000
| 32> end
| 33>
| 34> * xyz 0 1
| 35>   C                      -10.376710           0.560321             10.733533
| 36>   O                      -10.489828           -0.487567            9.837764
| 37>   H                      -9.996989            -0.133378            9.085985
| 38>   H                      -11.348913           0.771899             11.190426
| 39>   H                      -9.592105            0.376492             11.515323
| 40>   H                      -10.203514           1.569726             10.237749
| 41>   C                    : -10.058210           -2.708673            7.810617
| 42>   O                    : -9.294148            -2.970554            8.993616
| 43>   H                    : -9.375292            -2.210584            9.623569
| 44>   H                    : -11.093265           -2.415261            8.091974
| 45>   H                    : -9.757479            -1.929562            7.148214
| 46>   H                    : -9.995265            -3.549433            7.215435
| 47> *
| 48>
| 49> #Run DFT-D3 single point of the particle with dimer basis set
| 50> $new_job
| 51> %base "9-121_DFT_B"
| 52> ! wB97X-D3 def2-TZVP TIGHTSCF CHELPG PMODEL
| 53>
| 54> %scf
| 55> MaxIter 1000
| 56> end
| 57>
| 58> * xyz 0 1
| 59>   C                    : -10.376710           0.560321             10.733533
| 60>   O                    : -10.489828           -0.487567            9.837764
| 61>   H                    : -9.996989            -0.133378            9.085985
| 62>   H                    : -11.348913           0.771899             11.190426
| 63>   H                    : -9.592105            0.376492             11.515323
| 64>   H                    : -10.203514           1.569726             10.237749
| 65>   C                      -10.058210           -2.708673            7.810617
| 66>   O                      -9.294148            -2.970554            8.993616
| 67>   H                      -9.375292            -2.210584            9.623569
| 68>   H                      -11.093265           -2.415261            8.091974
| 69>   H                      -9.757479            -1.929562            7.148214
| 70>   H                      -9.995265            -3.549433            7.215435
| 71> *
| 72>
| 73>                          ****END OF INPUT****
 Total Charge           Charge          ....    0
 Multiplicity           Mult            ....    1
 Number of Electrons    NEL             ....   36
Dispersion correction           -0.001921001
FINAL SINGLE POINT ENERGY      -231.464591750872
Dispersion correction           -0.000235811
FINAL SINGLE POINT ENERGY      -115.730245343129

CARTESIAN COORDINATES (ANGSTROEM)
---------------------------------
  C    -10.376710    0.560321   10.733533
  O    -10.489828   -0.487567    9.837764
  H     -9.996989   -0.133378    9.085985
  H    -11.348913    0.771899   11.190426
  H     -9.592105    0.376492   11.515323
  H    -10.203514    1.569726   10.237749
  C    -10.058210   -2.708673    7.810617
  O     -9.294148   -2.970554    8.993616
  H     -9.375292   -2.210584    9.623569
  H    -11.093265   -2.415261    8.091974
  H     -9.757479   -1.929562    7.148214
  H     -9.995265   -3.549433    7.215435

 Multiplicity           Mult            ....    1
 Number of Electrons    NEL             ....   18
 Basis Dimension        Dim             ....  172

ORBITAL ENERGIES
----------------

  NO   OCC          E(Eh)            E(eV)
   0   2.0000     -19.233911      -523.3813
   1   2.0000     -10.306933      -280.4659
   2   2.0000      -1.124118       -30.5888
   3   2.0000      -0.803029       -21.8515
   4   2.0000      -0.609860       -16.5951
   5   2.0000      -0.542336       -14.7577
   6   2.0000      -0.519696       -14.1416
   7   2.0000      -0.439421       -11.9572
   8   2.0000      -0.372200       -10.1281
   9   0.0000       0.068839         1.8732
  10   0.0000       0.129635         3.5276
  11   0.0000       0.146179         3.9777
  12   0.0000       0.179331         4.8798
  13   0.0000       0.186927         5.0866

MULLIKEN ATOMIC CHARGES
-----------------------
   0 C :   -0.001616
   1 O :   -0.005038
   2 H :    0.000078
   3 H :    0.000016
   4 H :   -0.000083
   5 H :    0.000036
   6 C :   -0.168268
   7 O :   -0.484225
   8 H :    0.319347
   9 H :    0.100198
  10 H :    0.105885
  11 H :    0.133670
Sum of atomic charges:    0.0000000

LOEWDIN ATOMIC CHARGES
----------------------
   0 C :   -0.002117
   1 O :   -0.018512
   2 H :   -0.005029
   3 H :   -0.000050
   4 H :   -0.000193
   5 H :   -0.000024
   6 C :   -0.362433
   7 O :   -0.090090
   8 H :    0.189671
   9 H :    0.101821
  10 H :    0.090613
  11 H :    0.096343

  Mayer bond orders larger than 0.1
B(  6-C ,  7-O ) :   0.9900 B(  6-C ,  9-H ) :   0.9849 B(  6-C , 10-H ) :   0.9668
B(  6-C , 11-H ) :   0.9774 B(  7-O ,  8-H ) :   0.8989

Dispersion correction           -0.000258975
FINAL SINGLE POINT ENERGY      -115.729439402487

DIPOLE MOMENT
-------------
                                X             Y             Z
Electronic contribution:      1.07215      -0.51137       1.41361
Nuclear contribution   :     -1.41657       1.08699      -1.52209
                        -----------------------------------------
Total Dipole Moment    :     -0.34442       0.57562      -0.10848
                        -----------------------------------------
Magnitude (a.u.)       :      0.67951
Magnitude (Debye)      :      1.72717

Rotational constants in cm-1:     4.491249     0.813824     0.776898
Rotational constants in MHz : 134644.260983 24397.833195 23290.827490

                             ****ORCA TERMINATED NORMALLY****
TOTAL RUN TIME: 0 days 0 hours 0 minutes 46 seconds 349 msec
