                         Program Version 4.1.2  - RELEASE  -
|  1> #Run DFT-D3 single point of the dimer
|  2> ! wB97X-D3 def2-TZVP TIGHTSCF CHELPG PMODEL PAL8
|  3>
|  4> %base "15-29_DFT_AB"
|  5>
|  6> %scf
|  7> MaxIter 1000
|  8> end
|  9>
| 10> * xyz 0 1
| 11>   C                      4.420336             -3.631376            1.742753
| 12>   O                      3.162538             -4.207617            1.389367
| 13>   H                      2.908502             -4.657569            2.203867
| 14>   H                      4.810058             -2.966194            0.971924
| 15>   H                      4.419981             -3.156620            2.638260
| 16>   H                      5.257324             -4.385752            1.882703
| 17>   C                      2.398260             -5.869834            6.434853
| 18>   O                      2.376605             -6.984504            5.571263
| 19>   H                      3.233743             -7.105075            5.180101
| 20>   H                      1.883316             -5.041345            5.975365
| 21>   H                      1.853889             -6.033390            7.371049
| 22>   H                      3.466878             -5.646524            6.583676
| 23> *
| 24>
| 25> #Run DFT-D3 single point of the molecule with dimer basis set
| 26> $new_job
| 27> %base "15-29_DFT_A"
| 28> ! wB97X-D3 def2-TZVP TIGHTSCF CHELPG PMODEL
| 29>
| 30> %scf
| 31> MaxIter 1000
| 32> end
| 33>
| 34> * xyz 0 1
| 35>   C                      4.420336             -3.631376            1.742753
| 36>   O                      3.162538             -4.207617            1.389367
| 37>   H                      2.908502             -4.657569            2.203867
| 38>   H                      4.810058             -2.966194            0.971924
| 39>   H                      4.419981             -3.156620            2.638260
| 40>   H                      5.257324             -4.385752            1.882703
| 41>   C                    : 2.398260             -5.869834            6.434853
| 42>   O                    : 2.376605             -6.984504            5.571263
| 43>   H                    : 3.233743             -7.105075            5.180101
| 44>   H                    : 1.883316             -5.041345            5.975365
| 45>   H                    : 1.853889             -6.033390            7.371049
| 46>   H                    : 3.466878             -5.646524            6.583676
| 47> *
| 48>
| 49> #Run DFT-D3 single point of the particle with dimer basis set
| 50> $new_job
| 51> %base "15-29_DFT_B"
| 52> ! wB97X-D3 def2-TZVP TIGHTSCF CHELPG PMODEL
| 53>
| 54> %scf
| 55> MaxIter 1000
| 56> end
| 57>
| 58> * xyz 0 1
| 59>   C                    : 4.420336             -3.631376            1.742753
| 60>   O                    : 3.162538             -4.207617            1.389367
| 61>   H                    : 2.908502             -4.657569            2.203867
| 62>   H                    : 4.810058             -2.966194            0.971924
| 63>   H                    : 4.419981             -3.156620            2.638260
| 64>   H                    : 5.257324             -4.385752            1.882703
| 65>   C                      2.398260             -5.869834            6.434853
| 66>   O                      2.376605             -6.984504            5.571263
| 67>   H                      3.233743             -7.105075            5.180101
| 68>   H                      1.883316             -5.041345            5.975365
| 69>   H                      1.853889             -6.033390            7.371049
| 70>   H                      3.466878             -5.646524            6.583676
| 71> *
| 72>
| 73>                          ****END OF INPUT****
 Total Charge           Charge          ....    0
 Multiplicity           Mult            ....    1
 Number of Electrons    NEL             ....   36
Dispersion correction           -0.000788350
FINAL SINGLE POINT ENERGY      -231.461065266406
Dispersion correction           -0.000239924
FINAL SINGLE POINT ENERGY      -115.728318939082

CARTESIAN COORDINATES (ANGSTROEM)
---------------------------------
  C      4.420336   -3.631376    1.742753
  O      3.162538   -4.207617    1.389367
  H      2.908502   -4.657569    2.203867
  H      4.810058   -2.966194    0.971924
  H      4.419981   -3.156620    2.638260
  H      5.257324   -4.385752    1.882703
  C      2.398260   -5.869834    6.434853
  O      2.376605   -6.984504    5.571263
  H      3.233743   -7.105075    5.180101
  H      1.883316   -5.041345    5.975365
  H      1.853889   -6.033390    7.371049
  H      3.466878   -5.646524    6.583676

 Multiplicity           Mult            ....    1
 Number of Electrons    NEL             ....   18
 Basis Dimension        Dim             ....  172

ORBITAL ENERGIES
----------------

  NO   OCC          E(Eh)            E(eV)
   0   2.0000     -19.225052      -523.1403
   1   2.0000     -10.312208      -280.6095
   2   2.0000      -1.137258       -30.9464
   3   2.0000      -0.796130       -21.6638
   4   2.0000      -0.610369       -16.6090
   5   2.0000      -0.544145       -14.8069
   6   2.0000      -0.535357       -14.5678
   7   2.0000      -0.427585       -11.6352
   8   2.0000      -0.370291       -10.0761
   9   0.0000       0.079761         2.1704
  10   0.0000       0.114760         3.1228
  11   0.0000       0.155468         4.2305
  12   0.0000       0.164559         4.4779
  13   0.0000       0.194971         5.3054

MULLIKEN ATOMIC CHARGES
-----------------------
   0 C :    0.000108
   1 O :    0.000098
   2 H :   -0.000879
   3 H :   -0.000001
   4 H :   -0.000027
   5 H :   -0.000019
   6 C :   -0.152347
   7 O :   -0.477077
   8 H :    0.316652
   9 H :    0.104509
  10 H :    0.112887
  11 H :    0.096097
Sum of atomic charges:    0.0000000

LOEWDIN ATOMIC CHARGES
----------------------
   0 C :   -0.000026
   1 O :   -0.000014
   2 H :   -0.000439
   3 H :   -0.000001
   4 H :   -0.000009
   5 H :   -0.000003
   6 C :   -0.381186
   7 O :   -0.076213
   8 H :    0.161971
   9 H :    0.093111
  10 H :    0.102944
  11 H :    0.099863

  Mayer bond orders larger than 0.1
B(  6-C ,  7-O ) :   1.0076 B(  6-C ,  9-H ) :   0.9764 B(  6-C , 10-H ) :   0.9727
B(  6-C , 11-H ) :   0.9947 B(  7-O ,  8-H ) :   0.9009

Dispersion correction           -0.000233836
FINAL SINGLE POINT ENERGY      -115.732559654450

DIPOLE MOMENT
-------------
                                X             Y             Z
Electronic contribution:     -0.16438      -1.42660      -0.99985
Nuclear contribution   :      0.73285       1.79597       1.09604
                        -----------------------------------------
Total Dipole Moment    :      0.56847       0.36937       0.09618
                        -----------------------------------------
Magnitude (a.u.)       :      0.68472
Magnitude (Debye)      :      1.74041

Rotational constants in cm-1:     4.312176     0.843969     0.805385
Rotational constants in MHz : 129275.794482 25301.563646 24144.844599

                             ****ORCA TERMINATED NORMALLY****
TOTAL RUN TIME: 0 days 0 hours 0 minutes 59 seconds 318 msec
