                         Program Version 4.1.2  - RELEASE  -
|  1> #Run DFT-D3 single point of the dimer
|  2> ! wB97X-D3 def2-TZVP TIGHTSCF CHELPG PMODEL PAL8
|  3>
|  4> %base "8-149_DFT_AB"
|  5>
|  6> %scf
|  7> MaxIter 1000
|  8> end
|  9>
| 10> * xyz 0 1
| 11>   C                      6.699430             -5.657267            -0.260360
| 12>   O                      6.373375             -4.714772            0.735711
| 13>   H                      6.683855             -5.044267            1.572619
| 14>   H                      6.083675             -5.429119            -1.111410
| 15>   H                      7.752837             -5.548398            -0.640329
| 16>   H                      6.603195             -6.639985            0.122955
| 17>   C                      9.307550             -8.636157            -1.716876
| 18>   O                      8.193745             -7.755172            -1.640064
| 19>   H                      8.446839             -6.892723            -1.979143
| 20>   H                      9.091930             -9.797385            -1.573535
| 21>   H                      9.827304             -8.621018            -2.702855
| 22>   H                      9.990039             -8.322772            -0.902030
| 23> *
| 24>
| 25> #Run DFT-D3 single point of the molecule with dimer basis set
| 26> $new_job
| 27> %base "8-149_DFT_A"
| 28> ! wB97X-D3 def2-TZVP TIGHTSCF CHELPG PMODEL
| 29>
| 30> %scf
| 31> MaxIter 1000
| 32> end
| 33>
| 34> * xyz 0 1
| 35>   C                      6.699430             -5.657267            -0.260360
| 36>   O                      6.373375             -4.714772            0.735711
| 37>   H                      6.683855             -5.044267            1.572619
| 38>   H                      6.083675             -5.429119            -1.111410
| 39>   H                      7.752837             -5.548398            -0.640329
| 40>   H                      6.603195             -6.639985            0.122955
| 41>   C                    : 9.307550             -8.636157            -1.716876
| 42>   O                    : 8.193745             -7.755172            -1.640064
| 43>   H                    : 8.446839             -6.892723            -1.979143
| 44>   H                    : 9.091930             -9.797385            -1.573535
| 45>   H                    : 9.827304             -8.621018            -2.702855
| 46>   H                    : 9.990039             -8.322772            -0.902030
| 47> *
| 48>
| 49> #Run DFT-D3 single point of the particle with dimer basis set
| 50> $new_job
| 51> %base "8-149_DFT_B"
| 52> ! wB97X-D3 def2-TZVP TIGHTSCF CHELPG PMODEL
| 53>
| 54> %scf
| 55> MaxIter 1000
| 56> end
| 57>
| 58> * xyz 0 1
| 59>   C                    : 6.699430             -5.657267            -0.260360
| 60>   O                    : 6.373375             -4.714772            0.735711
| 61>   H                    : 6.683855             -5.044267            1.572619
| 62>   H                    : 6.083675             -5.429119            -1.111410
| 63>   H                    : 7.752837             -5.548398            -0.640329
| 64>   H                    : 6.603195             -6.639985            0.122955
| 65>   C                      9.307550             -8.636157            -1.716876
| 66>   O                      8.193745             -7.755172            -1.640064
| 67>   H                      8.446839             -6.892723            -1.979143
| 68>   H                      9.091930             -9.797385            -1.573535
| 69>   H                      9.827304             -8.621018            -2.702855
| 70>   H                      9.990039             -8.322772            -0.902030
| 71> *
| 72>
| 73>                          ****END OF INPUT****
 Total Charge           Charge          ....    0
 Multiplicity           Mult            ....    1
 Number of Electrons    NEL             ....   36
Dispersion correction           -0.001661691
FINAL SINGLE POINT ENERGY      -231.461035278343
Dispersion correction           -0.000233774
FINAL SINGLE POINT ENERGY      -115.734448290308

CARTESIAN COORDINATES (ANGSTROEM)
---------------------------------
  C      6.699430   -5.657267   -0.260360
  O      6.373375   -4.714772    0.735711
  H      6.683855   -5.044267    1.572619
  H      6.083675   -5.429119   -1.111410
  H      7.752837   -5.548398   -0.640329
  H      6.603195   -6.639985    0.122955
  C      9.307550   -8.636157   -1.716876
  O      8.193745   -7.755172   -1.640064
  H      8.446839   -6.892723   -1.979143
  H      9.091930   -9.797385   -1.573535
  H      9.827304   -8.621018   -2.702855
  H      9.990039   -8.322772   -0.902030

 Multiplicity           Mult            ....    1
 Number of Electrons    NEL             ....   18
 Basis Dimension        Dim             ....  172

ORBITAL ENERGIES
----------------

  NO   OCC          E(Eh)            E(eV)
   0   2.0000     -19.233319      -523.3652
   1   2.0000     -10.328615      -281.0559
   2   2.0000      -1.135429       -30.8966
   3   2.0000      -0.787641       -21.4328
   4   2.0000      -0.608513       -16.5585
   5   2.0000      -0.543828       -14.7983
   6   2.0000      -0.520251       -14.1568
   7   2.0000      -0.424124       -11.5410
   8   2.0000      -0.374865       -10.2006
   9   0.0000       0.089165         2.4263
  10   0.0000       0.127385         3.4663
  11   0.0000       0.145624         3.9626
  12   0.0000       0.183292         4.9876
  13   0.0000       0.190559         5.1854

MULLIKEN ATOMIC CHARGES
-----------------------
   0 C :    0.010927
   1 O :   -0.000291
   2 H :   -0.000161
   3 H :   -0.001797
   4 H :   -0.016622
   5 H :   -0.006043
   6 C :   -0.192915
   7 O :   -0.459887
   8 H :    0.323183
   9 H :    0.120804
  10 H :    0.110107
  11 H :    0.112697
Sum of atomic charges:    0.0000000

LOEWDIN ATOMIC CHARGES
----------------------
   0 C :   -0.022867
   1 O :   -0.000087
   2 H :   -0.000019
   3 H :   -0.000801
   4 H :   -0.010627
   5 H :   -0.007657
   6 C :   -0.397887
   7 O :   -0.056721
   8 H :    0.176597
   9 H :    0.124106
  10 H :    0.097520
  11 H :    0.098443

  Mayer bond orders larger than 0.1
B(  6-C ,  7-O ) :   0.9927 B(  6-C ,  9-H ) :   0.9665 B(  6-C , 10-H ) :   0.9699
B(  6-C , 11-H ) :   0.9786 B(  7-O ,  8-H ) :   0.8892

Dispersion correction           -0.000266665
FINAL SINGLE POINT ENERGY      -115.727521160124

DIPOLE MOMENT
-------------
                                X             Y             Z
Electronic contribution:     -1.56758       1.08765       0.11210
Nuclear contribution   :      2.18198      -0.89776      -0.38111
                        -----------------------------------------
Total Dipole Moment    :      0.61440       0.18989      -0.26900
                        -----------------------------------------
Magnitude (a.u.)       :      0.69707
Magnitude (Debye)      :      1.77182

Rotational constants in cm-1:     4.157749     0.803855     0.779527
Rotational constants in MHz : 124646.184829 24098.977894 23369.620955

                             ****ORCA TERMINATED NORMALLY****
TOTAL RUN TIME: 0 days 0 hours 0 minutes 46 seconds 373 msec
