                         Program Version 4.1.2  - RELEASE  -
|  1> #Run DFT-D3 single point of the dimer
|  2> ! wB97X-D3 def2-TZVP TIGHTSCF CHELPG PMODEL PAL8
|  3>
|  4> %base "17-208_DFT_AB"
|  5>
|  6> %scf
|  7> MaxIter 1000
|  8> end
|  9>
| 10> * xyz 0 1
| 11>   C                      8.014316             -5.941950            -6.617654
| 12>   O                      8.114571             -4.769030            -7.390481
| 13>   H                      8.823657             -5.032683            -7.996795
| 14>   H                      8.737297             -5.974831            -5.831176
| 15>   H                      7.019085             -6.186425            -6.241785
| 16>   H                      8.308500             -6.885411            -7.121500
| 17>   C                      9.154491             -5.845564            -10.477063
| 18>   O                      7.756078             -6.012211            -10.442176
| 19>   H                      7.597626             -6.885404            -9.950277
| 20>   H                      9.469208             -5.933636            -9.461083
| 21>   H                      9.699800             -6.617383            -11.095434
| 22>   H                      9.348946             -4.905729            -10.969171
| 23> *
| 24>
| 25> #Run DFT-D3 single point of the molecule with dimer basis set
| 26> $new_job
| 27> %base "17-208_DFT_A"
| 28> ! wB97X-D3 def2-TZVP TIGHTSCF CHELPG PMODEL
| 29>
| 30> %scf
| 31> MaxIter 1000
| 32> end
| 33>
| 34> * xyz 0 1
| 35>   C                      8.014316             -5.941950            -6.617654
| 36>   O                      8.114571             -4.769030            -7.390481
| 37>   H                      8.823657             -5.032683            -7.996795
| 38>   H                      8.737297             -5.974831            -5.831176
| 39>   H                      7.019085             -6.186425            -6.241785
| 40>   H                      8.308500             -6.885411            -7.121500
| 41>   C                    : 9.154491             -5.845564            -10.477063
| 42>   O                    : 7.756078             -6.012211            -10.442176
| 43>   H                    : 7.597626             -6.885404            -9.950277
| 44>   H                    : 9.469208             -5.933636            -9.461083
| 45>   H                    : 9.699800             -6.617383            -11.095434
| 46>   H                    : 9.348946             -4.905729            -10.969171
| 47> *
| 48>
| 49> #Run DFT-D3 single point of the particle with dimer basis set
| 50> $new_job
| 51> %base "17-208_DFT_B"
| 52> ! wB97X-D3 def2-TZVP TIGHTSCF CHELPG PMODEL
| 53>
| 54> %scf
| 55> MaxIter 1000
| 56> end
| 57>
| 58> * xyz 0 1
| 59>   C                    : 8.014316             -5.941950            -6.617654
| 60>   O                    : 8.114571             -4.769030            -7.390481
| 61>   H                    : 8.823657             -5.032683            -7.996795
| 62>   H                    : 8.737297             -5.974831            -5.831176
| 63>   H                    : 7.019085             -6.186425            -6.241785
| 64>   H                    : 8.308500             -6.885411            -7.121500
| 65>   C                      9.154491             -5.845564            -10.477063
| 66>   O                      7.756078             -6.012211            -10.442176
| 67>   H                      7.597626             -6.885404            -9.950277
| 68>   H                      9.469208             -5.933636            -9.461083
| 69>   H                      9.699800             -6.617383            -11.095434
| 70>   H                      9.348946             -4.905729            -10.969171
| 71> *
| 72>
| 73>                          ****END OF INPUT****
 Total Charge           Charge          ....    0
 Multiplicity           Mult            ....    1
 Number of Electrons    NEL             ....   36
Dispersion correction           -0.002151543
FINAL SINGLE POINT ENERGY      -231.457723148550
Dispersion correction           -0.000234469
FINAL SINGLE POINT ENERGY      -115.728763892639

CARTESIAN COORDINATES (ANGSTROEM)
---------------------------------
  C      8.014316   -5.941950   -6.617654
  O      8.114571   -4.769030   -7.390481
  H      8.823657   -5.032683   -7.996795
  H      8.737297   -5.974831   -5.831176
  H      7.019085   -6.186425   -6.241785
  H      8.308500   -6.885411   -7.121500
  C      9.154491   -5.845564  -10.477063
  O      7.756078   -6.012211  -10.442176
  H      7.597626   -6.885404   -9.950277
  H      9.469208   -5.933636   -9.461083
  H      9.699800   -6.617383  -11.095434
  H      9.348946   -4.905729  -10.969171

 Multiplicity           Mult            ....    1
 Number of Electrons    NEL             ....   18
 Basis Dimension        Dim             ....  172

ORBITAL ENERGIES
----------------

  NO   OCC          E(Eh)            E(eV)
   0   2.0000     -19.233753      -523.3770
   1   2.0000     -10.311095      -280.5792
   2   2.0000      -1.130047       -30.7501
   3   2.0000      -0.788490       -21.4559
   4   2.0000      -0.606651       -16.5078
   5   2.0000      -0.548665       -14.9299
   6   2.0000      -0.520495       -14.1634
   7   2.0000      -0.436163       -11.8686
   8   2.0000      -0.369186       -10.0461
   9   0.0000       0.077661         2.1133
  10   0.0000       0.126633         3.4458
  11   0.0000       0.151900         4.1334
  12   0.0000       0.178334         4.8527
  13   0.0000       0.188308         5.1241

MULLIKEN ATOMIC CHARGES
-----------------------
   0 C :   -0.005189
   1 O :   -0.000244
   2 H :    0.005520
   3 H :   -0.000043
   4 H :    0.000463
   5 H :   -0.000373
   6 C :   -0.161903
   7 O :   -0.471317
   8 H :    0.314381
   9 H :    0.100451
  10 H :    0.097636
  11 H :    0.120618
Sum of atomic charges:    0.0000000

LOEWDIN ATOMIC CHARGES
----------------------
   0 C :   -0.003965
   1 O :   -0.002738
   2 H :   -0.014058
   3 H :   -0.000051
   4 H :   -0.000038
   5 H :   -0.001063
   6 C :   -0.385554
   7 O :   -0.093052
   8 H :    0.199722
   9 H :    0.095991
  10 H :    0.097775
  11 H :    0.107032

  Mayer bond orders larger than 0.1
B(  6-C ,  7-O ) :   0.9961 B(  6-C ,  9-H ) :   0.9856 B(  6-C , 10-H ) :   0.9724
B(  6-C , 11-H ) :   0.9748 B(  7-O ,  8-H ) :   0.8945

Dispersion correction           -0.000223929
FINAL SINGLE POINT ENERGY      -115.730587537066

DIPOLE MOMENT
-------------
                                X             Y             Z
Electronic contribution:     -1.75803       0.02525      -0.00834
Nuclear contribution   :      2.19818      -0.47576       0.28921
                        -----------------------------------------
Total Dipole Moment    :      0.44015      -0.45051       0.28088
                        -----------------------------------------
Magnitude (a.u.)       :      0.68962
Magnitude (Debye)      :      1.75287

Rotational constants in cm-1:     4.125473     0.848279     0.809656
Rotational constants in MHz : 123678.583766 25430.776747 24272.867241

                             ****ORCA TERMINATED NORMALLY****
TOTAL RUN TIME: 0 days 0 hours 1 minutes 8 seconds 312 msec
