                         Program Version 4.1.2  - RELEASE  -
|  1> #Run DFT-D3 single point of the dimer
|  2> ! wB97X-D3 def2-TZVP TIGHTSCF CHELPG PMODEL PAL8
|  3>
|  4> %base "4-182_DFT_AB"
|  5>
|  6> %scf
|  7> MaxIter 1000
|  8> end
|  9>
| 10> * xyz 0 1
| 11>   C                      -5.470393            -1.876097            1.136380
| 12>   O                      -5.868612            -2.423977            2.388435
| 13>   H                      -6.835133            -2.315790            2.387192
| 14>   H                      -4.375722            -2.094982            0.894261
| 15>   H                      -6.064162            -2.282764            0.341504
| 16>   H                      -5.615935            -0.781423            1.121355
| 17>   C                      -3.552211            -4.834770            3.819683
| 18>   O                      -4.778089            -4.462391            4.451841
| 19>   H                      -5.284277            -3.878392            3.918249
| 20>   H                      -3.697186            -5.050471            2.760904
| 21>   H                      -2.818581            -3.985915            3.893653
| 22>   H                      -3.025181            -5.654431            4.308589
| 23> *
| 24>
| 25> #Run DFT-D3 single point of the molecule with dimer basis set
| 26> $new_job
| 27> %base "4-182_DFT_A"
| 28> ! wB97X-D3 def2-TZVP TIGHTSCF CHELPG PMODEL
| 29>
| 30> %scf
| 31> MaxIter 1000
| 32> end
| 33>
| 34> * xyz 0 1
| 35>   C                      -5.470393            -1.876097            1.136380
| 36>   O                      -5.868612            -2.423977            2.388435
| 37>   H                      -6.835133            -2.315790            2.387192
| 38>   H                      -4.375722            -2.094982            0.894261
| 39>   H                      -6.064162            -2.282764            0.341504
| 40>   H                      -5.615935            -0.781423            1.121355
| 41>   C                    : -3.552211            -4.834770            3.819683
| 42>   O                    : -4.778089            -4.462391            4.451841
| 43>   H                    : -5.284277            -3.878392            3.918249
| 44>   H                    : -3.697186            -5.050471            2.760904
| 45>   H                    : -2.818581            -3.985915            3.893653
| 46>   H                    : -3.025181            -5.654431            4.308589
| 47> *
| 48>
| 49> #Run DFT-D3 single point of the particle with dimer basis set
| 50> $new_job
| 51> %base "4-182_DFT_B"
| 52> ! wB97X-D3 def2-TZVP TIGHTSCF CHELPG PMODEL
| 53>
| 54> %scf
| 55> MaxIter 1000
| 56> end
| 57>
| 58> * xyz 0 1
| 59>   C                    : -5.470393            -1.876097            1.136380
| 60>   O                    : -5.868612            -2.423977            2.388435
| 61>   H                    : -6.835133            -2.315790            2.387192
| 62>   H                    : -4.375722            -2.094982            0.894261
| 63>   H                    : -6.064162            -2.282764            0.341504
| 64>   H                    : -5.615935            -0.781423            1.121355
| 65>   C                      -3.552211            -4.834770            3.819683
| 66>   O                      -4.778089            -4.462391            4.451841
| 67>   H                      -5.284277            -3.878392            3.918249
| 68>   H                      -3.697186            -5.050471            2.760904
| 69>   H                      -2.818581            -3.985915            3.893653
| 70>   H                      -3.025181            -5.654431            4.308589
| 71> *
| 72>
| 73>                          ****END OF INPUT****
 Total Charge           Charge          ....    0
 Multiplicity           Mult            ....    1
 Number of Electrons    NEL             ....   36
Dispersion correction           -0.001636495
FINAL SINGLE POINT ENERGY      -231.474652517491
Dispersion correction           -0.000234322
FINAL SINGLE POINT ENERGY      -115.734052297687

CARTESIAN COORDINATES (ANGSTROEM)
---------------------------------
  C     -5.470393   -1.876097    1.136380
  O     -5.868612   -2.423977    2.388435
  H     -6.835133   -2.315790    2.387192
  H     -4.375722   -2.094982    0.894261
  H     -6.064162   -2.282764    0.341504
  H     -5.615935   -0.781423    1.121355
  C     -3.552211   -4.834770    3.819683
  O     -4.778089   -4.462391    4.451841
  H     -5.284277   -3.878392    3.918249
  H     -3.697186   -5.050471    2.760904
  H     -2.818581   -3.985915    3.893653
  H     -3.025181   -5.654431    4.308589

 Multiplicity           Mult            ....    1
 Number of Electrons    NEL             ....   18
 Basis Dimension        Dim             ....  172

ORBITAL ENERGIES
----------------

  NO   OCC          E(Eh)            E(eV)
   0   2.0000     -19.227483      -523.2064
   1   2.0000     -10.318149      -280.7711
   2   2.0000      -1.133524       -30.8448
   3   2.0000      -0.798872       -21.7384
   4   2.0000      -0.611245       -16.6328
   5   2.0000      -0.538890       -14.6639
   6   2.0000      -0.528427       -14.3792
   7   2.0000      -0.431239       -11.7346
   8   2.0000      -0.371755       -10.1160
   9   0.0000       0.069319         1.8863
  10   0.0000       0.130223         3.5436
  11   0.0000       0.137643         3.7455
  12   0.0000       0.178785         4.8650
  13   0.0000       0.187121         5.0918

MULLIKEN ATOMIC CHARGES
-----------------------
   0 C :   -0.000800
   1 O :   -0.002773
   2 H :   -0.000390
   3 H :   -0.000025
   4 H :    0.000032
   5 H :    0.000024
   6 C :   -0.165009
   7 O :   -0.478403
   8 H :    0.313157
   9 H :    0.108298
  10 H :    0.099202
  11 H :    0.126687
Sum of atomic charges:    0.0000000

LOEWDIN ATOMIC CHARGES
----------------------
   0 C :   -0.001095
   1 O :   -0.010896
   2 H :   -0.000953
   3 H :   -0.000121
   4 H :   -0.000020
   5 H :   -0.000022
   6 C :   -0.373146
   7 O :   -0.072761
   8 H :    0.155825
   9 H :    0.095304
  10 H :    0.099999
  11 H :    0.107886

  Mayer bond orders larger than 0.1
B(  6-C ,  7-O ) :   0.9847 B(  6-C ,  9-H ) :   0.9769 B(  6-C , 10-H ) :   0.9785
B(  6-C , 11-H ) :   0.9715 B(  7-O ,  8-H ) :   0.9084

Dispersion correction           -0.000257516
FINAL SINGLE POINT ENERGY      -115.733760648728

DIPOLE MOMENT
-------------
                                X             Y             Z
Electronic contribution:     -1.60310       0.27254       0.89744
Nuclear contribution   :      1.78272      -0.06397      -1.50552
                        -----------------------------------------
Total Dipole Moment    :      0.17962       0.20857      -0.60808
                        -----------------------------------------
Magnitude (a.u.)       :      0.66748
Magnitude (Debye)      :      1.69660

Rotational constants in cm-1:     4.380722     0.807861     0.781420
Rotational constants in MHz : 131330.746777 24219.066838 23426.376230

                             ****ORCA TERMINATED NORMALLY****
TOTAL RUN TIME: 0 days 0 hours 1 minutes 35 seconds 215 msec
