                         Program Version 4.1.2  - RELEASE  -
|  1> #Run DFT-D3 single point of the dimer
|  2> ! wB97X-D3 def2-TZVP TIGHTSCF CHELPG PMODEL PAL8
|  3>
|  4> %base "8-39_DFT_AB"
|  5>
|  6> %scf
|  7> MaxIter 1000
|  8> end
|  9>
| 10> * xyz 0 1
| 11>   C                      -5.732268            -10.125279           -1.351968
| 12>   O                      -6.836174            -9.413016            -0.708576
| 13>   H                      -7.613012            -9.982425            -0.455737
| 14>   H                      -4.905482            -9.401689            -1.548393
| 15>   H                      -5.473831            -11.022509           -0.746062
| 16>   H                      -6.049753            -10.514197           -2.342592
| 17>   C                      -10.411031           -6.497166            -1.425488
| 18>   O                      -10.103061           -6.686543            -0.088535
| 19>   H                      -9.212419            -6.309215            0.118963
| 20>   H                      -11.253937           -5.788915            -1.566383
| 21>   H                      -9.499957            -5.949211            -1.949446
| 22>   H                      -10.717005           -7.407105            -1.952296
| 23> *
| 24>
| 25> #Run DFT-D3 single point of the molecule with dimer basis set
| 26> $new_job
| 27> %base "8-39_DFT_A"
| 28> ! wB97X-D3 def2-TZVP TIGHTSCF CHELPG PMODEL
| 29>
| 30> %scf
| 31> MaxIter 1000
| 32> end
| 33>
| 34> * xyz 0 1
| 35>   C                      -5.732268            -10.125279           -1.351968
| 36>   O                      -6.836174            -9.413016            -0.708576
| 37>   H                      -7.613012            -9.982425            -0.455737
| 38>   H                      -4.905482            -9.401689            -1.548393
| 39>   H                      -5.473831            -11.022509           -0.746062
| 40>   H                      -6.049753            -10.514197           -2.342592
| 41>   C                    : -10.411031           -6.497166            -1.425488
| 42>   O                    : -10.103061           -6.686543            -0.088535
| 43>   H                    : -9.212419            -6.309215            0.118963
| 44>   H                    : -11.253937           -5.788915            -1.566383
| 45>   H                    : -9.499957            -5.949211            -1.949446
| 46>   H                    : -10.717005           -7.407105            -1.952296
| 47> *
| 48>
| 49> #Run DFT-D3 single point of the particle with dimer basis set
| 50> $new_job
| 51> %base "8-39_DFT_B"
| 52> ! wB97X-D3 def2-TZVP TIGHTSCF CHELPG PMODEL
| 53>
| 54> %scf
| 55> MaxIter 1000
| 56> end
| 57>
| 58> * xyz 0 1
| 59>   C                    : -5.732268            -10.125279           -1.351968
| 60>   O                    : -6.836174            -9.413016            -0.708576
| 61>   H                    : -7.613012            -9.982425            -0.455737
| 62>   H                    : -4.905482            -9.401689            -1.548393
| 63>   H                    : -5.473831            -11.022509           -0.746062
| 64>   H                    : -6.049753            -10.514197           -2.342592
| 65>   C                      -10.411031           -6.497166            -1.425488
| 66>   O                      -10.103061           -6.686543            -0.088535
| 67>   H                      -9.212419            -6.309215            0.118963
| 68>   H                      -11.253937           -5.788915            -1.566383
| 69>   H                      -9.499957            -5.949211            -1.949446
| 70>   H                      -10.717005           -7.407105            -1.952296
| 71> *
| 72>
| 73>                          ****END OF INPUT****
 Total Charge           Charge          ....    0
 Multiplicity           Mult            ....    1
 Number of Electrons    NEL             ....   36
Dispersion correction           -0.000858508
FINAL SINGLE POINT ENERGY      -231.459749194475
Dispersion correction           -0.000279408
FINAL SINGLE POINT ENERGY      -115.730454223015

CARTESIAN COORDINATES (ANGSTROEM)
---------------------------------
  C     -5.732268  -10.125279   -1.351968
  O     -6.836174   -9.413016   -0.708576
  H     -7.613012   -9.982425   -0.455737
  H     -4.905482   -9.401689   -1.548393
  H     -5.473831  -11.022509   -0.746062
  H     -6.049753  -10.514197   -2.342592
  C    -10.411031   -6.497166   -1.425488
  O    -10.103061   -6.686543   -0.088535
  H     -9.212419   -6.309215    0.118963
  H    -11.253937   -5.788915   -1.566383
  H     -9.499957   -5.949211   -1.949446
  H    -10.717005   -7.407105   -1.952296

 Multiplicity           Mult            ....    1
 Number of Electrons    NEL             ....   18
 Basis Dimension        Dim             ....  172

ORBITAL ENERGIES
----------------

  NO   OCC          E(Eh)            E(eV)
   0   2.0000     -19.233787      -523.3780
   1   2.0000     -10.322777      -280.8970
   2   2.0000      -1.140278       -31.0286
   3   2.0000      -0.786377       -21.3984
   4   2.0000      -0.610469       -16.6117
   5   2.0000      -0.541346       -14.7308
   6   2.0000      -0.532220       -14.4824
   7   2.0000      -0.421044       -11.4572
   8   2.0000      -0.370451       -10.0805
   9   0.0000       0.084295         2.2938
  10   0.0000       0.104375         2.8402
  11   0.0000       0.151474         4.1218
  12   0.0000       0.163044         4.4367
  13   0.0000       0.193718         5.2713

MULLIKEN ATOMIC CHARGES
-----------------------
   0 C :   -0.000033
   1 O :   -0.000165
   2 H :   -0.000457
   3 H :    0.000004
   4 H :    0.000000
   5 H :   -0.000001
   6 C :   -0.164425
   7 O :   -0.471550
   8 H :    0.328765
   9 H :    0.103452
  10 H :    0.090783
  11 H :    0.113627
Sum of atomic charges:    0.0000000

LOEWDIN ATOMIC CHARGES
----------------------
   0 C :   -0.000013
   1 O :   -0.000229
   2 H :   -0.000360
   3 H :   -0.000000
   4 H :   -0.000000
   5 H :   -0.000001
   6 C :   -0.421124
   7 O :   -0.072773
   8 H :    0.191407
   9 H :    0.096838
  10 H :    0.107728
  11 H :    0.098528

  Mayer bond orders larger than 0.1
B(  6-C ,  7-O ) :   1.0121 B(  6-C ,  9-H ) :   0.9717 B(  6-C , 10-H ) :   0.9902
B(  6-C , 11-H ) :   0.9704 B(  7-O ,  8-H ) :   0.8877

Dispersion correction           -0.000257718
FINAL SINGLE POINT ENERGY      -115.727868458816

DIPOLE MOMENT
-------------
                                X             Y             Z
Electronic contribution:      0.23700      -0.47750       1.85681
Nuclear contribution   :      0.21274       0.79132      -2.20608
                        -----------------------------------------
Total Dipole Moment    :      0.44974       0.31383      -0.34927
                        -----------------------------------------
Magnitude (a.u.)       :      0.65019
Magnitude (Debye)      :      1.65265

Rotational constants in cm-1:     4.095181     0.850910     0.807112
Rotational constants in MHz : 122770.443330 25509.653754 24196.608077

                             ****ORCA TERMINATED NORMALLY****
TOTAL RUN TIME: 0 days 0 hours 0 minutes 43 seconds 479 msec
