                         Program Version 4.1.2  - RELEASE  -
|  1> #Run DFT-D3 single point of the dimer
|  2> ! wB97X-D3 def2-TZVP TIGHTSCF CHELPG PMODEL PAL8
|  3>
|  4> %base "14-30_DFT_AB"
|  5>
|  6> %scf
|  7> MaxIter 1000
|  8> end
|  9>
| 10> * xyz 0 1
| 11>   C                      -0.612086            2.931693             -2.166030
| 12>   O                      -1.917891            3.394526             -2.096503
| 13>   H                      -2.283379            3.362468             -1.200627
| 14>   H                      -0.456620            1.838111             -2.061463
| 15>   H                      -0.083063            3.269453             -3.069938
| 16>   H                      -0.006313            3.238354             -1.311755
| 17>   C                      3.401683             4.641253             -4.329762
| 18>   O                      4.757997             4.366267             -3.982675
| 19>   H                      4.675292             3.575779             -3.482763
| 20>   H                      3.087055             3.877497             -4.999281
| 21>   H                      2.753994             4.612296             -3.402515
| 22>   H                      3.272593             5.629788             -4.755901
| 23> *
| 24>
| 25> #Run DFT-D3 single point of the molecule with dimer basis set
| 26> $new_job
| 27> %base "14-30_DFT_A"
| 28> ! wB97X-D3 def2-TZVP TIGHTSCF CHELPG PMODEL
| 29>
| 30> %scf
| 31> MaxIter 1000
| 32> end
| 33>
| 34> * xyz 0 1
| 35>   C                      -0.612086            2.931693             -2.166030
| 36>   O                      -1.917891            3.394526             -2.096503
| 37>   H                      -2.283379            3.362468             -1.200627
| 38>   H                      -0.456620            1.838111             -2.061463
| 39>   H                      -0.083063            3.269453             -3.069938
| 40>   H                      -0.006313            3.238354             -1.311755
| 41>   C                    : 3.401683             4.641253             -4.329762
| 42>   O                    : 4.757997             4.366267             -3.982675
| 43>   H                    : 4.675292             3.575779             -3.482763
| 44>   H                    : 3.087055             3.877497             -4.999281
| 45>   H                    : 2.753994             4.612296             -3.402515
| 46>   H                    : 3.272593             5.629788             -4.755901
| 47> *
| 48>
| 49> #Run DFT-D3 single point of the particle with dimer basis set
| 50> $new_job
| 51> %base "14-30_DFT_B"
| 52> ! wB97X-D3 def2-TZVP TIGHTSCF CHELPG PMODEL
| 53>
| 54> %scf
| 55> MaxIter 1000
| 56> end
| 57>
| 58> * xyz 0 1
| 59>   C                    : -0.612086            2.931693             -2.166030
| 60>   O                    : -1.917891            3.394526             -2.096503
| 61>   H                    : -2.283379            3.362468             -1.200627
| 62>   H                    : -0.456620            1.838111             -2.061463
| 63>   H                    : -0.083063            3.269453             -3.069938
| 64>   H                    : -0.006313            3.238354             -1.311755
| 65>   C                      3.401683             4.641253             -4.329762
| 66>   O                      4.757997             4.366267             -3.982675
| 67>   H                      4.675292             3.575779             -3.482763
| 68>   H                      3.087055             3.877497             -4.999281
| 69>   H                      2.753994             4.612296             -3.402515
| 70>   H                      3.272593             5.629788             -4.755901
| 71> *
| 72>
| 73>                          ****END OF INPUT****
 Total Charge           Charge          ....    0
 Multiplicity           Mult            ....    1
 Number of Electrons    NEL             ....   36
Dispersion correction           -0.000885380
FINAL SINGLE POINT ENERGY      -231.465334124004
Dispersion correction           -0.000258881
FINAL SINGLE POINT ENERGY      -115.732075408574

CARTESIAN COORDINATES (ANGSTROEM)
---------------------------------
  C     -0.612086    2.931693   -2.166030
  O     -1.917891    3.394526   -2.096503
  H     -2.283379    3.362468   -1.200627
  H     -0.456620    1.838111   -2.061463
  H     -0.083063    3.269453   -3.069938
  H     -0.006313    3.238354   -1.311755
  C      3.401683    4.641253   -4.329762
  O      4.757997    4.366267   -3.982675
  H      4.675292    3.575779   -3.482763
  H      3.087055    3.877497   -4.999281
  H      2.753994    4.612296   -3.402515
  H      3.272593    5.629788   -4.755901

 Multiplicity           Mult            ....    1
 Number of Electrons    NEL             ....   18
 Basis Dimension        Dim             ....  172

ORBITAL ENERGIES
----------------

  NO   OCC          E(Eh)            E(eV)
   0   2.0000     -19.227564      -523.2086
   1   2.0000     -10.313941      -280.6566
   2   2.0000      -1.140110       -31.0240
   3   2.0000      -0.794625       -21.6228
   4   2.0000      -0.607140       -16.5211
   5   2.0000      -0.548115       -14.9150
   6   2.0000      -0.526778       -14.3344
   7   2.0000      -0.439443       -11.9579
   8   2.0000      -0.373604       -10.1663
   9   0.0000       0.079585         2.1656
  10   0.0000       0.116126         3.1599
  11   0.0000       0.144018         3.9189
  12   0.0000       0.173713         4.7270
  13   0.0000       0.183321         4.9884

MULLIKEN ATOMIC CHARGES
-----------------------
   0 C :    0.000442
   1 O :   -0.000007
   2 H :   -0.000000
   3 H :   -0.000054
   4 H :   -0.000899
   5 H :   -0.000154
   6 C :   -0.177593
   7 O :   -0.464710
   8 H :    0.309682
   9 H :    0.111761
  10 H :    0.098700
  11 H :    0.122832
Sum of atomic charges:    0.0000000

LOEWDIN ATOMIC CHARGES
----------------------
   0 C :   -0.000522
   1 O :   -0.000006
   2 H :   -0.000000
   3 H :   -0.000005
   4 H :   -0.000758
   5 H :   -0.000108
   6 C :   -0.374199
   7 O :   -0.078502
   8 H :    0.156538
   9 H :    0.089995
  10 H :    0.101662
  11 H :    0.105904

  Mayer bond orders larger than 0.1
B(  6-C ,  7-O ) :   0.9910 B(  6-C ,  9-H ) :   0.9791 B(  6-C , 10-H ) :   0.9812
B(  6-C , 11-H ) :   0.9702 B(  7-O ,  8-H ) :   0.9083

Dispersion correction           -0.000215111
FINAL SINGLE POINT ENERGY      -115.732946194151

DIPOLE MOMENT
-------------
                                X             Y             Z
Electronic contribution:      1.79229      -0.17710       0.25367
Nuclear contribution   :     -2.38204      -0.19959      -0.09158
                        -----------------------------------------
Total Dipole Moment    :     -0.58975      -0.37669       0.16208
                        -----------------------------------------
Magnitude (a.u.)       :      0.71831
Magnitude (Debye)      :      1.82581

Rotational constants in cm-1:     4.247968     0.830374     0.800986
Rotational constants in MHz : 127350.871773 24893.990209 24012.943355

                             ****ORCA TERMINATED NORMALLY****
TOTAL RUN TIME: 0 days 0 hours 1 minutes 9 seconds 780 msec
