                         Program Version 4.1.2  - RELEASE  -
|  1> #Run DFT-D3 single point of the dimer
|  2> ! wB97X-D3 def2-TZVP TIGHTSCF  CHELPG PAL8
|  3>
|  4> %base "11_charges"
|  5>
|  6> %scf
|  7> MaxIter 1000
|  8> end
|  9> %output
| 10>   Print[ P_Mayer ] 1
| 11>   Print[ P_NatPop ] 1
| 12>   Print[ P_Hirshfeld ] 1
| 13>   Print[ P_Mulliken ] 1
| 14>   Print [ P_Loewdin ] 1
| 15> end
| 16>
| 17> * xyz 0 1
| 18>   C                      10.008196            4.376804             -6.407265
| 19>   O                      10.055552            4.368433             -5.012027
| 20>   H                      10.870353            4.851511             -4.725430
| 21>   H                      10.949198            4.676054             -6.831511
| 22>   H                      9.591929             3.439033             -6.792692
| 23>   H                      9.222293             5.097563             -6.667388
| 24> *
| 25>
| 26>                          ****END OF INPUT****

CARTESIAN COORDINATES (ANGSTROEM)
---------------------------------
  C     10.008196    4.376804   -6.407265
  O     10.055552    4.368433   -5.012027
  H     10.870353    4.851511   -4.725430
  H     10.949198    4.676054   -6.831511
  H      9.591929    3.439033   -6.792692
  H      9.222293    5.097563   -6.667388

 Total Charge           Charge          ....    0
 Multiplicity           Mult            ....    1
 Number of Electrons    NEL             ....   18
 Basis Dimension        Dim             ....   86

ORBITAL ENERGIES
----------------

  NO   OCC          E(Eh)            E(eV)
   0   2.0000     -19.228935      -523.2459
   1   2.0000     -10.308983      -280.5217
   2   2.0000      -1.135225       -30.8910
   3   2.0000      -0.791699       -21.5432
   4   2.0000      -0.612705       -16.6725
   5   2.0000      -0.537400       -14.6234
   6   2.0000      -0.532956       -14.5025
   7   2.0000      -0.436367       -11.8742
   8   2.0000      -0.363620        -9.8946
   9   0.0000       0.109686         2.9847
  10   0.0000       0.157768         4.2931
  11   0.0000       0.198287         5.3957
  12   0.0000       0.208414         5.6712
  13   0.0000       0.235020         6.3952

MULLIKEN ATOMIC CHARGES
-----------------------
   0 C :   -0.158001
   1 O :   -0.473156
   2 H :    0.317965
   3 H :    0.103218
   4 H :    0.109065
   5 H :    0.100909
Sum of atomic charges:    0.0000000

LOEWDIN ATOMIC CHARGES
----------------------
   0 C :   -0.399100
   1 O :   -0.082294
   2 H :    0.187513
   3 H :    0.091822
   4 H :    0.103753
   5 H :    0.098305

  Mayer bond orders larger than 0.1
B(  0-C ,  1-O ) :   1.0082 B(  0-C ,  3-H ) :   0.9836 B(  0-C ,  4-H ) :   0.9743
B(  0-C ,  5-H ) :   0.9837 B(  1-O ,  2-H ) :   0.8949

Dispersion correction           -0.000230069
FINAL SINGLE POINT ENERGY      -115.731206721722

DIPOLE MOMENT
-------------
                                X             Y             Z
Electronic contribution:      0.10227      -0.15880       1.74640
Nuclear contribution   :      0.40422       0.47213      -2.10237
                        -----------------------------------------
Total Dipole Moment    :      0.50649       0.31333      -0.35597
                        -----------------------------------------
Magnitude (a.u.)       :      0.69385
Magnitude (Debye)      :      1.76362

Rotational constants in cm-1:     4.230229     0.860782     0.816088
Rotational constants in MHz : 126819.068490 25805.584656 24465.710565

                             ****ORCA TERMINATED NORMALLY****
TOTAL RUN TIME: 0 days 0 hours 0 minutes 42 seconds 668 msec
