                         Program Version 4.1.2  - RELEASE  -
|  1> #Run DFT-D3 single point of the dimer
|  2> ! wB97X-D3 def2-TZVP TIGHTSCF CHELPG PMODEL PAL8
|  3>
|  4> %base "14-90_DFT_AB"
|  5>
|  6> %scf
|  7> MaxIter 1000
|  8> end
|  9>
| 10> * xyz 0 1
| 11>   C                      -4.858137            8.794378             -2.162719
| 12>   O                      -5.057893            9.023676             -0.762485
| 13>   H                      -4.277961            8.800261             -0.211867
| 14>   H                      -5.459045            7.976104             -2.597022
| 15>   H                      -5.076426            9.725379             -2.688449
| 16>   H                      -3.806476            8.543483             -2.442663
| 17>   C                      -4.073277            7.976176             -7.110372
| 18>   O                      -5.078021            7.769096             -8.089968
| 19>   H                      -5.291997            8.628323             -8.440307
| 20>   H                      -4.462552            8.605275             -6.311199
| 21>   H                      -3.792457            7.025304             -6.538516
| 22>   H                      -3.206535            8.432150             -7.580872
| 23> *
| 24>
| 25> #Run DFT-D3 single point of the molecule with dimer basis set
| 26> $new_job
| 27> %base "14-90_DFT_A"
| 28> ! wB97X-D3 def2-TZVP TIGHTSCF CHELPG PMODEL
| 29>
| 30> %scf
| 31> MaxIter 1000
| 32> end
| 33>
| 34> * xyz 0 1
| 35>   C                      -4.858137            8.794378             -2.162719
| 36>   O                      -5.057893            9.023676             -0.762485
| 37>   H                      -4.277961            8.800261             -0.211867
| 38>   H                      -5.459045            7.976104             -2.597022
| 39>   H                      -5.076426            9.725379             -2.688449
| 40>   H                      -3.806476            8.543483             -2.442663
| 41>   C                    : -4.073277            7.976176             -7.110372
| 42>   O                    : -5.078021            7.769096             -8.089968
| 43>   H                    : -5.291997            8.628323             -8.440307
| 44>   H                    : -4.462552            8.605275             -6.311199
| 45>   H                    : -3.792457            7.025304             -6.538516
| 46>   H                    : -3.206535            8.432150             -7.580872
| 47> *
| 48>
| 49> #Run DFT-D3 single point of the particle with dimer basis set
| 50> $new_job
| 51> %base "14-90_DFT_B"
| 52> ! wB97X-D3 def2-TZVP TIGHTSCF CHELPG PMODEL
| 53>
| 54> %scf
| 55> MaxIter 1000
| 56> end
| 57>
| 58> * xyz 0 1
| 59>   C                    : -4.858137            8.794378             -2.162719
| 60>   O                    : -5.057893            9.023676             -0.762485
| 61>   H                    : -4.277961            8.800261             -0.211867
| 62>   H                    : -5.459045            7.976104             -2.597022
| 63>   H                    : -5.076426            9.725379             -2.688449
| 64>   H                    : -3.806476            8.543483             -2.442663
| 65>   C                      -4.073277            7.976176             -7.110372
| 66>   O                      -5.078021            7.769096             -8.089968
| 67>   H                      -5.291997            8.628323             -8.440307
| 68>   H                      -4.462552            8.605275             -6.311199
| 69>   H                      -3.792457            7.025304             -6.538516
| 70>   H                      -3.206535            8.432150             -7.580872
| 71> *
| 72>
| 73>                          ****END OF INPUT****
 Total Charge           Charge          ....    0
 Multiplicity           Mult            ....    1
 Number of Electrons    NEL             ....   36
Dispersion correction           -0.000809160
FINAL SINGLE POINT ENERGY      -231.465893645601
Dispersion correction           -0.000282954
FINAL SINGLE POINT ENERGY      -115.732705626446

CARTESIAN COORDINATES (ANGSTROEM)
---------------------------------
  C     -4.858137    8.794378   -2.162719
  O     -5.057893    9.023676   -0.762485
  H     -4.277961    8.800261   -0.211867
  H     -5.459045    7.976104   -2.597022
  H     -5.076426    9.725379   -2.688449
  H     -3.806476    8.543483   -2.442663
  C     -4.073277    7.976176   -7.110372
  O     -5.078021    7.769096   -8.089968
  H     -5.291997    8.628323   -8.440307
  H     -4.462552    8.605275   -6.311199
  H     -3.792457    7.025304   -6.538516
  H     -3.206535    8.432150   -7.580872

 Multiplicity           Mult            ....    1
 Number of Electrons    NEL             ....   18
 Basis Dimension        Dim             ....  172

ORBITAL ENERGIES
----------------

  NO   OCC          E(Eh)            E(eV)
   0   2.0000     -19.228718      -523.2400
   1   2.0000     -10.317177      -280.7447
   2   2.0000      -1.137211       -30.9451
   3   2.0000      -0.792044       -21.5526
   4   2.0000      -0.607797       -16.5390
   5   2.0000      -0.549778       -14.9602
   6   2.0000      -0.522266       -14.2116
   7   2.0000      -0.429595       -11.6899
   8   2.0000      -0.373960       -10.1760
   9   0.0000       0.080932         2.2023
  10   0.0000       0.116610         3.1731
  11   0.0000       0.140520         3.8237
  12   0.0000       0.169357         4.6084
  13   0.0000       0.192091         5.2271

MULLIKEN ATOMIC CHARGES
-----------------------
   0 C :    0.000074
   1 O :   -0.000006
   2 H :   -0.000001
   3 H :   -0.000047
   4 H :   -0.000135
   5 H :   -0.000093
   6 C :   -0.174274
   7 O :   -0.470638
   8 H :    0.314246
   9 H :    0.106222
  10 H :    0.117762
  11 H :    0.106889
Sum of atomic charges:   -0.0000000

LOEWDIN ATOMIC CHARGES
----------------------
   0 C :   -0.000344
   1 O :   -0.000003
   2 H :   -0.000001
   3 H :   -0.000049
   4 H :   -0.000099
   5 H :   -0.000056
   6 C :   -0.388834
   7 O :   -0.080177
   8 H :    0.164435
   9 H :    0.093030
  10 H :    0.118741
  11 H :    0.093358

  Mayer bond orders larger than 0.1
B(  6-C ,  7-O ) :   0.9922 B(  6-C ,  9-H ) :   0.9782 B(  6-C , 10-H ) :   0.9691
B(  6-C , 11-H ) :   0.9782 B(  7-O ,  8-H ) :   0.9000

Dispersion correction           -0.000233022
FINAL SINGLE POINT ENERGY      -115.732980942602

DIPOLE MOMENT
-------------
                                X             Y             Z
Electronic contribution:     -1.24060      -0.40124      -1.29422
Nuclear contribution   :      1.49783       1.03102       1.47632
                        -----------------------------------------
Total Dipole Moment    :      0.25723       0.62978       0.18211
                        -----------------------------------------
Magnitude (a.u.)       :      0.70424
Magnitude (Debye)      :      1.79003

Rotational constants in cm-1:     4.231905     0.826209     0.796608
Rotational constants in MHz : 126869.334019 24769.126655 23881.716134

                             ****ORCA TERMINATED NORMALLY****
TOTAL RUN TIME: 0 days 0 hours 1 minutes 9 seconds 837 msec
