                         Program Version 4.1.2  - RELEASE  -
|  1> #Run DFT-D3 single point of the dimer
|  2> ! wB97X-D3 def2-TZVP TIGHTSCF CHELPG PMODEL PAL8
|  3>
|  4> %base "9-182_DFT_AB"
|  5>
|  6> %scf
|  7> MaxIter 1000
|  8> end
|  9>
| 10> * xyz 0 1
| 11>   C                      -2.230030            0.586763             -6.878201
| 12>   O                      -3.057681            0.013581             -5.870206
| 13>   H                      -2.513104            -0.670392            -5.464172
| 14>   H                      -2.361297            0.061913             -7.818200
| 15>   H                      -2.512272            1.628130             -7.047134
| 16>   H                      -1.223088            0.458422             -6.552373
| 17>   C                      -0.411850            -2.100247            -4.063294
| 18>   O                      -1.012722            -2.373101            -5.308068
| 19>   H                      -0.394791            -2.178237            -6.031232
| 20>   H                      0.676770             -2.216128            -4.156537
| 21>   H                      -0.601774            -1.071963            -3.796479
| 22>   H                      -0.723615            -2.888617            -3.255990
| 23> *
| 24>
| 25> #Run DFT-D3 single point of the molecule with dimer basis set
| 26> $new_job
| 27> %base "9-182_DFT_A"
| 28> ! wB97X-D3 def2-TZVP TIGHTSCF CHELPG PMODEL
| 29>
| 30> %scf
| 31> MaxIter 1000
| 32> end
| 33>
| 34> * xyz 0 1
| 35>   C                      -2.230030            0.586763             -6.878201
| 36>   O                      -3.057681            0.013581             -5.870206
| 37>   H                      -2.513104            -0.670392            -5.464172
| 38>   H                      -2.361297            0.061913             -7.818200
| 39>   H                      -2.512272            1.628130             -7.047134
| 40>   H                      -1.223088            0.458422             -6.552373
| 41>   C                    : -0.411850            -2.100247            -4.063294
| 42>   O                    : -1.012722            -2.373101            -5.308068
| 43>   H                    : -0.394791            -2.178237            -6.031232
| 44>   H                    : 0.676770             -2.216128            -4.156537
| 45>   H                    : -0.601774            -1.071963            -3.796479
| 46>   H                    : -0.723615            -2.888617            -3.255990
| 47> *
| 48>
| 49> #Run DFT-D3 single point of the particle with dimer basis set
| 50> $new_job
| 51> %base "9-182_DFT_B"
| 52> ! wB97X-D3 def2-TZVP TIGHTSCF CHELPG PMODEL
| 53>
| 54> %scf
| 55> MaxIter 1000
| 56> end
| 57>
| 58> * xyz 0 1
| 59>   C                    : -2.230030            0.586763             -6.878201
| 60>   O                    : -3.057681            0.013581             -5.870206
| 61>   H                    : -2.513104            -0.670392            -5.464172
| 62>   H                    : -2.361297            0.061913             -7.818200
| 63>   H                    : -2.512272            1.628130             -7.047134
| 64>   H                    : -1.223088            0.458422             -6.552373
| 65>   C                      -0.411850            -2.100247            -4.063294
| 66>   O                      -1.012722            -2.373101            -5.308068
| 67>   H                      -0.394791            -2.178237            -6.031232
| 68>   H                      0.676770             -2.216128            -4.156537
| 69>   H                      -0.601774            -1.071963            -3.796479
| 70>   H                      -0.723615            -2.888617            -3.255990
| 71> *
| 72>
| 73>                          ****END OF INPUT****
 Total Charge           Charge          ....    0
 Multiplicity           Mult            ....    1
 Number of Electrons    NEL             ....   36
Dispersion correction           -0.002012331
FINAL SINGLE POINT ENERGY      -231.471560477778
Dispersion correction           -0.000221620
FINAL SINGLE POINT ENERGY      -115.734323440116

CARTESIAN COORDINATES (ANGSTROEM)
---------------------------------
  C     -2.230030    0.586763   -6.878201
  O     -3.057681    0.013581   -5.870206
  H     -2.513104   -0.670392   -5.464172
  H     -2.361297    0.061913   -7.818200
  H     -2.512272    1.628130   -7.047134
  H     -1.223088    0.458422   -6.552373
  C     -0.411850   -2.100247   -4.063294
  O     -1.012722   -2.373101   -5.308068
  H     -0.394791   -2.178237   -6.031232
  H      0.676770   -2.216128   -4.156537
  H     -0.601774   -1.071963   -3.796479
  H     -0.723615   -2.888617   -3.255990

 Multiplicity           Mult            ....    1
 Number of Electrons    NEL             ....   18
 Basis Dimension        Dim             ....  172

ORBITAL ENERGIES
----------------

  NO   OCC          E(Eh)            E(eV)
   0   2.0000     -19.230114      -523.2780
   1   2.0000     -10.320148      -280.8255
   2   2.0000      -1.135039       -30.8860
   3   2.0000      -0.789796       -21.4914
   4   2.0000      -0.611614       -16.6429
   5   2.0000      -0.547756       -14.9052
   6   2.0000      -0.519940       -14.1483
   7   2.0000      -0.424329       -11.5466
   8   2.0000      -0.374209       -10.1828
   9   0.0000       0.088196         2.3999
  10   0.0000       0.128105         3.4859
  11   0.0000       0.147895         4.0244
  12   0.0000       0.180449         4.9103
  13   0.0000       0.190664         5.1882

MULLIKEN ATOMIC CHARGES
-----------------------
   0 C :   -0.001917
   1 O :    0.000210
   2 H :   -0.002020
   3 H :    0.000150
   4 H :   -0.000608
   5 H :   -0.005792
   6 C :   -0.168231
   7 O :   -0.476501
   8 H :    0.320717
   9 H :    0.107130
  10 H :    0.110761
  11 H :    0.116103
Sum of atomic charges:    0.0000000

LOEWDIN ATOMIC CHARGES
----------------------
   0 C :   -0.005083
   1 O :   -0.002098
   2 H :   -0.019571
   3 H :   -0.000209
   4 H :   -0.000106
   5 H :   -0.002631
   6 C :   -0.393600
   7 O :   -0.061898
   8 H :    0.176188
   9 H :    0.095732
  10 H :    0.092874
  11 H :    0.120401

  Mayer bond orders larger than 0.1
B(  6-C ,  7-O ) :   0.9927 B(  6-C ,  9-H ) :   0.9858 B(  6-C , 10-H ) :   0.9733
B(  6-C , 11-H ) :   0.9679 B(  7-O ,  8-H ) :   0.8927

Dispersion correction           -0.000244508
FINAL SINGLE POINT ENERGY      -115.731201244970

DIPOLE MOMENT
-------------
                                X             Y             Z
Electronic contribution:     -0.94358      -0.32775      -1.49702
Nuclear contribution   :      1.61651       0.54699       1.51416
                        -----------------------------------------
Total Dipole Moment    :      0.67294       0.21924       0.01714
                        -----------------------------------------
Magnitude (a.u.)       :      0.70796
Magnitude (Debye)      :      1.79948

Rotational constants in cm-1:     4.130804     0.830684     0.803186
Rotational constants in MHz : 123838.390020 24903.281903 24078.916404

                             ****ORCA TERMINATED NORMALLY****
TOTAL RUN TIME: 0 days 0 hours 0 minutes 46 seconds 760 msec
