                         Program Version 4.1.2  - RELEASE  -
|  1> #Run DFT-D3 single point of the dimer
|  2> ! wB97X-D3 def2-TZVP TIGHTSCF CHELPG PMODEL PAL8
|  3>
|  4> %base "3-61_DFT_AB"
|  5>
|  6> %scf
|  7> MaxIter 1000
|  8> end
|  9>
| 10> * xyz 0 1
| 11>   C                      -8.550756            3.122368             3.230009
| 12>   O                      -8.562572            2.964860             1.793958
| 13>   H                      -8.190921            3.761981             1.375839
| 14>   H                      -9.274297            2.452273             3.762807
| 15>   H                      -7.574168            2.767367             3.602449
| 16>   H                      -8.847867            4.108928             3.617314
| 17>   C                      -7.238077            0.748402             7.711293
| 18>   O                      -7.438159            1.092664             6.389227
| 19>   H                      -7.787227            1.945037             6.140539
| 20>   H                      -6.277893            1.146571             8.201121
| 21>   H                      -8.102448            0.969202             8.292034
| 22>   H                      -7.068392            -0.306997            7.791510
| 23> *
| 24>
| 25> #Run DFT-D3 single point of the molecule with dimer basis set
| 26> $new_job
| 27> %base "3-61_DFT_A"
| 28> ! wB97X-D3 def2-TZVP TIGHTSCF CHELPG PMODEL
| 29>
| 30> %scf
| 31> MaxIter 1000
| 32> end
| 33>
| 34> * xyz 0 1
| 35>   C                      -8.550756            3.122368             3.230009
| 36>   O                      -8.562572            2.964860             1.793958
| 37>   H                      -8.190921            3.761981             1.375839
| 38>   H                      -9.274297            2.452273             3.762807
| 39>   H                      -7.574168            2.767367             3.602449
| 40>   H                      -8.847867            4.108928             3.617314
| 41>   C                    : -7.238077            0.748402             7.711293
| 42>   O                    : -7.438159            1.092664             6.389227
| 43>   H                    : -7.787227            1.945037             6.140539
| 44>   H                    : -6.277893            1.146571             8.201121
| 45>   H                    : -8.102448            0.969202             8.292034
| 46>   H                    : -7.068392            -0.306997            7.791510
| 47> *
| 48>
| 49> #Run DFT-D3 single point of the particle with dimer basis set
| 50> $new_job
| 51> %base "3-61_DFT_B"
| 52> ! wB97X-D3 def2-TZVP TIGHTSCF CHELPG PMODEL
| 53>
| 54> %scf
| 55> MaxIter 1000
| 56> end
| 57>
| 58> * xyz 0 1
| 59>   C                    : -8.550756            3.122368             3.230009
| 60>   O                    : -8.562572            2.964860             1.793958
| 61>   H                    : -8.190921            3.761981             1.375839
| 62>   H                    : -9.274297            2.452273             3.762807
| 63>   H                    : -7.574168            2.767367             3.602449
| 64>   H                    : -8.847867            4.108928             3.617314
| 65>   C                      -7.238077            0.748402             7.711293
| 66>   O                      -7.438159            1.092664             6.389227
| 67>   H                      -7.787227            1.945037             6.140539
| 68>   H                      -6.277893            1.146571             8.201121
| 69>   H                      -8.102448            0.969202             8.292034
| 70>   H                      -7.068392            -0.306997            7.791510
| 71> *
| 72>
| 73>                          ****END OF INPUT****
 Total Charge           Charge          ....    0
 Multiplicity           Mult            ....    1
 Number of Electrons    NEL             ....   36
Dispersion correction           -0.001251699
FINAL SINGLE POINT ENERGY      -231.460213328932
Dispersion correction           -0.000281362
FINAL SINGLE POINT ENERGY      -115.731228931912

CARTESIAN COORDINATES (ANGSTROEM)
---------------------------------
  C     -8.550756    3.122368    3.230009
  O     -8.562572    2.964860    1.793958
  H     -8.190921    3.761981    1.375839
  H     -9.274297    2.452273    3.762807
  H     -7.574168    2.767367    3.602449
  H     -8.847867    4.108928    3.617314
  C     -7.238077    0.748402    7.711293
  O     -7.438159    1.092664    6.389227
  H     -7.787227    1.945037    6.140539
  H     -6.277893    1.146571    8.201121
  H     -8.102448    0.969202    8.292034
  H     -7.068392   -0.306997    7.791510

 Multiplicity           Mult            ....    1
 Number of Electrons    NEL             ....   18
 Basis Dimension        Dim             ....  172

ORBITAL ENERGIES
----------------

  NO   OCC          E(Eh)            E(eV)
   0   2.0000     -19.226365      -523.1760
   1   2.0000     -10.312000      -280.6038
   2   2.0000      -1.139790       -31.0153
   3   2.0000      -0.803605       -21.8672
   4   2.0000      -0.620322       -16.8798
   5   2.0000      -0.548776       -14.9330
   6   2.0000      -0.529117       -14.3980
   7   2.0000      -0.414008       -11.2657
   8   2.0000      -0.371493       -10.1088
   9   0.0000       0.080174         2.1816
  10   0.0000       0.126034         3.4295
  11   0.0000       0.147152         4.0042
  12   0.0000       0.183070         4.9816
  13   0.0000       0.198064         5.3896

MULLIKEN ATOMIC CHARGES
-----------------------
   0 C :    0.001381
   1 O :   -0.000001
   2 H :   -0.000004
   3 H :   -0.001620
   4 H :   -0.002515
   5 H :    0.000014
   6 C :   -0.135839
   7 O :   -0.495856
   8 H :    0.325894
   9 H :    0.084385
  10 H :    0.104863
  11 H :    0.119297
Sum of atomic charges:    0.0000000

LOEWDIN ATOMIC CHARGES
----------------------
   0 C :   -0.001637
   1 O :   -0.000016
   2 H :   -0.000002
   3 H :   -0.000916
   4 H :   -0.001487
   5 H :   -0.000037
   6 C :   -0.406104
   7 O :   -0.050300
   8 H :    0.165542
   9 H :    0.100821
  10 H :    0.089405
  11 H :    0.104732

  Mayer bond orders larger than 0.1
B(  6-C ,  7-O ) :   1.0023 B(  6-C ,  9-H ) :   0.9713 B(  6-C , 10-H ) :   0.9836
B(  6-C , 11-H ) :   0.9709 B(  7-O ,  8-H ) :   0.8839

Dispersion correction           -0.000269483
FINAL SINGLE POINT ENERGY      -115.728921240415

DIPOLE MOMENT
-------------
                                X             Y             Z
Electronic contribution:     -0.32551       0.42271      -1.76073
Nuclear contribution   :      0.14093      -0.01941       2.12324
                        -----------------------------------------
Total Dipole Moment    :     -0.18458       0.40330       0.36251
                        -----------------------------------------
Magnitude (a.u.)       :      0.57283
Magnitude (Debye)      :      1.45601

Rotational constants in cm-1:     4.593259     0.834462     0.818712
Rotational constants in MHz : 137702.437660 25016.542477 24544.356514

                             ****ORCA TERMINATED NORMALLY****
TOTAL RUN TIME: 0 days 0 hours 6 minutes 2 seconds 206 msec
