                         Program Version 4.1.2  - RELEASE  -
|  1> #Run DFT-D3 single point of the dimer
|  2> ! wB97X-D3 def2-TZVP TIGHTSCF CHELPG PMODEL PAL8
|  3>
|  4> %base "5-136_DFT_AB"
|  5>
|  6> %scf
|  7> MaxIter 1000
|  8> end
|  9>
| 10> * xyz 0 1
| 11>   C                      0.074017             4.217301             -5.496732
| 12>   O                      0.563221             5.487481             -5.740181
| 13>   H                      -0.073991            6.071840             -5.294138
| 14>   H                      -0.913316            4.025196             -5.905946
| 15>   H                      0.774878             3.517048             -5.955846
| 16>   H                      -0.044787            3.904843             -4.515804
| 17>   C                      -1.099848            8.982548             -7.084138
| 18>   O                      -0.679450            8.411311             -5.860331
| 19>   H                      -1.509961            8.079333             -5.438377
| 20>   H                      -1.602428            8.138981             -7.670013
| 21>   H                      -1.867835            9.797396             -7.037906
| 22>   H                      -0.200093            9.298793             -7.610368
| 23> *
| 24>
| 25> #Run DFT-D3 single point of the molecule with dimer basis set
| 26> $new_job
| 27> %base "5-136_DFT_A"
| 28> ! wB97X-D3 def2-TZVP TIGHTSCF CHELPG PMODEL
| 29>
| 30> %scf
| 31> MaxIter 1000
| 32> end
| 33>
| 34> * xyz 0 1
| 35>   C                      0.074017             4.217301             -5.496732
| 36>   O                      0.563221             5.487481             -5.740181
| 37>   H                      -0.073991            6.071840             -5.294138
| 38>   H                      -0.913316            4.025196             -5.905946
| 39>   H                      0.774878             3.517048             -5.955846
| 40>   H                      -0.044787            3.904843             -4.515804
| 41>   C                    : -1.099848            8.982548             -7.084138
| 42>   O                    : -0.679450            8.411311             -5.860331
| 43>   H                    : -1.509961            8.079333             -5.438377
| 44>   H                    : -1.602428            8.138981             -7.670013
| 45>   H                    : -1.867835            9.797396             -7.037906
| 46>   H                    : -0.200093            9.298793             -7.610368
| 47> *
| 48>
| 49> #Run DFT-D3 single point of the particle with dimer basis set
| 50> $new_job
| 51> %base "5-136_DFT_B"
| 52> ! wB97X-D3 def2-TZVP TIGHTSCF CHELPG PMODEL
| 53>
| 54> %scf
| 55> MaxIter 1000
| 56> end
| 57>
| 58> * xyz 0 1
| 59>   C                    : 0.074017             4.217301             -5.496732
| 60>   O                    : 0.563221             5.487481             -5.740181
| 61>   H                    : -0.073991            6.071840             -5.294138
| 62>   H                    : -0.913316            4.025196             -5.905946
| 63>   H                    : 0.774878             3.517048             -5.955846
| 64>   H                    : -0.044787            3.904843             -4.515804
| 65>   C                      -1.099848            8.982548             -7.084138
| 66>   O                      -0.679450            8.411311             -5.860331
| 67>   H                      -1.509961            8.079333             -5.438377
| 68>   H                      -1.602428            8.138981             -7.670013
| 69>   H                      -1.867835            9.797396             -7.037906
| 70>   H                      -0.200093            9.298793             -7.610368
| 71> *
| 72>
| 73>                          ****END OF INPUT****
 Total Charge           Charge          ....    0
 Multiplicity           Mult            ....    1
 Number of Electrons    NEL             ....   36
Dispersion correction           -0.001370123
FINAL SINGLE POINT ENERGY      -231.464448074841
Dispersion correction           -0.000222440
FINAL SINGLE POINT ENERGY      -115.731318470808

CARTESIAN COORDINATES (ANGSTROEM)
---------------------------------
  C      0.074017    4.217301   -5.496732
  O      0.563221    5.487481   -5.740181
  H     -0.073991    6.071840   -5.294138
  H     -0.913316    4.025196   -5.905946
  H      0.774878    3.517048   -5.955846
  H     -0.044787    3.904843   -4.515804
  C     -1.099848    8.982548   -7.084138
  O     -0.679450    8.411311   -5.860331
  H     -1.509961    8.079333   -5.438377
  H     -1.602428    8.138981   -7.670013
  H     -1.867835    9.797396   -7.037906
  H     -0.200093    9.298793   -7.610368

 Multiplicity           Mult            ....    1
 Number of Electrons    NEL             ....   18
 Basis Dimension        Dim             ....  172

ORBITAL ENERGIES
----------------

  NO   OCC          E(Eh)            E(eV)
   0   2.0000     -19.235893      -523.4353
   1   2.0000     -10.320982      -280.8482
   2   2.0000      -1.134829       -30.8803
   3   2.0000      -0.786474       -21.4011
   4   2.0000      -0.609376       -16.5820
   5   2.0000      -0.533250       -14.5105
   6   2.0000      -0.525644       -14.3035
   7   2.0000      -0.441157       -12.0045
   8   2.0000      -0.370168       -10.0728
   9   0.0000       0.087706         2.3866
  10   0.0000       0.116747         3.1768
  11   0.0000       0.152617         4.1529
  12   0.0000       0.188243         5.1224
  13   0.0000       0.193930         5.2771

MULLIKEN ATOMIC CHARGES
-----------------------
   0 C :    0.001319
   1 O :    0.001415
   2 H :   -0.012897
   3 H :   -0.000160
   4 H :    0.000004
   5 H :   -0.000045
   6 C :   -0.175028
   7 O :   -0.458056
   8 H :    0.318245
   9 H :    0.098230
  10 H :    0.102167
  11 H :    0.124804
Sum of atomic charges:   -0.0000000

LOEWDIN ATOMIC CHARGES
----------------------
   0 C :   -0.000377
   1 O :   -0.003693
   2 H :   -0.014378
   3 H :   -0.000028
   4 H :   -0.000009
   5 H :   -0.000004
   6 C :   -0.399567
   7 O :   -0.075768
   8 H :    0.187919
   9 H :    0.101662
  10 H :    0.096530
  11 H :    0.107712

  Mayer bond orders larger than 0.1
B(  6-C ,  7-O ) :   0.9971 B(  6-C ,  9-H ) :   0.9837 B(  6-C , 10-H ) :   0.9598
B(  6-C , 11-H ) :   0.9749 B(  7-O ,  8-H ) :   0.8940

Dispersion correction           -0.000240624
FINAL SINGLE POINT ENERGY      -115.732608992019

DIPOLE MOMENT
-------------
                                X             Y             Z
Electronic contribution:      0.76762      -0.53513       1.60080
Nuclear contribution   :     -1.42471       0.56149      -1.80877
                        -----------------------------------------
Total Dipole Moment    :     -0.65708       0.02635      -0.20797
                        -----------------------------------------
Magnitude (a.u.)       :      0.68972
Magnitude (Debye)      :      1.75312

Rotational constants in cm-1:     4.049455     0.834583     0.797578
Rotational constants in MHz : 121399.599038 25020.157170 23910.801073

                             ****ORCA TERMINATED NORMALLY****
TOTAL RUN TIME: 0 days 0 hours 0 minutes 52 seconds 534 msec
