                         Program Version 4.1.2  - RELEASE  -
|  1> #Run DFT-D3 single point of the dimer
|  2> ! wB97X-D3 def2-TZVP TIGHTSCF CHELPG PMODEL PAL8
|  3>
|  4> %base "3-3_DFT_AB"
|  5>
|  6> %scf
|  7> MaxIter 1000
|  8> end
|  9>
| 10> * xyz 0 1
| 11>   C                      -7.942409            -2.379003            -9.459658
| 12>   O                      -7.867683            -3.795945            -9.391160
| 13>   H                      -8.719740            -4.186714            -9.465420
| 14>   H                      -7.748901            -1.924920            -8.467208
| 15>   H                      -7.233413            -1.909138            -10.170256
| 16>   H                      -8.967834            -2.145940            -9.738359
| 17>   C                      -7.727073            -7.561073            -10.865921
| 18>   O                      -8.972835            -6.876636            -10.927747
| 19>   H                      -9.731524            -7.438222            -10.792872
| 20>   H                      -7.609221            -8.401244            -11.569420
| 21>   H                      -6.873496            -6.841418            -10.802313
| 22>   H                      -7.681243            -7.968487            -9.825223
| 23> *
| 24>
| 25> #Run DFT-D3 single point of the molecule with dimer basis set
| 26> $new_job
| 27> %base "3-3_DFT_A"
| 28> ! wB97X-D3 def2-TZVP TIGHTSCF CHELPG PMODEL
| 29>
| 30> %scf
| 31> MaxIter 1000
| 32> end
| 33>
| 34> * xyz 0 1
| 35>   C                      -7.942409            -2.379003            -9.459658
| 36>   O                      -7.867683            -3.795945            -9.391160
| 37>   H                      -8.719740            -4.186714            -9.465420
| 38>   H                      -7.748901            -1.924920            -8.467208
| 39>   H                      -7.233413            -1.909138            -10.170256
| 40>   H                      -8.967834            -2.145940            -9.738359
| 41>   C                    : -7.727073            -7.561073            -10.865921
| 42>   O                    : -8.972835            -6.876636            -10.927747
| 43>   H                    : -9.731524            -7.438222            -10.792872
| 44>   H                    : -7.609221            -8.401244            -11.569420
| 45>   H                    : -6.873496            -6.841418            -10.802313
| 46>   H                    : -7.681243            -7.968487            -9.825223
| 47> *
| 48>
| 49> #Run DFT-D3 single point of the particle with dimer basis set
| 50> $new_job
| 51> %base "3-3_DFT_B"
| 52> ! wB97X-D3 def2-TZVP TIGHTSCF CHELPG PMODEL
| 53>
| 54> %scf
| 55> MaxIter 1000
| 56> end
| 57>
| 58> * xyz 0 1
| 59>   C                    : -7.942409            -2.379003            -9.459658
| 60>   O                    : -7.867683            -3.795945            -9.391160
| 61>   H                    : -8.719740            -4.186714            -9.465420
| 62>   H                    : -7.748901            -1.924920            -8.467208
| 63>   H                    : -7.233413            -1.909138            -10.170256
| 64>   H                    : -8.967834            -2.145940            -9.738359
| 65>   C                      -7.727073            -7.561073            -10.865921
| 66>   O                      -8.972835            -6.876636            -10.927747
| 67>   H                      -9.731524            -7.438222            -10.792872
| 68>   H                      -7.609221            -8.401244            -11.569420
| 69>   H                      -6.873496            -6.841418            -10.802313
| 70>   H                      -7.681243            -7.968487            -9.825223
| 71> *
| 72>
| 73>                          ****END OF INPUT****
 Total Charge           Charge          ....    0
 Multiplicity           Mult            ....    1
 Number of Electrons    NEL             ....   36
Dispersion correction           -0.001227133
FINAL SINGLE POINT ENERGY      -231.465361264656
Dispersion correction           -0.000250608
FINAL SINGLE POINT ENERGY      -115.733223928888

CARTESIAN COORDINATES (ANGSTROEM)
---------------------------------
  C     -7.942409   -2.379003   -9.459658
  O     -7.867683   -3.795945   -9.391160
  H     -8.719740   -4.186714   -9.465420
  H     -7.748901   -1.924920   -8.467208
  H     -7.233413   -1.909138  -10.170256
  H     -8.967834   -2.145940   -9.738359
  C     -7.727073   -7.561073  -10.865921
  O     -8.972835   -6.876636  -10.927747
  H     -9.731524   -7.438222  -10.792872
  H     -7.609221   -8.401244  -11.569420
  H     -6.873496   -6.841418  -10.802313
  H     -7.681243   -7.968487   -9.825223

 Multiplicity           Mult            ....    1
 Number of Electrons    NEL             ....   18
 Basis Dimension        Dim             ....  172

ORBITAL ENERGIES
----------------

  NO   OCC          E(Eh)            E(eV)
   0   2.0000     -19.226880      -523.1900
   1   2.0000     -10.321280      -280.8563
   2   2.0000      -1.130979       -30.7755
   3   2.0000      -0.795323       -21.6418
   4   2.0000      -0.609691       -16.5905
   5   2.0000      -0.544732       -14.8229
   6   2.0000      -0.521299       -14.1853
   7   2.0000      -0.424306       -11.5460
   8   2.0000      -0.369985       -10.0678
   9   0.0000       0.095261         2.5922
  10   0.0000       0.116670         3.1747
  11   0.0000       0.149145         4.0584
  12   0.0000       0.178350         4.8531
  13   0.0000       0.196549         5.3484

MULLIKEN ATOMIC CHARGES
-----------------------
   0 C :    0.000143
   1 O :    0.000184
   2 H :   -0.004003
   3 H :   -0.000011
   4 H :    0.000009
   5 H :    0.000007
   6 C :   -0.159261
   7 O :   -0.486305
   8 H :    0.316115
   9 H :    0.110227
  10 H :    0.124204
  11 H :    0.098692
Sum of atomic charges:    0.0000000

LOEWDIN ATOMIC CHARGES
----------------------
   0 C :   -0.000039
   1 O :   -0.000652
   2 H :   -0.004389
   3 H :   -0.000001
   4 H :   -0.000002
   5 H :   -0.000002
   6 C :   -0.385897
   7 O :   -0.083135
   8 H :    0.161569
   9 H :    0.096428
  10 H :    0.115860
  11 H :    0.100261

  Mayer bond orders larger than 0.1
B(  6-C ,  7-O ) :   0.9846 B(  6-C ,  9-H ) :   0.9634 B(  6-C , 10-H ) :   0.9699
B(  6-C , 11-H ) :   0.9892 B(  7-O ,  8-H ) :   0.8948

Dispersion correction           -0.000258484
FINAL SINGLE POINT ENERGY      -115.729500137679

DIPOLE MOMENT
-------------
                                X             Y             Z
Electronic contribution:     -1.49385       0.95516      -0.36408
Nuclear contribution   :      1.51590      -1.60944       0.50379
                        -----------------------------------------
Total Dipole Moment    :      0.02205      -0.65428       0.13971
                        -----------------------------------------
Magnitude (a.u.)       :      0.66939
Magnitude (Debye)      :      1.70145

Rotational constants in cm-1:     4.265214     0.813840     0.785842
Rotational constants in MHz : 127867.901372 24398.297206 23558.956407

                             ****ORCA TERMINATED NORMALLY****
TOTAL RUN TIME: 0 days 0 hours 6 minutes 17 seconds 2 msec
