                         Program Version 4.1.2  - RELEASE  -
|  1> #Run DFT-D3 single point of the dimer
|  2> ! wB97X-D3 def2-TZVP TIGHTSCF CHELPG PMODEL PAL8
|  3>
|  4> %base "20-143_DFT_AB"
|  5>
|  6> %scf
|  7> MaxIter 1000
|  8> end
|  9>
| 10> * xyz 0 1
| 11>   C                      3.421083             7.210072             4.473973
| 12>   O                      4.589934             8.015579             4.515994
| 13>   H                      4.448920             8.817756             4.027650
| 14>   H                      2.520643             7.794429             4.744338
| 15>   H                      3.176166             6.680159             3.580771
| 16>   H                      3.413371             6.403529             5.216325
| 17>   C                      -0.241667            8.855129             6.504955
| 18>   O                      0.003160             8.985826             5.138943
| 19>   H                      -0.815138            9.115915             4.700429
| 20>   H                      -1.161225            8.348675             6.738335
| 21>   H                      0.546254             8.269358             7.009560
| 22>   H                      -0.221386            9.829478             6.973121
| 23> *
| 24>
| 25> #Run DFT-D3 single point of the molecule with dimer basis set
| 26> $new_job
| 27> %base "20-143_DFT_A"
| 28> ! wB97X-D3 def2-TZVP TIGHTSCF CHELPG PMODEL
| 29>
| 30> %scf
| 31> MaxIter 1000
| 32> end
| 33>
| 34> * xyz 0 1
| 35>   C                      3.421083             7.210072             4.473973
| 36>   O                      4.589934             8.015579             4.515994
| 37>   H                      4.448920             8.817756             4.027650
| 38>   H                      2.520643             7.794429             4.744338
| 39>   H                      3.176166             6.680159             3.580771
| 40>   H                      3.413371             6.403529             5.216325
| 41>   C                    : -0.241667            8.855129             6.504955
| 42>   O                    : 0.003160             8.985826             5.138943
| 43>   H                    : -0.815138            9.115915             4.700429
| 44>   H                    : -1.161225            8.348675             6.738335
| 45>   H                    : 0.546254             8.269358             7.009560
| 46>   H                    : -0.221386            9.829478             6.973121
| 47> *
| 48>
| 49> #Run DFT-D3 single point of the particle with dimer basis set
| 50> $new_job
| 51> %base "20-143_DFT_B"
| 52> ! wB97X-D3 def2-TZVP TIGHTSCF CHELPG PMODEL
| 53>
| 54> %scf
| 55> MaxIter 1000
| 56> end
| 57>
| 58> * xyz 0 1
| 59>   C                    : 3.421083             7.210072             4.473973
| 60>   O                    : 4.589934             8.015579             4.515994
| 61>   H                    : 4.448920             8.817756             4.027650
| 62>   H                    : 2.520643             7.794429             4.744338
| 63>   H                    : 3.176166             6.680159             3.580771
| 64>   H                    : 3.413371             6.403529             5.216325
| 65>   C                      -0.241667            8.855129             6.504955
| 66>   O                      0.003160             8.985826             5.138943
| 67>   H                      -0.815138            9.115915             4.700429
| 68>   H                      -1.161225            8.348675             6.738335
| 69>   H                      0.546254             8.269358             7.009560
| 70>   H                      -0.221386            9.829478             6.973121
| 71> *
| 72>
| 73>                          ****END OF INPUT****
 Total Charge           Charge          ....    0
 Multiplicity           Mult            ....    1
 Number of Electrons    NEL             ....   36
Dispersion correction           -0.001306214
FINAL SINGLE POINT ENERGY      -231.469343521325
Dispersion correction           -0.000268473
FINAL SINGLE POINT ENERGY      -115.732181558251

CARTESIAN COORDINATES (ANGSTROEM)
---------------------------------
  C      3.421083    7.210072    4.473973
  O      4.589934    8.015579    4.515994
  H      4.448920    8.817756    4.027650
  H      2.520643    7.794429    4.744338
  H      3.176166    6.680159    3.580771
  H      3.413371    6.403529    5.216325
  C     -0.241667    8.855129    6.504955
  O      0.003160    8.985826    5.138943
  H     -0.815138    9.115915    4.700429
  H     -1.161225    8.348675    6.738335
  H      0.546254    8.269358    7.009560
  H     -0.221386    9.829478    6.973121

 Multiplicity           Mult            ....    1
 Number of Electrons    NEL             ....   18
 Basis Dimension        Dim             ....  172

ORBITAL ENERGIES
----------------

  NO   OCC          E(Eh)            E(eV)
   0   2.0000     -19.228030      -523.2213
   1   2.0000     -10.308525      -280.5092
   2   2.0000      -1.146668       -31.2024
   3   2.0000      -0.799146       -21.7459
   4   2.0000      -0.618786       -16.8380
   5   2.0000      -0.546670       -14.8756
   6   2.0000      -0.530299       -14.4302
   7   2.0000      -0.432114       -11.7584
   8   2.0000      -0.373604       -10.1663
   9   0.0000       0.097244         2.6461
  10   0.0000       0.122243         3.3264
  11   0.0000       0.154106         4.1934
  12   0.0000       0.172029         4.6811
  13   0.0000       0.195409         5.3173

MULLIKEN ATOMIC CHARGES
-----------------------
   0 C :   -0.000370
   1 O :    0.000007
   2 H :   -0.000056
   3 H :   -0.003489
   4 H :    0.000007
   5 H :    0.000010
   6 C :   -0.163428
   7 O :   -0.461162
   8 H :    0.309572
   9 H :    0.104037
  10 H :    0.114169
  11 H :    0.100704
Sum of atomic charges:    0.0000000

LOEWDIN ATOMIC CHARGES
----------------------
   0 C :   -0.001689
   1 O :   -0.000016
   2 H :   -0.000014
   3 H :   -0.004965
   4 H :   -0.000041
   5 H :   -0.000034
   6 C :   -0.396753
   7 O :   -0.046420
   8 H :    0.156302
   9 H :    0.091641
  10 H :    0.109027
  11 H :    0.092963

  Mayer bond orders larger than 0.1
B(  6-C ,  7-O ) :   1.0019 B(  6-C ,  9-H ) :   0.9788 B(  6-C , 10-H ) :   0.9752
B(  6-C , 11-H ) :   0.9785 B(  7-O ,  8-H ) :   0.9028

Dispersion correction           -0.000233032
FINAL SINGLE POINT ENERGY      -115.735177677429

DIPOLE MOMENT
-------------
                                X             Y             Z
Electronic contribution:      0.37782       0.14873      -1.80767
Nuclear contribution   :     -1.01826      -0.12679       2.05902
                        -----------------------------------------
Total Dipole Moment    :     -0.64044       0.02194       0.25135
                        -----------------------------------------
Magnitude (a.u.)       :      0.68835
Magnitude (Debye)      :      1.74964

Rotational constants in cm-1:     4.444630     0.847492     0.820117
Rotational constants in MHz : 133246.658713 25407.168377 24586.484955

                             ****ORCA TERMINATED NORMALLY****
TOTAL RUN TIME: 0 days 0 hours 1 minutes 1 seconds 329 msec
