                         Program Version 4.1.2  - RELEASE  -
|  1> #Run DFT-D3 single point of the dimer
|  2> ! wB97X-D3 def2-TZVP TIGHTSCF CHELPG PMODEL PAL8
|  3>
|  4> %base "20-37_DFT_AB"
|  5>
|  6> %scf
|  7> MaxIter 1000
|  8> end
|  9>
| 10> * xyz 0 1
| 11>   C                      -1.641794            5.307331             1.637861
| 12>   O                      -2.575965            4.229584             1.491744
| 13>   H                      -2.767324            3.875175             2.374490
| 14>   H                      -1.946451            5.984514             2.464272
| 15>   H                      -0.555480            5.066071             1.793109
| 16>   H                      -1.550788            5.846078             0.708489
| 17>   C                      -0.951433            5.290424             5.804685
| 18>   O                      -2.165011            5.068943             5.047114
| 19>   H                      -2.451916            5.919018             4.731868
| 20>   H                      -1.152294            6.019029             6.526219
| 21>   H                      -0.582023            4.346872             6.325513
| 22>   H                      -0.158983            5.659910             5.179873
| 23> *
| 24>
| 25> #Run DFT-D3 single point of the molecule with dimer basis set
| 26> $new_job
| 27> %base "20-37_DFT_A"
| 28> ! wB97X-D3 def2-TZVP TIGHTSCF CHELPG PMODEL
| 29>
| 30> %scf
| 31> MaxIter 1000
| 32> end
| 33>
| 34> * xyz 0 1
| 35>   C                      -1.641794            5.307331             1.637861
| 36>   O                      -2.575965            4.229584             1.491744
| 37>   H                      -2.767324            3.875175             2.374490
| 38>   H                      -1.946451            5.984514             2.464272
| 39>   H                      -0.555480            5.066071             1.793109
| 40>   H                      -1.550788            5.846078             0.708489
| 41>   C                    : -0.951433            5.290424             5.804685
| 42>   O                    : -2.165011            5.068943             5.047114
| 43>   H                    : -2.451916            5.919018             4.731868
| 44>   H                    : -1.152294            6.019029             6.526219
| 45>   H                    : -0.582023            4.346872             6.325513
| 46>   H                    : -0.158983            5.659910             5.179873
| 47> *
| 48>
| 49> #Run DFT-D3 single point of the particle with dimer basis set
| 50> $new_job
| 51> %base "20-37_DFT_B"
| 52> ! wB97X-D3 def2-TZVP TIGHTSCF CHELPG PMODEL
| 53>
| 54> %scf
| 55> MaxIter 1000
| 56> end
| 57>
| 58> * xyz 0 1
| 59>   C                    : -1.641794            5.307331             1.637861
| 60>   O                    : -2.575965            4.229584             1.491744
| 61>   H                    : -2.767324            3.875175             2.374490
| 62>   H                    : -1.946451            5.984514             2.464272
| 63>   H                    : -0.555480            5.066071             1.793109
| 64>   H                    : -1.550788            5.846078             0.708489
| 65>   C                      -0.951433            5.290424             5.804685
| 66>   O                      -2.165011            5.068943             5.047114
| 67>   H                      -2.451916            5.919018             4.731868
| 68>   H                      -1.152294            6.019029             6.526219
| 69>   H                      -0.582023            4.346872             6.325513
| 70>   H                      -0.158983            5.659910             5.179873
| 71> *
| 72>
| 73>                          ****END OF INPUT****
 Total Charge           Charge          ....    0
 Multiplicity           Mult            ....    1
 Number of Electrons    NEL             ....   36
Dispersion correction           -0.001889527
FINAL SINGLE POINT ENERGY      -231.468205289732
Dispersion correction           -0.000275766
FINAL SINGLE POINT ENERGY      -115.732386047149

CARTESIAN COORDINATES (ANGSTROEM)
---------------------------------
  C     -1.641794    5.307331    1.637861
  O     -2.575965    4.229584    1.491744
  H     -2.767324    3.875175    2.374490
  H     -1.946451    5.984514    2.464272
  H     -0.555480    5.066071    1.793109
  H     -1.550788    5.846078    0.708489
  C     -0.951433    5.290424    5.804685
  O     -2.165011    5.068943    5.047114
  H     -2.451916    5.919018    4.731868
  H     -1.152294    6.019029    6.526219
  H     -0.582023    4.346872    6.325513
  H     -0.158983    5.659910    5.179873

 Multiplicity           Mult            ....    1
 Number of Electrons    NEL             ....   18
 Basis Dimension        Dim             ....  172

ORBITAL ENERGIES
----------------

  NO   OCC          E(Eh)            E(eV)
   0   2.0000     -19.229756      -523.2683
   1   2.0000     -10.314175      -280.6630
   2   2.0000      -1.129231       -30.7279
   3   2.0000      -0.799476       -21.7549
   4   2.0000      -0.607267       -16.5246
   5   2.0000      -0.545360       -14.8400
   6   2.0000      -0.522531       -14.2188
   7   2.0000      -0.436807       -11.8861
   8   2.0000      -0.376008       -10.2317
   9   0.0000       0.088437         2.4065
  10   0.0000       0.131897         3.5891
  11   0.0000       0.149008         4.0547
  12   0.0000       0.176367         4.7992
  13   0.0000       0.189799         5.1647

MULLIKEN ATOMIC CHARGES
-----------------------
   0 C :    0.007714
   1 O :    0.000903
   2 H :   -0.003753
   3 H :   -0.016791
   4 H :   -0.000978
   5 H :   -0.000969
   6 C :   -0.175885
   7 O :   -0.471797
   8 H :    0.314261
   9 H :    0.115878
  10 H :    0.120410
  11 H :    0.111007
Sum of atomic charges:    0.0000000

LOEWDIN ATOMIC CHARGES
----------------------
   0 C :   -0.007570
   1 O :   -0.000349
   2 H :   -0.004616
   3 H :   -0.007367
   4 H :   -0.000343
   5 H :   -0.000144
   6 C :   -0.354884
   7 O :   -0.083558
   8 H :    0.161422
   9 H :    0.086114
  10 H :    0.119480
  11 H :    0.091816

  Mayer bond orders larger than 0.1
B(  6-C ,  7-O ) :   0.9895 B(  6-C ,  9-H ) :   0.9827 B(  6-C , 10-H ) :   0.9715
B(  6-C , 11-H ) :   0.9721 B(  7-O ,  8-H ) :   0.8998

Dispersion correction           -0.000237628
FINAL SINGLE POINT ENERGY      -115.732573312037

DIPOLE MOMENT
-------------
                                X             Y             Z
Electronic contribution:     -1.48706      -0.40717      -0.88852
Nuclear contribution   :      1.82280       1.05527       1.04075
                        -----------------------------------------
Total Dipole Moment    :      0.33574       0.64810       0.15222
                        -----------------------------------------
Magnitude (a.u.)       :      0.74560
Magnitude (Debye)      :      1.89517

Rotational constants in cm-1:     4.357247     0.805425     0.771694
Rotational constants in MHz : 130626.970432 24146.031375 23134.798248

                             ****ORCA TERMINATED NORMALLY****
TOTAL RUN TIME: 0 days 0 hours 1 minutes 8 seconds 551 msec
