                         Program Version 4.1.2  - RELEASE  -
|  1> #Run DFT-D3 single point of the dimer
|  2> ! wB97X-D3 def2-TZVP TIGHTSCF CHELPG PMODEL PAL8
|  3>
|  4> %base "16-98_DFT_AB"
|  5>
|  6> %scf
|  7> MaxIter 1000
|  8> end
|  9>
| 10> * xyz 0 1
| 11>   C                      5.434958             2.875792             -9.733265
| 12>   O                      6.885886             2.877586             -9.509406
| 13>   H                      7.289825             2.013666             -9.590393
| 14>   H                      5.137906             3.799958             -10.234967
| 15>   H                      5.202899             1.890700             -10.161595
| 16>   H                      4.848795             2.960356             -8.769228
| 17>   C                      6.138775             1.105410             -6.550989
| 18>   O                      4.848622             0.624918             -6.810171
| 19>   H                      4.246071             1.217651             -6.369775
| 20>   H                      6.329343             0.969225             -5.450410
| 21>   H                      6.799628             0.397577             -7.016951
| 22>   H                      6.253958             2.163259             -6.958496
| 23> *
| 24>
| 25> #Run DFT-D3 single point of the molecule with dimer basis set
| 26> $new_job
| 27> %base "16-98_DFT_A"
| 28> ! wB97X-D3 def2-TZVP TIGHTSCF CHELPG PMODEL
| 29>
| 30> %scf
| 31> MaxIter 1000
| 32> end
| 33>
| 34> * xyz 0 1
| 35>   C                      5.434958             2.875792             -9.733265
| 36>   O                      6.885886             2.877586             -9.509406
| 37>   H                      7.289825             2.013666             -9.590393
| 38>   H                      5.137906             3.799958             -10.234967
| 39>   H                      5.202899             1.890700             -10.161595
| 40>   H                      4.848795             2.960356             -8.769228
| 41>   C                    : 6.138775             1.105410             -6.550989
| 42>   O                    : 4.848622             0.624918             -6.810171
| 43>   H                    : 4.246071             1.217651             -6.369775
| 44>   H                    : 6.329343             0.969225             -5.450410
| 45>   H                    : 6.799628             0.397577             -7.016951
| 46>   H                    : 6.253958             2.163259             -6.958496
| 47> *
| 48>
| 49> #Run DFT-D3 single point of the particle with dimer basis set
| 50> $new_job
| 51> %base "16-98_DFT_B"
| 52> ! wB97X-D3 def2-TZVP TIGHTSCF CHELPG PMODEL
| 53>
| 54> %scf
| 55> MaxIter 1000
| 56> end
| 57>
| 58> * xyz 0 1
| 59>   C                    : 5.434958             2.875792             -9.733265
| 60>   O                    : 6.885886             2.877586             -9.509406
| 61>   H                    : 7.289825             2.013666             -9.590393
| 62>   H                    : 5.137906             3.799958             -10.234967
| 63>   H                    : 5.202899             1.890700             -10.161595
| 64>   H                    : 4.848795             2.960356             -8.769228
| 65>   C                      6.138775             1.105410             -6.550989
| 66>   O                      4.848622             0.624918             -6.810171
| 67>   H                      4.246071             1.217651             -6.369775
| 68>   H                      6.329343             0.969225             -5.450410
| 69>   H                      6.799628             0.397577             -7.016951
| 70>   H                      6.253958             2.163259             -6.958496
| 71> *
| 72>
| 73>                          ****END OF INPUT****
 Total Charge           Charge          ....    0
 Multiplicity           Mult            ....    1
 Number of Electrons    NEL             ....   36
Dispersion correction           -0.002204873
FINAL SINGLE POINT ENERGY      -231.463212403352
Dispersion correction           -0.000273540
FINAL SINGLE POINT ENERGY      -115.727757848307

CARTESIAN COORDINATES (ANGSTROEM)
---------------------------------
  C      5.434958    2.875792   -9.733265
  O      6.885886    2.877586   -9.509406
  H      7.289825    2.013666   -9.590393
  H      5.137906    3.799958  -10.234967
  H      5.202899    1.890700  -10.161595
  H      4.848795    2.960356   -8.769228
  C      6.138775    1.105410   -6.550989
  O      4.848622    0.624918   -6.810171
  H      4.246071    1.217651   -6.369775
  H      6.329343    0.969225   -5.450410
  H      6.799628    0.397577   -7.016951
  H      6.253958    2.163259   -6.958496

 Multiplicity           Mult            ....    1
 Number of Electrons    NEL             ....   18
 Basis Dimension        Dim             ....  172

ORBITAL ENERGIES
----------------

  NO   OCC          E(Eh)            E(eV)
   0   2.0000     -19.227597      -523.2095
   1   2.0000     -10.317403      -280.7508
   2   2.0000      -1.142613       -31.0921
   3   2.0000      -0.790167       -21.5015
   4   2.0000      -0.606158       -16.4944
   5   2.0000      -0.548978       -14.9384
   6   2.0000      -0.526808       -14.3352
   7   2.0000      -0.431087       -11.7305
   8   2.0000      -0.372030       -10.1234
   9   0.0000       0.087049         2.3687
  10   0.0000       0.126654         3.4464
  11   0.0000       0.150523         4.0959
  12   0.0000       0.176434         4.8010
  13   0.0000       0.190118         5.1734

MULLIKEN ATOMIC CHARGES
-----------------------
   0 C :    0.006674
   1 O :   -0.000338
   2 H :   -0.000772
   3 H :    0.000044
   4 H :   -0.001541
   5 H :   -0.006125
   6 C :   -0.167682
   7 O :   -0.468132
   8 H :    0.312067
   9 H :    0.106245
  10 H :    0.118006
  11 H :    0.101552
Sum of atomic charges:    0.0000000

LOEWDIN ATOMIC CHARGES
----------------------
   0 C :   -0.006683
   1 O :   -0.002602
   2 H :   -0.001487
   3 H :   -0.000037
   4 H :   -0.000603
   5 H :   -0.003926
   6 C :   -0.397531
   7 O :   -0.064690
   8 H :    0.163895
   9 H :    0.101428
  10 H :    0.105276
  11 H :    0.106960

  Mayer bond orders larger than 0.1
B(  6-C ,  7-O ) :   0.9925 B(  6-C ,  9-H ) :   0.9783 B(  6-C , 10-H ) :   0.9753
B(  6-C , 11-H ) :   0.9723 B(  7-O ,  8-H ) :   0.9028

Dispersion correction           -0.000222734
FINAL SINGLE POINT ENERGY      -115.732748120313

DIPOLE MOMENT
-------------
                                X             Y             Z
Electronic contribution:     -1.53353      -0.64876      -0.44585
Nuclear contribution   :      1.64882       1.16404       0.81842
                        -----------------------------------------
Total Dipole Moment    :      0.11530       0.51528       0.37256
                        -----------------------------------------
Magnitude (a.u.)       :      0.64623
Magnitude (Debye)      :      1.64258

Rotational constants in cm-1:     4.040046     0.851073     0.829410
Rotational constants in MHz : 121117.534551 25514.518560 24865.077048

                             ****ORCA TERMINATED NORMALLY****
TOTAL RUN TIME: 0 days 0 hours 0 minutes 55 seconds 499 msec
