                         Program Version 4.1.2  - RELEASE  -
|  1> #Run DFT-D3 single point of the dimer
|  2> ! wB97X-D3 def2-TZVP TIGHTSCF CHELPG PMODEL PAL8
|  3>
|  4> %base "21-11_DFT_AB"
|  5>
|  6> %scf
|  7> MaxIter 1000
|  8> end
|  9>
| 10> * xyz 0 1
| 11>   C                      -6.197209            -10.043977           -7.076087
| 12>   O                      -7.192169            -9.113181            -7.459103
| 13>   H                      -7.983588            -9.380507            -7.088494
| 14>   H                      -6.571320            -11.022002           -7.330227
| 15>   H                      -5.260879            -9.809619            -7.601295
| 16>   H                      -5.787484            -10.013825           -6.086584
| 17>   C                      -4.191851            -5.639233            -6.092348
| 18>   O                      -4.740001            -5.938197            -7.361074
| 19>   H                      -5.719560            -5.957338            -7.416808
| 20>   H                      -3.978246            -4.573620            -5.862607
| 21>   H                      -4.706726            -6.078706            -5.226175
| 22>   H                      -3.183972            -6.062330            -6.000709
| 23> *
| 24>
| 25> #Run DFT-D3 single point of the molecule with dimer basis set
| 26> $new_job
| 27> %base "21-11_DFT_A"
| 28> ! wB97X-D3 def2-TZVP TIGHTSCF CHELPG PMODEL
| 29>
| 30> %scf
| 31> MaxIter 1000
| 32> end
| 33>
| 34> * xyz 0 1
| 35>   C                      -6.197209            -10.043977           -7.076087
| 36>   O                      -7.192169            -9.113181            -7.459103
| 37>   H                      -7.983588            -9.380507            -7.088494
| 38>   H                      -6.571320            -11.022002           -7.330227
| 39>   H                      -5.260879            -9.809619            -7.601295
| 40>   H                      -5.787484            -10.013825           -6.086584
| 41>   C                    : -4.191851            -5.639233            -6.092348
| 42>   O                    : -4.740001            -5.938197            -7.361074
| 43>   H                    : -5.719560            -5.957338            -7.416808
| 44>   H                    : -3.978246            -4.573620            -5.862607
| 45>   H                    : -4.706726            -6.078706            -5.226175
| 46>   H                    : -3.183972            -6.062330            -6.000709
| 47> *
| 48>
| 49> #Run DFT-D3 single point of the particle with dimer basis set
| 50> $new_job
| 51> %base "21-11_DFT_B"
| 52> ! wB97X-D3 def2-TZVP TIGHTSCF CHELPG PMODEL
| 53>
| 54> %scf
| 55> MaxIter 1000
| 56> end
| 57>
| 58> * xyz 0 1
| 59>   C                    : -6.197209            -10.043977           -7.076087
| 60>   O                    : -7.192169            -9.113181            -7.459103
| 61>   H                    : -7.983588            -9.380507            -7.088494
| 62>   H                    : -6.571320            -11.022002           -7.330227
| 63>   H                    : -5.260879            -9.809619            -7.601295
| 64>   H                    : -5.787484            -10.013825           -6.086584
| 65>   C                      -4.191851            -5.639233            -6.092348
| 66>   O                      -4.740001            -5.938197            -7.361074
| 67>   H                      -5.719560            -5.957338            -7.416808
| 68>   H                      -3.978246            -4.573620            -5.862607
| 69>   H                      -4.706726            -6.078706            -5.226175
| 70>   H                      -3.183972            -6.062330            -6.000709
| 71> *
| 72>
| 73>                          ****END OF INPUT****
 Total Charge           Charge          ....    0
 Multiplicity           Mult            ....    1
 Number of Electrons    NEL             ....   36
Dispersion correction           -0.001144073
FINAL SINGLE POINT ENERGY      -231.461782946166
Dispersion correction           -0.000241853
FINAL SINGLE POINT ENERGY      -115.728764418526

CARTESIAN COORDINATES (ANGSTROEM)
---------------------------------
  C     -6.197209  -10.043977   -7.076087
  O     -7.192169   -9.113181   -7.459103
  H     -7.983588   -9.380507   -7.088494
  H     -6.571320  -11.022002   -7.330227
  H     -5.260879   -9.809619   -7.601295
  H     -5.787484  -10.013825   -6.086584
  C     -4.191851   -5.639233   -6.092348
  O     -4.740001   -5.938197   -7.361074
  H     -5.719560   -5.957338   -7.416808
  H     -3.978246   -4.573620   -5.862607
  H     -4.706726   -6.078706   -5.226175
  H     -3.183972   -6.062330   -6.000709

 Multiplicity           Mult            ....    1
 Number of Electrons    NEL             ....   18
 Basis Dimension        Dim             ....  172

ORBITAL ENERGIES
----------------

  NO   OCC          E(Eh)            E(eV)
   0   2.0000     -19.234868      -523.4074
   1   2.0000     -10.316122      -280.7159
   2   2.0000      -1.129139       -30.7254
   3   2.0000      -0.798784       -21.7360
   4   2.0000      -0.614348       -16.7173
   5   2.0000      -0.535902       -14.5826
   6   2.0000      -0.523768       -14.2525
   7   2.0000      -0.422927       -11.5084
   8   2.0000      -0.375038       -10.2053
   9   0.0000       0.081798         2.2258
  10   0.0000       0.122234         3.3261
  11   0.0000       0.142539         3.8787
  12   0.0000       0.165554         4.5050
  13   0.0000       0.194582         5.2948

MULLIKEN ATOMIC CHARGES
-----------------------
   0 C :   -0.002077
   1 O :    0.000146
   2 H :   -0.000006
   3 H :   -0.000113
   4 H :   -0.000529
   5 H :    0.000231
   6 C :   -0.156230
   7 O :   -0.488162
   8 H :    0.324108
   9 H :    0.101307
  10 H :    0.104362
  11 H :    0.116965
Sum of atomic charges:    0.0000000

LOEWDIN ATOMIC CHARGES
----------------------
   0 C :   -0.001263
   1 O :   -0.000401
   2 H :   -0.000033
   3 H :   -0.000050
   4 H :   -0.000564
   5 H :   -0.000036
   6 C :   -0.398037
   7 O :   -0.083105
   8 H :    0.181000
   9 H :    0.097408
  10 H :    0.096365
  11 H :    0.108716

  Mayer bond orders larger than 0.1
B(  6-C ,  7-O ) :   1.0070 B(  6-C ,  9-H ) :   0.9706 B(  6-C , 10-H ) :   0.9753
B(  6-C , 11-H ) :   0.9752 B(  7-O ,  8-H ) :   0.8867

Dispersion correction           -0.000294403
FINAL SINGLE POINT ENERGY      -115.731214375256

DIPOLE MOMENT
-------------
                                X             Y             Z
Electronic contribution:     -0.75134      -0.37472      -1.76809
Nuclear contribution   :      0.35003       0.46367       2.25570
                        -----------------------------------------
Total Dipole Moment    :     -0.40130       0.08894       0.48760
                        -----------------------------------------
Magnitude (a.u.)       :      0.63774
Magnitude (Debye)      :      1.62101

Rotational constants in cm-1:     4.537886     0.800398     0.777457
Rotational constants in MHz : 136042.414160 23995.326468 23307.561494

                             ****ORCA TERMINATED NORMALLY****
TOTAL RUN TIME: 0 days 0 hours 1 minutes 1 seconds 141 msec
