                         Program Version 4.1.2  - RELEASE  -
|  1> #Run DFT-D3 single point of the dimer
|  2> ! wB97X-D3 def2-TZVP TIGHTSCF CHELPG PMODEL PAL8
|  3>
|  4> %base "1-12_DFT_AB"
|  5>
|  6> %scf
|  7> MaxIter 1000
|  8> end
|  9>
| 10> * xyz 0 1
| 11>   C                      9.259421             10.062301            8.811759
| 12>   O                      8.381720             10.141234            7.690191
| 13>   H                      7.835794             9.333430             7.697897
| 14>   H                      9.945951             9.205096             8.643888
| 15>   H                      9.913457             10.956592            8.943988
| 16>   H                      8.689230             10.048208            9.744641
| 17>   C                      6.321475             9.201901             5.207391
| 18>   O                      7.361675             9.472823             6.147094
| 19>   H                      8.090684             9.082047             5.642757
| 20>   H                      6.586048             8.325435             4.592221
| 21>   H                      5.453284             8.830296             5.726521
| 22>   H                      6.038527             9.983989             4.532099
| 23> *
| 24>
| 25> #Run DFT-D3 single point of the molecule with dimer basis set
| 26> $new_job
| 27> %base "1-12_DFT_A"
| 28> ! wB97X-D3 def2-TZVP TIGHTSCF CHELPG PMODEL
| 29>
| 30> %scf
| 31> MaxIter 1000
| 32> end
| 33>
| 34> * xyz 0 1
| 35>   C                      9.259421             10.062301            8.811759
| 36>   O                      8.381720             10.141234            7.690191
| 37>   H                      7.835794             9.333430             7.697897
| 38>   H                      9.945951             9.205096             8.643888
| 39>   H                      9.913457             10.956592            8.943988
| 40>   H                      8.689230             10.048208            9.744641
| 41>   C                    : 6.321475             9.201901             5.207391
| 42>   O                    : 7.361675             9.472823             6.147094
| 43>   H                    : 8.090684             9.082047             5.642757
| 44>   H                    : 6.586048             8.325435             4.592221
| 45>   H                    : 5.453284             8.830296             5.726521
| 46>   H                    : 6.038527             9.983989             4.532099
| 47> *
| 48>
| 49> #Run DFT-D3 single point of the particle with dimer basis set
| 50> $new_job
| 51> %base "1-12_DFT_B"
| 52> ! wB97X-D3 def2-TZVP TIGHTSCF CHELPG PMODEL
| 53>
| 54> %scf
| 55> MaxIter 1000
| 56> end
| 57>
| 58> * xyz 0 1
| 59>   C                    : 9.259421             10.062301            8.811759
| 60>   O                    : 8.381720             10.141234            7.690191
| 61>   H                    : 7.835794             9.333430             7.697897
| 62>   H                    : 9.945951             9.205096             8.643888
| 63>   H                    : 9.913457             10.956592            8.943988
| 64>   H                    : 8.689230             10.048208            9.744641
| 65>   C                      6.321475             9.201901             5.207391
| 66>   O                      7.361675             9.472823             6.147094
| 67>   H                      8.090684             9.082047             5.642757
| 68>   H                      6.586048             8.325435             4.592221
| 69>   H                      5.453284             8.830296             5.726521
| 70>   H                      6.038527             9.983989             4.532099
| 71> *
| 72>
| 73>                          ****END OF INPUT****
 Total Charge           Charge          ....    0
 Multiplicity           Mult            ....    1
 Number of Electrons    NEL             ....   36
Dispersion correction           -0.001567367
FINAL SINGLE POINT ENERGY      -231.420971184787
Dispersion correction           -0.000244237
FINAL SINGLE POINT ENERGY      -115.733486659512

CARTESIAN COORDINATES (ANGSTROEM)
---------------------------------
  C      9.259421   10.062301    8.811759
  O      8.381720   10.141234    7.690191
  H      7.835794    9.333430    7.697897
  H      9.945951    9.205096    8.643888
  H      9.913457   10.956592    8.943988
  H      8.689230   10.048208    9.744641
  C      6.321475    9.201901    5.207391
  O      7.361675    9.472823    6.147094
  H      8.090684    9.082047    5.642757
  H      6.586048    8.325435    4.592221
  H      5.453284    8.830296    5.726521
  H      6.038527    9.983989    4.532099

 Multiplicity           Mult            ....    1
 Number of Electrons    NEL             ....   18
 Basis Dimension        Dim             ....  172

ORBITAL ENERGIES
----------------

  NO   OCC          E(Eh)            E(eV)
   0   2.0000     -19.237128      -523.4689
   1   2.0000     -10.311543      -280.5914
   2   2.0000      -1.139494       -31.0072
   3   2.0000      -0.795901       -21.6576
   4   2.0000      -0.608706       -16.5637
   5   2.0000      -0.548832       -14.9345
   6   2.0000      -0.523777       -14.2527
   7   2.0000      -0.439270       -11.9532
   8   2.0000      -0.380741       -10.3605
   9   0.0000       0.096629         2.6294
  10   0.0000       0.120843         3.2883
  11   0.0000       0.154426         4.2021
  12   0.0000       0.188239         5.1223
  13   0.0000       0.205867         5.6019

MULLIKEN ATOMIC CHARGES
-----------------------
   0 C :    0.000230
   1 O :    0.014745
   2 H :   -0.015167
   3 H :   -0.000312
   4 H :    0.000271
   5 H :   -0.000131
   6 C :   -0.199952
   7 O :   -0.456244
   8 H :    0.320814
   9 H :    0.100626
  10 H :    0.121573
  11 H :    0.113547
Sum of atomic charges:   -0.0000000

LOEWDIN ATOMIC CHARGES
----------------------
   0 C :   -0.005179
   1 O :   -0.095099
   2 H :   -0.072933
   3 H :   -0.000228
   4 H :   -0.000133
   5 H :   -0.000148
   6 C :   -0.376908
   7 O :    0.063052
   8 H :    0.189978
   9 H :    0.101005
  10 H :    0.103132
  11 H :    0.093464

  Mayer bond orders larger than 0.1
B(  6-C ,  7-O ) :   1.0133 B(  6-C ,  9-H ) :   0.9886 B(  6-C , 10-H ) :   0.9823
B(  6-C , 11-H ) :   0.9650 B(  7-O ,  8-H ) :   0.8974

Dispersion correction           -0.000232900
FINAL SINGLE POINT ENERGY      -115.729998436941

DIPOLE MOMENT
-------------
                                X             Y             Z
Electronic contribution:      1.25535       0.61515       1.35049
Nuclear contribution   :     -1.21794      -0.98583      -2.02921
                        -----------------------------------------
Total Dipole Moment    :      0.03742      -0.37068      -0.67872
                        -----------------------------------------
Magnitude (a.u.)       :      0.77425
Magnitude (Debye)      :      1.96799

Rotational constants in cm-1:     4.337605     0.823654     0.796587
Rotational constants in MHz : 130038.125559 24692.518327 23881.086742

                             ****ORCA TERMINATED NORMALLY****
TOTAL RUN TIME: 0 days 0 hours 5 minutes 45 seconds 332 msec
