                         Program Version 4.1.2  - RELEASE  -
|  1> #Run DFT-D3 single point of the dimer
|  2> ! wB97X-D3 def2-TZVP TIGHTSCF CHELPG PMODEL PAL8
|  3>
|  4> %base "11-48_DFT_AB"
|  5>
|  6> %scf
|  7> MaxIter 1000
|  8> end
|  9>
| 10> * xyz 0 1
| 11>   C                      -6.809828            -7.466043            3.576054
| 12>   O                      -7.899568            -7.122431            2.761647
| 13>   H                      -8.485116            -6.571884            3.300043
| 14>   H                      -6.140757            -8.235801            3.211368
| 15>   H                      -6.195975            -6.624707            3.804071
| 16>   H                      -7.153628            -7.872314            4.553636
| 17>   C                      -9.661677            -9.648126            5.480379
| 18>   O                      -11.019592           -9.294681            5.404644
| 19>   H                      -11.359556           -9.501922            4.492252
| 20>   H                      -9.006383            -8.848764            4.968693
| 21>   H                      -9.426426            -9.559647            6.580835
| 22>   H                      -9.385927            -10.610698           5.032360
| 23> *
| 24>
| 25> #Run DFT-D3 single point of the molecule with dimer basis set
| 26> $new_job
| 27> %base "11-48_DFT_A"
| 28> ! wB97X-D3 def2-TZVP TIGHTSCF CHELPG PMODEL
| 29>
| 30> %scf
| 31> MaxIter 1000
| 32> end
| 33>
| 34> * xyz 0 1
| 35>   C                      -6.809828            -7.466043            3.576054
| 36>   O                      -7.899568            -7.122431            2.761647
| 37>   H                      -8.485116            -6.571884            3.300043
| 38>   H                      -6.140757            -8.235801            3.211368
| 39>   H                      -6.195975            -6.624707            3.804071
| 40>   H                      -7.153628            -7.872314            4.553636
| 41>   C                    : -9.661677            -9.648126            5.480379
| 42>   O                    : -11.019592           -9.294681            5.404644
| 43>   H                    : -11.359556           -9.501922            4.492252
| 44>   H                    : -9.006383            -8.848764            4.968693
| 45>   H                    : -9.426426            -9.559647            6.580835
| 46>   H                    : -9.385927            -10.610698           5.032360
| 47> *
| 48>
| 49> #Run DFT-D3 single point of the particle with dimer basis set
| 50> $new_job
| 51> %base "11-48_DFT_B"
| 52> ! wB97X-D3 def2-TZVP TIGHTSCF CHELPG PMODEL
| 53>
| 54> %scf
| 55> MaxIter 1000
| 56> end
| 57>
| 58> * xyz 0 1
| 59>   C                    : -6.809828            -7.466043            3.576054
| 60>   O                    : -7.899568            -7.122431            2.761647
| 61>   H                    : -8.485116            -6.571884            3.300043
| 62>   H                    : -6.140757            -8.235801            3.211368
| 63>   H                    : -6.195975            -6.624707            3.804071
| 64>   H                    : -7.153628            -7.872314            4.553636
| 65>   C                      -9.661677            -9.648126            5.480379
| 66>   O                      -11.019592           -9.294681            5.404644
| 67>   H                      -11.359556           -9.501922            4.492252
| 68>   H                      -9.006383            -8.848764            4.968693
| 69>   H                      -9.426426            -9.559647            6.580835
| 70>   H                      -9.385927            -10.610698           5.032360
| 71> *
| 72>
| 73>                          ****END OF INPUT****
 Total Charge           Charge          ....    0
 Multiplicity           Mult            ....    1
 Number of Electrons    NEL             ....   36
Dispersion correction           -0.001540456
FINAL SINGLE POINT ENERGY      -231.466559403869
Dispersion correction           -0.000234372
FINAL SINGLE POINT ENERGY      -115.733515033653

CARTESIAN COORDINATES (ANGSTROEM)
---------------------------------
  C     -6.809828   -7.466043    3.576054
  O     -7.899568   -7.122431    2.761647
  H     -8.485116   -6.571884    3.300043
  H     -6.140757   -8.235801    3.211368
  H     -6.195975   -6.624707    3.804071
  H     -7.153628   -7.872314    4.553636
  C     -9.661677   -9.648126    5.480379
  O    -11.019592   -9.294681    5.404644
  H    -11.359556   -9.501922    4.492252
  H     -9.006383   -8.848764    4.968693
  H     -9.426426   -9.559647    6.580835
  H     -9.385927  -10.610698    5.032360

 Multiplicity           Mult            ....    1
 Number of Electrons    NEL             ....   18
 Basis Dimension        Dim             ....  172

ORBITAL ENERGIES
----------------

  NO   OCC          E(Eh)            E(eV)
   0   2.0000     -19.234682      -523.4023
   1   2.0000     -10.322143      -280.8798
   2   2.0000      -1.133304       -30.8388
   3   2.0000      -0.784994       -21.3608
   4   2.0000      -0.612003       -16.6535
   5   2.0000      -0.532354       -14.4861
   6   2.0000      -0.520524       -14.1642
   7   2.0000      -0.435501       -11.8506
   8   2.0000      -0.368940       -10.0394
   9   0.0000       0.084755         2.3063
  10   0.0000       0.112992         3.0747
  11   0.0000       0.154784         4.2119
  12   0.0000       0.166107         4.5200
  13   0.0000       0.192389         5.2352

MULLIKEN ATOMIC CHARGES
-----------------------
   0 C :   -0.000284
   1 O :    0.000581
   2 H :    0.000537
   3 H :   -0.000119
   4 H :   -0.000279
   5 H :   -0.002658
   6 C :   -0.154141
   7 O :   -0.473204
   8 H :    0.315299
   9 H :    0.090923
  10 H :    0.117765
  11 H :    0.105581
Sum of atomic charges:   -0.0000000

LOEWDIN ATOMIC CHARGES
----------------------
   0 C :   -0.007008
   1 O :   -0.000683
   2 H :   -0.000733
   3 H :   -0.000135
   4 H :   -0.000074
   5 H :   -0.009020
   6 C :   -0.404828
   7 O :   -0.085466
   8 H :    0.187618
   9 H :    0.109219
  10 H :    0.117746
  11 H :    0.093364

  Mayer bond orders larger than 0.1
B(  6-C ,  7-O ) :   0.9994 B(  6-C ,  9-H ) :   0.9765 B(  6-C , 10-H ) :   0.9708
B(  6-C , 11-H ) :   0.9674 B(  7-O ,  8-H ) :   0.8932

Dispersion correction           -0.000259826
FINAL SINGLE POINT ENERGY      -115.731788172752

DIPOLE MOMENT
-------------
                                X             Y             Z
Electronic contribution:     -1.81402       0.32402       0.01846
Nuclear contribution   :      2.09866      -0.60108      -0.55321
                        -----------------------------------------
Total Dipole Moment    :      0.28464      -0.27705      -0.53474
                        -----------------------------------------
Magnitude (a.u.)       :      0.66613
Magnitude (Debye)      :      1.69316

Rotational constants in cm-1:     4.030225     0.836350     0.799005
Rotational constants in MHz : 120823.106858 25073.147129 23953.552783

                             ****ORCA TERMINATED NORMALLY****
TOTAL RUN TIME: 0 days 0 hours 1 minutes 7 seconds 845 msec
