                         Program Version 4.1.2  - RELEASE  -
|  1> #Run DFT-D3 single point of the dimer
|  2> ! wB97X-D3 def2-TZVP TIGHTSCF CHELPG PMODEL PAL8
|  3>
|  4> %base "21-58_DFT_AB"
|  5>
|  6> %scf
|  7> MaxIter 1000
|  8> end
|  9>
| 10> * xyz 0 1
| 11>   C                      -5.021241            -8.045832            2.494545
| 12>   O                      -5.989247            -7.308026            3.203133
| 13>   H                      -6.772489            -7.218520            2.640288
| 14>   H                      -4.100609            -8.060883            3.101031
| 15>   H                      -5.262900            -9.056602            2.291049
| 16>   H                      -4.833772            -7.685138            1.454732
| 17>   C                      -8.070406            -4.503512            0.294764
| 18>   O                      -8.673569            -5.587107            -0.386314
| 19>   H                      -9.563237            -5.630320            -0.002070
| 20>   H                      -7.873048            -4.860077            1.333254
| 21>   H                      -7.174208            -4.111271            -0.251197
| 22>   H                      -8.697759            -3.599668            0.320643
| 23> *
| 24>
| 25> #Run DFT-D3 single point of the molecule with dimer basis set
| 26> $new_job
| 27> %base "21-58_DFT_A"
| 28> ! wB97X-D3 def2-TZVP TIGHTSCF CHELPG PMODEL
| 29>
| 30> %scf
| 31> MaxIter 1000
| 32> end
| 33>
| 34> * xyz 0 1
| 35>   C                      -5.021241            -8.045832            2.494545
| 36>   O                      -5.989247            -7.308026            3.203133
| 37>   H                      -6.772489            -7.218520            2.640288
| 38>   H                      -4.100609            -8.060883            3.101031
| 39>   H                      -5.262900            -9.056602            2.291049
| 40>   H                      -4.833772            -7.685138            1.454732
| 41>   C                    : -8.070406            -4.503512            0.294764
| 42>   O                    : -8.673569            -5.587107            -0.386314
| 43>   H                    : -9.563237            -5.630320            -0.002070
| 44>   H                    : -7.873048            -4.860077            1.333254
| 45>   H                    : -7.174208            -4.111271            -0.251197
| 46>   H                    : -8.697759            -3.599668            0.320643
| 47> *
| 48>
| 49> #Run DFT-D3 single point of the particle with dimer basis set
| 50> $new_job
| 51> %base "21-58_DFT_B"
| 52> ! wB97X-D3 def2-TZVP TIGHTSCF CHELPG PMODEL
| 53>
| 54> %scf
| 55> MaxIter 1000
| 56> end
| 57>
| 58> * xyz 0 1
| 59>   C                    : -5.021241            -8.045832            2.494545
| 60>   O                    : -5.989247            -7.308026            3.203133
| 61>   H                    : -6.772489            -7.218520            2.640288
| 62>   H                    : -4.100609            -8.060883            3.101031
| 63>   H                    : -5.262900            -9.056602            2.291049
| 64>   H                    : -4.833772            -7.685138            1.454732
| 65>   C                      -8.070406            -4.503512            0.294764
| 66>   O                      -8.673569            -5.587107            -0.386314
| 67>   H                      -9.563237            -5.630320            -0.002070
| 68>   H                      -7.873048            -4.860077            1.333254
| 69>   H                      -7.174208            -4.111271            -0.251197
| 70>   H                      -8.697759            -3.599668            0.320643
| 71> *
| 72>
| 73>                          ****END OF INPUT****
 Total Charge           Charge          ....    0
 Multiplicity           Mult            ....    1
 Number of Electrons    NEL             ....   36
Dispersion correction           -0.001008320
FINAL SINGLE POINT ENERGY      -231.467122654146
Dispersion correction           -0.000248837
FINAL SINGLE POINT ENERGY      -115.733689132598

CARTESIAN COORDINATES (ANGSTROEM)
---------------------------------
  C     -5.021241   -8.045832    2.494545
  O     -5.989247   -7.308026    3.203133
  H     -6.772489   -7.218520    2.640288
  H     -4.100609   -8.060883    3.101031
  H     -5.262900   -9.056602    2.291049
  H     -4.833772   -7.685138    1.454732
  C     -8.070406   -4.503512    0.294764
  O     -8.673569   -5.587107   -0.386314
  H     -9.563237   -5.630320   -0.002070
  H     -7.873048   -4.860077    1.333254
  H     -7.174208   -4.111271   -0.251197
  H     -8.697759   -3.599668    0.320643

 Multiplicity           Mult            ....    1
 Number of Electrons    NEL             ....   18
 Basis Dimension        Dim             ....  172

ORBITAL ENERGIES
----------------

  NO   OCC          E(Eh)            E(eV)
   0   2.0000     -19.231886      -523.3262
   1   2.0000     -10.318903      -280.7916
   2   2.0000      -1.137278       -30.9469
   3   2.0000      -0.788142       -21.4464
   4   2.0000      -0.606709       -16.5094
   5   2.0000      -0.550827       -14.9888
   6   2.0000      -0.517923       -14.0934
   7   2.0000      -0.432915       -11.7802
   8   2.0000      -0.373294       -10.1579
   9   0.0000       0.087665         2.3855
  10   0.0000       0.115376         3.1395
  11   0.0000       0.151430         4.1206
  12   0.0000       0.166583         4.5329
  13   0.0000       0.194089         5.2814

MULLIKEN ATOMIC CHARGES
-----------------------
   0 C :   -0.000274
   1 O :   -0.000197
   2 H :    0.000913
   3 H :    0.000007
   4 H :    0.000003
   5 H :    0.000025
   6 C :   -0.173951
   7 O :   -0.466995
   8 H :    0.315943
   9 H :    0.102144
  10 H :    0.117404
  11 H :    0.104978
Sum of atomic charges:    0.0000000

LOEWDIN ATOMIC CHARGES
----------------------
   0 C :   -0.000069
   1 O :   -0.000142
   2 H :   -0.000713
   3 H :   -0.000001
   4 H :   -0.000001
   5 H :   -0.000013
   6 C :   -0.397811
   7 O :   -0.085001
   8 H :    0.177341
   9 H :    0.099465
  10 H :    0.113124
  11 H :    0.093821

  Mayer bond orders larger than 0.1
B(  6-C ,  7-O ) :   0.9982 B(  6-C ,  9-H ) :   0.9790 B(  6-C , 10-H ) :   0.9700
B(  6-C , 11-H ) :   0.9764 B(  7-O ,  8-H ) :   0.8990

Dispersion correction           -0.000230642
FINAL SINGLE POINT ENERGY      -115.732223539437

DIPOLE MOMENT
-------------
                                X             Y             Z
Electronic contribution:     -0.61368      -1.45746      -0.97312
Nuclear contribution   :      0.28424       1.86888       1.45276
                        -----------------------------------------
Total Dipole Moment    :     -0.32943       0.41142       0.47964
                        -----------------------------------------
Magnitude (a.u.)       :      0.71264
Magnitude (Debye)      :      1.81138

Rotational constants in cm-1:     4.122814     0.830676     0.803650
Rotational constants in MHz : 123598.867113 24903.031238 24092.819378

                             ****ORCA TERMINATED NORMALLY****
TOTAL RUN TIME: 0 days 0 hours 1 minutes 4 seconds 636 msec
