                         Program Version 4.1.2  - RELEASE  -
|  1> #Run DFT-D3 single point of the dimer
|  2> ! wB97X-D3 def2-TZVP TIGHTSCF  CHELPG PAL8
|  3>
|  4> %base "24_charges"
|  5>
|  6> %scf
|  7> MaxIter 1000
|  8> end
|  9> %output
| 10>   Print[ P_Mayer ] 1
| 11>   Print[ P_NatPop ] 1
| 12>   Print[ P_Hirshfeld ] 1
| 13>   Print[ P_Mulliken ] 1
| 14>   Print [ P_Loewdin ] 1
| 15> end
| 16>
| 17> * xyz 0 1
| 18>   C                      11.461288            -3.231301            -2.499118
| 19>   O                      10.237745            -2.585928            -2.646463
| 20>   H                      9.697166             -2.979877            -3.377355
| 21>   H                      12.087284            -2.778014            -1.724846
| 22>   H                      11.428814            -4.273659            -2.233638
| 23>   H                      11.984478            -3.100720            -3.392232
| 24> *
| 25>
| 26>                          ****END OF INPUT****

CARTESIAN COORDINATES (ANGSTROEM)
---------------------------------
  C     11.461288   -3.231301   -2.499118
  O     10.237745   -2.585928   -2.646463
  H      9.697166   -2.979877   -3.377355
  H     12.087284   -2.778014   -1.724846
  H     11.428814   -4.273659   -2.233638
  H     11.984478   -3.100720   -3.392232

 Total Charge           Charge          ....    0
 Multiplicity           Mult            ....    1
 Number of Electrons    NEL             ....   18
 Basis Dimension        Dim             ....   86

ORBITAL ENERGIES
----------------

  NO   OCC          E(Eh)            E(eV)
   0   2.0000     -19.229673      -523.2660
   1   2.0000     -10.302366      -280.3416
   2   2.0000      -1.134367       -30.8677
   3   2.0000      -0.798875       -21.7385
   4   2.0000      -0.611982       -16.6529
   5   2.0000      -0.551983       -15.0202
   6   2.0000      -0.529487       -14.4081
   7   2.0000      -0.422930       -11.5085
   8   2.0000      -0.371969       -10.1218
   9   0.0000       0.114145         3.1061
  10   0.0000       0.154707         4.2098
  11   0.0000       0.207412         5.6440
  12   0.0000       0.212983         5.7956
  13   0.0000       0.225534         6.1371

MULLIKEN ATOMIC CHARGES
-----------------------
   0 C :   -0.150703
   1 O :   -0.486258
   2 H :    0.320244
   3 H :    0.113927
   4 H :    0.097668
   5 H :    0.105122
Sum of atomic charges:   -0.0000000

LOEWDIN ATOMIC CHARGES
----------------------
   0 C :   -0.398326
   1 O :   -0.076058
   2 H :    0.188138
   3 H :    0.110462
   4 H :    0.089949
   5 H :    0.085835

  Mayer bond orders larger than 0.1
B(  0-C ,  1-O ) :   0.9980 B(  0-C ,  3-H ) :   0.9710 B(  0-C ,  4-H ) :   0.9722
B(  0-C ,  5-H ) :   0.9899 B(  1-O ,  2-H ) :   0.8886

Dispersion correction           -0.000235882
FINAL SINGLE POINT ENERGY      -115.731072580209

DIPOLE MOMENT
-------------
                                X             Y             Z
Electronic contribution:     -1.59534       0.87421      -0.08565
Nuclear contribution   :      1.75293      -1.37423      -0.32466
                        -----------------------------------------
Total Dipole Moment    :      0.15759      -0.50002      -0.41031
                        -----------------------------------------
Magnitude (a.u.)       :      0.66574
Magnitude (Debye)      :      1.69218

Rotational constants in cm-1:     4.536563     0.845275     0.816833
Rotational constants in MHz : 136002.747968 25340.707929 24488.044169

                             ****ORCA TERMINATED NORMALLY****
TOTAL RUN TIME: 0 days 0 hours 0 minutes 40 seconds 397 msec
