                         Program Version 4.1.2  - RELEASE  -
|  1> #Run DFT-D3 single point of the dimer
|  2> ! wB97X-D3 def2-TZVP TIGHTSCF CHELPG PMODEL PAL8
|  3>
|  4> %base "17-164_DFT_AB"
|  5>
|  6> %scf
|  7> MaxIter 1000
|  8> end
|  9>
| 10> * xyz 0 1
| 11>   C                      10.771608            5.192994             -3.288816
| 12>   O                      9.362997             5.246545             -3.623818
| 13>   H                      8.855624             5.697290             -2.908676
| 14>   H                      10.908281            4.526235             -2.414384
| 15>   H                      11.537811            4.895017             -4.018694
| 16>   H                      11.083453            6.185757             -2.910122
| 17>   C                      8.235340             8.821451             -2.245751
| 18>   O                      8.494879             7.507418             -1.816378
| 19>   H                      9.430188             7.548700             -1.544468
| 20>   H                      8.709518             9.197691             -3.134328
| 21>   H                      7.129239             8.888882             -2.486787
| 22>   H                      8.454446             9.556951             -1.442571
| 23> *
| 24>
| 25> #Run DFT-D3 single point of the molecule with dimer basis set
| 26> $new_job
| 27> %base "17-164_DFT_A"
| 28> ! wB97X-D3 def2-TZVP TIGHTSCF CHELPG PMODEL
| 29>
| 30> %scf
| 31> MaxIter 1000
| 32> end
| 33>
| 34> * xyz 0 1
| 35>   C                      10.771608            5.192994             -3.288816
| 36>   O                      9.362997             5.246545             -3.623818
| 37>   H                      8.855624             5.697290             -2.908676
| 38>   H                      10.908281            4.526235             -2.414384
| 39>   H                      11.537811            4.895017             -4.018694
| 40>   H                      11.083453            6.185757             -2.910122
| 41>   C                    : 8.235340             8.821451             -2.245751
| 42>   O                    : 8.494879             7.507418             -1.816378
| 43>   H                    : 9.430188             7.548700             -1.544468
| 44>   H                    : 8.709518             9.197691             -3.134328
| 45>   H                    : 7.129239             8.888882             -2.486787
| 46>   H                    : 8.454446             9.556951             -1.442571
| 47> *
| 48>
| 49> #Run DFT-D3 single point of the particle with dimer basis set
| 50> $new_job
| 51> %base "17-164_DFT_B"
| 52> ! wB97X-D3 def2-TZVP TIGHTSCF CHELPG PMODEL
| 53>
| 54> %scf
| 55> MaxIter 1000
| 56> end
| 57>
| 58> * xyz 0 1
| 59>   C                    : 10.771608            5.192994             -3.288816
| 60>   O                    : 9.362997             5.246545             -3.623818
| 61>   H                    : 8.855624             5.697290             -2.908676
| 62>   H                    : 10.908281            4.526235             -2.414384
| 63>   H                    : 11.537811            4.895017             -4.018694
| 64>   H                    : 11.083453            6.185757             -2.910122
| 65>   C                      8.235340             8.821451             -2.245751
| 66>   O                      8.494879             7.507418             -1.816378
| 67>   H                      9.430188             7.548700             -1.544468
| 68>   H                      8.709518             9.197691             -3.134328
| 69>   H                      7.129239             8.888882             -2.486787
| 70>   H                      8.454446             9.556951             -1.442571
| 71> *
| 72>
| 73>                          ****END OF INPUT****
 Total Charge           Charge          ....    0
 Multiplicity           Mult            ....    1
 Number of Electrons    NEL             ....   36
Dispersion correction           -0.001827447
FINAL SINGLE POINT ENERGY      -231.466592287126
Dispersion correction           -0.000266666
FINAL SINGLE POINT ENERGY      -115.727481916486

CARTESIAN COORDINATES (ANGSTROEM)
---------------------------------
  C     10.771608    5.192994   -3.288816
  O      9.362997    5.246545   -3.623818
  H      8.855624    5.697290   -2.908676
  H     10.908281    4.526235   -2.414384
  H     11.537811    4.895017   -4.018694
  H     11.083453    6.185757   -2.910122
  C      8.235340    8.821451   -2.245751
  O      8.494879    7.507418   -1.816378
  H      9.430188    7.548700   -1.544468
  H      8.709518    9.197691   -3.134328
  H      7.129239    8.888882   -2.486787
  H      8.454446    9.556951   -1.442571

 Multiplicity           Mult            ....    1
 Number of Electrons    NEL             ....   18
 Basis Dimension        Dim             ....  172

ORBITAL ENERGIES
----------------

  NO   OCC          E(Eh)            E(eV)
   0   2.0000     -19.239332      -523.5289
   1   2.0000     -10.316167      -280.7172
   2   2.0000      -1.142544       -31.0902
   3   2.0000      -0.791109       -21.5272
   4   2.0000      -0.614545       -16.7226
   5   2.0000      -0.542882       -14.7726
   6   2.0000      -0.521527       -14.1915
   7   2.0000      -0.437892       -11.9156
   8   2.0000      -0.377288       -10.2665
   9   0.0000       0.085754         2.3335
  10   0.0000       0.127939         3.4814
  11   0.0000       0.153658         4.1813
  12   0.0000       0.180487         4.9113
  13   0.0000       0.194558         5.2942

MULLIKEN ATOMIC CHARGES
-----------------------
   0 C :   -0.001378
   1 O :   -0.000131
   2 H :   -0.005960
   3 H :    0.000093
   4 H :   -0.000434
   5 H :   -0.005451
   6 C :   -0.177140
   7 O :   -0.449866
   8 H :    0.318273
   9 H :    0.103609
  10 H :    0.115566
  11 H :    0.102819
Sum of atomic charges:    0.0000000

LOEWDIN ATOMIC CHARGES
----------------------
   0 C :   -0.004250
   1 O :   -0.004314
   2 H :   -0.028275
   3 H :   -0.000075
   4 H :   -0.000058
   5 H :   -0.003039
   6 C :   -0.406711
   7 O :   -0.040404
   8 H :    0.184312
   9 H :    0.087900
  10 H :    0.116919
  11 H :    0.097995

  Mayer bond orders larger than 0.1
B(  6-C ,  7-O ) :   1.0038 B(  6-C ,  9-H ) :   0.9617 B(  6-C , 10-H ) :   0.9786
B(  6-C , 11-H ) :   0.9780 B(  7-O ,  8-H ) :   0.8957

Dispersion correction           -0.000244419
FINAL SINGLE POINT ENERGY      -115.733359523962

DIPOLE MOMENT
-------------
                                X             Y             Z
Electronic contribution:      0.31389      -1.84654       0.49789
Nuclear contribution   :      0.15660       2.37577      -0.49412
                        -----------------------------------------
Total Dipole Moment    :      0.47049       0.52923       0.00377
                        -----------------------------------------
Magnitude (a.u.)       :      0.70814
Magnitude (Debye)      :      1.79995

Rotational constants in cm-1:     4.242720     0.836799     0.799121
Rotational constants in MHz : 127193.551641 25086.605073 23957.052032

                             ****ORCA TERMINATED NORMALLY****
TOTAL RUN TIME: 0 days 0 hours 1 minutes 13 seconds 653 msec
