                         Program Version 4.1.2  - RELEASE  -
|  1> #Run DFT-D3 single point of the dimer
|  2> ! wB97X-D3 def2-TZVP TIGHTSCF CHELPG PMODEL PAL8
|  3>
|  4> %base "1-5_DFT_AB"
|  5>
|  6> %scf
|  7> MaxIter 1000
|  8> end
|  9>
| 10> * xyz 0 1
| 11>   C                      -7.729322            4.427341             8.202547
| 12>   O                      -7.019809            3.335802             7.681465
| 13>   H                      -7.560810            2.547871             7.585349
| 14>   H                      -8.077797            4.298807             9.202275
| 15>   H                      -7.121937            5.329664             8.121222
| 16>   H                      -8.610645            4.817844             7.611276
| 17>   C                      -10.442349           0.332718             11.210148
| 18>   O                      -11.387293           0.386545             12.249801
| 19>   H                      -11.053969           -0.094756            13.034461
| 20>   H                      -10.760894           0.795159             10.323181
| 21>   H                      -9.503066            0.775429             11.469654
| 22>   H                      -10.242103           -0.749359            11.023819
| 23> *
| 24>
| 25> #Run DFT-D3 single point of the molecule with dimer basis set
| 26> $new_job
| 27> %base "1-5_DFT_A"
| 28> ! wB97X-D3 def2-TZVP TIGHTSCF CHELPG PMODEL
| 29>
| 30> %scf
| 31> MaxIter 1000
| 32> end
| 33>
| 34> * xyz 0 1
| 35>   C                      -7.729322            4.427341             8.202547
| 36>   O                      -7.019809            3.335802             7.681465
| 37>   H                      -7.560810            2.547871             7.585349
| 38>   H                      -8.077797            4.298807             9.202275
| 39>   H                      -7.121937            5.329664             8.121222
| 40>   H                      -8.610645            4.817844             7.611276
| 41>   C                    : -10.442349           0.332718             11.210148
| 42>   O                    : -11.387293           0.386545             12.249801
| 43>   H                    : -11.053969           -0.094756            13.034461
| 44>   H                    : -10.760894           0.795159             10.323181
| 45>   H                    : -9.503066            0.775429             11.469654
| 46>   H                    : -10.242103           -0.749359            11.023819
| 47> *
| 48>
| 49> #Run DFT-D3 single point of the particle with dimer basis set
| 50> $new_job
| 51> %base "1-5_DFT_B"
| 52> ! wB97X-D3 def2-TZVP TIGHTSCF CHELPG PMODEL
| 53>
| 54> %scf
| 55> MaxIter 1000
| 56> end
| 57>
| 58> * xyz 0 1
| 59>   C                    : -7.729322            4.427341             8.202547
| 60>   O                    : -7.019809            3.335802             7.681465
| 61>   H                    : -7.560810            2.547871             7.585349
| 62>   H                    : -8.077797            4.298807             9.202275
| 63>   H                    : -7.121937            5.329664             8.121222
| 64>   H                    : -8.610645            4.817844             7.611276
| 65>   C                      -10.442349           0.332718             11.210148
| 66>   O                      -11.387293           0.386545             12.249801
| 67>   H                      -11.053969           -0.094756            13.034461
| 68>   H                      -10.760894           0.795159             10.323181
| 69>   H                      -9.503066            0.775429             11.469654
| 70>   H                      -10.242103           -0.749359            11.023819
| 71> *
| 72>
| 73>                          ****END OF INPUT****
 Total Charge           Charge          ....    0
 Multiplicity           Mult            ....    1
 Number of Electrons    NEL             ....   36
Dispersion correction           -0.000659604
FINAL SINGLE POINT ENERGY      -231.464687288974
Dispersion correction           -0.000274682
FINAL SINGLE POINT ENERGY      -115.731928197733

CARTESIAN COORDINATES (ANGSTROEM)
---------------------------------
  C     -7.729322    4.427341    8.202547
  O     -7.019809    3.335802    7.681465
  H     -7.560810    2.547871    7.585349
  H     -8.077797    4.298807    9.202275
  H     -7.121937    5.329664    8.121222
  H     -8.610645    4.817844    7.611276
  C    -10.442349    0.332718   11.210148
  O    -11.387293    0.386545   12.249801
  H    -11.053969   -0.094756   13.034461
  H    -10.760894    0.795159   10.323181
  H     -9.503066    0.775429   11.469654
  H    -10.242103   -0.749359   11.023819

 Multiplicity           Mult            ....    1
 Number of Electrons    NEL             ....   18
 Basis Dimension        Dim             ....  172

ORBITAL ENERGIES
----------------

  NO   OCC          E(Eh)            E(eV)
   0   2.0000     -19.228970      -523.2469
   1   2.0000     -10.307132      -280.4713
   2   2.0000      -1.132749       -30.8237
   3   2.0000      -0.798291       -21.7226
   4   2.0000      -0.609789       -16.5932
   5   2.0000      -0.542695       -14.7675
   6   2.0000      -0.535465       -14.5707
   7   2.0000      -0.430487       -11.7142
   8   2.0000      -0.368938       -10.0393
   9   0.0000       0.083267         2.2658
  10   0.0000       0.113050         3.0763
  11   0.0000       0.148182         4.0322
  12   0.0000       0.165485         4.5031
  13   0.0000       0.195594         5.3224

MULLIKEN ATOMIC CHARGES
-----------------------
   0 C :    0.000021
   1 O :    0.000002
   2 H :   -0.000009
   3 H :   -0.000063
   4 H :   -0.000002
   5 H :   -0.000002
   6 C :   -0.147047
   7 O :   -0.480835
   8 H :    0.318780
   9 H :    0.120702
  10 H :    0.096314
  11 H :    0.092139
Sum of atomic charges:    0.0000000

LOEWDIN ATOMIC CHARGES
----------------------
   0 C :   -0.000016
   1 O :   -0.000001
   2 H :   -0.000009
   3 H :   -0.000028
   4 H :   -0.000000
   5 H :   -0.000000
   6 C :   -0.383108
   7 O :   -0.083293
   8 H :    0.180915
   9 H :    0.097914
  10 H :    0.088058
  11 H :    0.099569

  Mayer bond orders larger than 0.1
B(  6-C ,  7-O ) :   0.9976 B(  6-C ,  9-H ) :   0.9722 B(  6-C , 10-H ) :   0.9752
B(  6-C , 11-H ) :   0.9893 B(  7-O ,  8-H ) :   0.8925

Dispersion correction           -0.000228435
FINAL SINGLE POINT ENERGY      -115.732678203102

DIPOLE MOMENT
-------------
                                X             Y             Z
Electronic contribution:     -1.34345       0.28564       1.18575
Nuclear contribution   :      1.93522      -0.59586      -1.11210
                        -----------------------------------------
Total Dipole Moment    :      0.59177      -0.31022       0.07366
                        -----------------------------------------
Magnitude (a.u.)       :      0.67220
Magnitude (Debye)      :      1.70860

Rotational constants in cm-1:     4.401112     0.838630     0.807768
Rotational constants in MHz : 131942.014874 25141.488387 24216.287557

                             ****ORCA TERMINATED NORMALLY****
TOTAL RUN TIME: 0 days 0 hours 5 minutes 46 seconds 636 msec
