                         Program Version 4.1.2  - RELEASE  -
|  1> #Run DFT-D3 single point of the dimer
|  2> ! wB97X-D3 def2-TZVP TIGHTSCF CHELPG PMODEL PAL8
|  3>
|  4> %base "5-31_DFT_AB"
|  5>
|  6> %scf
|  7> MaxIter 1000
|  8> end
|  9>
| 10> * xyz 0 1
| 11>   C                      0.049032             -10.783737           -3.547147
| 12>   O                      -1.245113            -10.968864           -2.996254
| 13>   H                      -1.364851            -11.804296           -2.480069
| 14>   H                      0.119904             -9.931125            -4.234255
| 15>   H                      0.661525             -10.373009           -2.824909
| 16>   H                      0.387264             -11.742814           -4.004112
| 17>   C                      -1.179900            -8.638037            -6.948018
| 18>   O                      -1.535437            -7.599694            -7.826611
| 19>   H                      -1.999492            -7.996814            -8.546439
| 20>   H                      -1.140443            -8.346784            -5.893805
| 21>   H                      -1.993029            -9.398908            -7.027883
| 22>   H                      -0.248926            -9.165004            -7.282007
| 23> *
| 24>
| 25> #Run DFT-D3 single point of the molecule with dimer basis set
| 26> $new_job
| 27> %base "5-31_DFT_A"
| 28> ! wB97X-D3 def2-TZVP TIGHTSCF CHELPG PMODEL
| 29>
| 30> %scf
| 31> MaxIter 1000
| 32> end
| 33>
| 34> * xyz 0 1
| 35>   C                      0.049032             -10.783737           -3.547147
| 36>   O                      -1.245113            -10.968864           -2.996254
| 37>   H                      -1.364851            -11.804296           -2.480069
| 38>   H                      0.119904             -9.931125            -4.234255
| 39>   H                      0.661525             -10.373009           -2.824909
| 40>   H                      0.387264             -11.742814           -4.004112
| 41>   C                    : -1.179900            -8.638037            -6.948018
| 42>   O                    : -1.535437            -7.599694            -7.826611
| 43>   H                    : -1.999492            -7.996814            -8.546439
| 44>   H                    : -1.140443            -8.346784            -5.893805
| 45>   H                    : -1.993029            -9.398908            -7.027883
| 46>   H                    : -0.248926            -9.165004            -7.282007
| 47> *
| 48>
| 49> #Run DFT-D3 single point of the particle with dimer basis set
| 50> $new_job
| 51> %base "5-31_DFT_B"
| 52> ! wB97X-D3 def2-TZVP TIGHTSCF CHELPG PMODEL
| 53>
| 54> %scf
| 55> MaxIter 1000
| 56> end
| 57>
| 58> * xyz 0 1
| 59>   C                    : 0.049032             -10.783737           -3.547147
| 60>   O                    : -1.245113            -10.968864           -2.996254
| 61>   H                    : -1.364851            -11.804296           -2.480069
| 62>   H                    : 0.119904             -9.931125            -4.234255
| 63>   H                    : 0.661525             -10.373009           -2.824909
| 64>   H                    : 0.387264             -11.742814           -4.004112
| 65>   C                      -1.179900            -8.638037            -6.948018
| 66>   O                      -1.535437            -7.599694            -7.826611
| 67>   H                      -1.999492            -7.996814            -8.546439
| 68>   H                      -1.140443            -8.346784            -5.893805
| 69>   H                      -1.993029            -9.398908            -7.027883
| 70>   H                      -0.248926            -9.165004            -7.282007
| 71> *
| 72>
| 73>                          ****END OF INPUT****
 Total Charge           Charge          ....    0
 Multiplicity           Mult            ....    1
 Number of Electrons    NEL             ....   36
Dispersion correction           -0.001218336
FINAL SINGLE POINT ENERGY      -231.457661195175
Dispersion correction           -0.000251193
FINAL SINGLE POINT ENERGY      -115.724182837297

CARTESIAN COORDINATES (ANGSTROEM)
---------------------------------
  C      0.049032  -10.783737   -3.547147
  O     -1.245113  -10.968864   -2.996254
  H     -1.364851  -11.804296   -2.480069
  H      0.119904   -9.931125   -4.234255
  H      0.661525  -10.373009   -2.824909
  H      0.387264  -11.742814   -4.004112
  C     -1.179900   -8.638037   -6.948018
  O     -1.535437   -7.599694   -7.826611
  H     -1.999492   -7.996814   -8.546439
  H     -1.140443   -8.346784   -5.893805
  H     -1.993029   -9.398908   -7.027883
  H     -0.248926   -9.165004   -7.282007

 Multiplicity           Mult            ....    1
 Number of Electrons    NEL             ....   18
 Basis Dimension        Dim             ....  172

ORBITAL ENERGIES
----------------

  NO   OCC          E(Eh)            E(eV)
   0   2.0000     -19.228315      -523.2291
   1   2.0000     -10.319003      -280.7943
   2   2.0000      -1.143230       -31.1089
   3   2.0000      -0.791916       -21.5491
   4   2.0000      -0.613575       -16.6962
   5   2.0000      -0.542886       -14.7727
   6   2.0000      -0.530845       -14.4450
   7   2.0000      -0.429862       -11.6971
   8   2.0000      -0.372601       -10.1390
   9   0.0000       0.084041         2.2869
  10   0.0000       0.113302         3.0831
  11   0.0000       0.145466         3.9583
  12   0.0000       0.170675         4.6443
  13   0.0000       0.183481         4.9928

MULLIKEN ATOMIC CHARGES
-----------------------
   0 C :   -0.000150
   1 O :    0.000048
   2 H :    0.000002
   3 H :    0.000008
   4 H :    0.000052
   5 H :   -0.000084
   6 C :   -0.171230
   7 O :   -0.466423
   8 H :    0.316131
   9 H :    0.125608
  10 H :    0.096632
  11 H :    0.099406
Sum of atomic charges:    0.0000000

LOEWDIN ATOMIC CHARGES
----------------------
   0 C :   -0.000945
   1 O :   -0.000022
   2 H :   -0.000001
   3 H :   -0.001989
   4 H :   -0.000004
   5 H :   -0.000011
   6 C :   -0.395291
   7 O :   -0.067209
   8 H :    0.161274
   9 H :    0.106668
  10 H :    0.098686
  11 H :    0.098843

  Mayer bond orders larger than 0.1
B(  6-C ,  7-O ) :   1.0033 B(  6-C ,  9-H ) :   0.9688 B(  6-C , 10-H ) :   0.9917
B(  6-C , 11-H ) :   0.9689 B(  7-O ,  8-H ) :   0.9015

Dispersion correction           -0.000232871
FINAL SINGLE POINT ENERGY      -115.732639599103

DIPOLE MOMENT
-------------
                                X             Y             Z
Electronic contribution:     -0.30752       1.57266      -0.96816
Nuclear contribution   :      0.12071      -2.22921       0.85450
                        -----------------------------------------
Total Dipole Moment    :     -0.18680      -0.65655      -0.11366
                        -----------------------------------------
Magnitude (a.u.)       :      0.69200
Magnitude (Debye)      :      1.75893

Rotational constants in cm-1:     4.214845     0.837358     0.810178
Rotational constants in MHz : 126357.869668 25103.349005 24288.529683

                             ****ORCA TERMINATED NORMALLY****
TOTAL RUN TIME: 0 days 0 hours 0 minutes 51 seconds 33 msec
