                         Program Version 4.1.2  - RELEASE  -
|  1> #Run DFT-D3 single point of the dimer
|  2> ! wB97X-D3 def2-TZVP TIGHTSCF CHELPG PMODEL PAL8
|  3>
|  4> %base "9-181_DFT_AB"
|  5>
|  6> %scf
|  7> MaxIter 1000
|  8> end
|  9>
| 10> * xyz 0 1
| 11>   C                      -5.830050            -10.619620           3.022717
| 12>   O                      -4.448013            -10.380502           2.877255
| 13>   H                      -3.966628            -10.906813           3.561832
| 14>   H                      -6.509471            -10.105550           2.282956
| 15>   H                      -6.010480            -11.695892           2.848057
| 16>   H                      -6.112927            -10.425031           4.074593
| 17>   C                      -4.903874            -9.442278            -0.677737
| 18>   O                      -3.989815            -9.223129            0.357628
| 19>   H                      -4.262222            -9.680427            1.180958
| 20>   H                      -5.967884            -9.465559            -0.415941
| 21>   H                      -4.794855            -8.731898            -1.421318
| 22>   H                      -4.878456            -10.406002           -1.126017
| 23> *
| 24>
| 25> #Run DFT-D3 single point of the molecule with dimer basis set
| 26> $new_job
| 27> %base "9-181_DFT_A"
| 28> ! wB97X-D3 def2-TZVP TIGHTSCF CHELPG PMODEL
| 29>
| 30> %scf
| 31> MaxIter 1000
| 32> end
| 33>
| 34> * xyz 0 1
| 35>   C                      -5.830050            -10.619620           3.022717
| 36>   O                      -4.448013            -10.380502           2.877255
| 37>   H                      -3.966628            -10.906813           3.561832
| 38>   H                      -6.509471            -10.105550           2.282956
| 39>   H                      -6.010480            -11.695892           2.848057
| 40>   H                      -6.112927            -10.425031           4.074593
| 41>   C                    : -4.903874            -9.442278            -0.677737
| 42>   O                    : -3.989815            -9.223129            0.357628
| 43>   H                    : -4.262222            -9.680427            1.180958
| 44>   H                    : -5.967884            -9.465559            -0.415941
| 45>   H                    : -4.794855            -8.731898            -1.421318
| 46>   H                    : -4.878456            -10.406002           -1.126017
| 47> *
| 48>
| 49> #Run DFT-D3 single point of the particle with dimer basis set
| 50> $new_job
| 51> %base "9-181_DFT_B"
| 52> ! wB97X-D3 def2-TZVP TIGHTSCF CHELPG PMODEL
| 53>
| 54> %scf
| 55> MaxIter 1000
| 56> end
| 57>
| 58> * xyz 0 1
| 59>   C                    : -5.830050            -10.619620           3.022717
| 60>   O                    : -4.448013            -10.380502           2.877255
| 61>   H                    : -3.966628            -10.906813           3.561832
| 62>   H                    : -6.509471            -10.105550           2.282956
| 63>   H                    : -6.010480            -11.695892           2.848057
| 64>   H                    : -6.112927            -10.425031           4.074593
| 65>   C                      -4.903874            -9.442278            -0.677737
| 66>   O                      -3.989815            -9.223129            0.357628
| 67>   H                      -4.262222            -9.680427            1.180958
| 68>   H                      -5.967884            -9.465559            -0.415941
| 69>   H                      -4.794855            -8.731898            -1.421318
| 70>   H                      -4.878456            -10.406002           -1.126017
| 71> *
| 72>
| 73>                          ****END OF INPUT****
 Total Charge           Charge          ....    0
 Multiplicity           Mult            ....    1
 Number of Electrons    NEL             ....   36
Dispersion correction           -0.001878410
FINAL SINGLE POINT ENERGY      -231.467644864595
Dispersion correction           -0.000235128
FINAL SINGLE POINT ENERGY      -115.731288953118

CARTESIAN COORDINATES (ANGSTROEM)
---------------------------------
  C     -5.830050  -10.619620    3.022717
  O     -4.448013  -10.380502    2.877255
  H     -3.966628  -10.906813    3.561832
  H     -6.509471  -10.105550    2.282956
  H     -6.010480  -11.695892    2.848057
  H     -6.112927  -10.425031    4.074593
  C     -4.903874   -9.442278   -0.677737
  O     -3.989815   -9.223129    0.357628
  H     -4.262222   -9.680427    1.180958
  H     -5.967884   -9.465559   -0.415941
  H     -4.794855   -8.731898   -1.421318
  H     -4.878456  -10.406002   -1.126017

 Multiplicity           Mult            ....    1
 Number of Electrons    NEL             ....   18
 Basis Dimension        Dim             ....  172

ORBITAL ENERGIES
----------------

  NO   OCC          E(Eh)            E(eV)
   0   2.0000     -19.235161      -523.4153
   1   2.0000     -10.301843      -280.3274
   2   2.0000      -1.136371       -30.9222
   3   2.0000      -0.805884       -21.9292
   4   2.0000      -0.622737       -16.9455
   5   2.0000      -0.540888       -14.7183
   6   2.0000      -0.526201       -14.3187
   7   2.0000      -0.437895       -11.9157
   8   2.0000      -0.371064       -10.0972
   9   0.0000       0.067312         1.8317
  10   0.0000       0.136513         3.7147
  11   0.0000       0.146674         3.9912
  12   0.0000       0.168791         4.5930
  13   0.0000       0.190708         5.1894

MULLIKEN ATOMIC CHARGES
-----------------------
   0 C :   -0.003963
   1 O :   -0.001877
   2 H :   -0.000104
   3 H :    0.000130
   4 H :    0.000323
   5 H :   -0.000145
   6 C :   -0.160660
   7 O :   -0.472793
   8 H :    0.318519
   9 H :    0.094924
  10 H :    0.126814
  11 H :    0.098833
Sum of atomic charges:   -0.0000000

LOEWDIN ATOMIC CHARGES
----------------------
   0 C :   -0.008530
   1 O :   -0.024075
   2 H :   -0.000978
   3 H :   -0.001748
   4 H :   -0.000159
   5 H :   -0.000174
   6 C :   -0.392246
   7 O :   -0.052957
   8 H :    0.198136
   9 H :    0.097225
  10 H :    0.095776
  11 H :    0.089731

  Mayer bond orders larger than 0.1
B(  6-C ,  7-O ) :   0.9993 B(  6-C ,  9-H ) :   0.9748 B(  6-C , 10-H ) :   0.9782
B(  6-C , 11-H ) :   0.9753 B(  7-O ,  8-H ) :   0.8990

Dispersion correction           -0.000255442
FINAL SINGLE POINT ENERGY      -115.729288048853

DIPOLE MOMENT
-------------
                                X             Y             Z
Electronic contribution:      1.39802       0.45144       1.28337
Nuclear contribution   :     -1.94197      -0.83095      -1.17122
                        -----------------------------------------
Total Dipole Moment    :     -0.54395      -0.37951       0.11215
                        -----------------------------------------
Magnitude (a.u.)       :      0.67267
Magnitude (Debye)      :      1.70979

Rotational constants in cm-1:     4.696232     0.836950     0.798641
Rotational constants in MHz : 140789.488047 25091.144375 23942.669767

                             ****ORCA TERMINATED NORMALLY****
TOTAL RUN TIME: 0 days 0 hours 0 minutes 48 seconds 244 msec
