                         Program Version 4.1.2  - RELEASE  -
|  1> #Run DFT-D3 single point of the dimer
|  2> ! wB97X-D3 def2-TZVP TIGHTSCF CHELPG PMODEL PAL8
|  3>
|  4> %base "2-104_DFT_AB"
|  5>
|  6> %scf
|  7> MaxIter 1000
|  8> end
|  9>
| 10> * xyz 0 1
| 11>   C                      8.250343             5.705359             -1.178994
| 12>   O                      7.781973             4.399579             -0.935683
| 13>   H                      6.990076             4.528335             -0.441139
| 14>   H                      7.784217             6.542154             -0.621818
| 15>   H                      9.292746             5.743374             -0.911809
| 16>   H                      8.314528             5.887828             -2.257205
| 17>   C                      10.946178            6.499316             -4.724918
| 18>   O                      10.963376            6.166861             -3.349450
| 19>   H                      10.187720            6.514946             -2.857216
| 20>   H                      10.592208            7.486626             -4.935436
| 21>   H                      12.020252            6.606879             -5.038450
| 22>   H                      10.293789            5.832369             -5.364102
| 23> *
| 24>
| 25> #Run DFT-D3 single point of the molecule with dimer basis set
| 26> $new_job
| 27> %base "2-104_DFT_A"
| 28> ! wB97X-D3 def2-TZVP TIGHTSCF CHELPG PMODEL
| 29>
| 30> %scf
| 31> MaxIter 1000
| 32> end
| 33>
| 34> * xyz 0 1
| 35>   C                      8.250343             5.705359             -1.178994
| 36>   O                      7.781973             4.399579             -0.935683
| 37>   H                      6.990076             4.528335             -0.441139
| 38>   H                      7.784217             6.542154             -0.621818
| 39>   H                      9.292746             5.743374             -0.911809
| 40>   H                      8.314528             5.887828             -2.257205
| 41>   C                    : 10.946178            6.499316             -4.724918
| 42>   O                    : 10.963376            6.166861             -3.349450
| 43>   H                    : 10.187720            6.514946             -2.857216
| 44>   H                    : 10.592208            7.486626             -4.935436
| 45>   H                    : 12.020252            6.606879             -5.038450
| 46>   H                    : 10.293789            5.832369             -5.364102
| 47> *
| 48>
| 49> #Run DFT-D3 single point of the particle with dimer basis set
| 50> $new_job
| 51> %base "2-104_DFT_B"
| 52> ! wB97X-D3 def2-TZVP TIGHTSCF CHELPG PMODEL
| 53>
| 54> %scf
| 55> MaxIter 1000
| 56> end
| 57>
| 58> * xyz 0 1
| 59>   C                    : 8.250343             5.705359             -1.178994
| 60>   O                    : 7.781973             4.399579             -0.935683
| 61>   H                    : 6.990076             4.528335             -0.441139
| 62>   H                    : 7.784217             6.542154             -0.621818
| 63>   H                    : 9.292746             5.743374             -0.911809
| 64>   H                    : 8.314528             5.887828             -2.257205
| 65>   C                      10.946178            6.499316             -4.724918
| 66>   O                      10.963376            6.166861             -3.349450
| 67>   H                      10.187720            6.514946             -2.857216
| 68>   H                      10.592208            7.486626             -4.935436
| 69>   H                      12.020252            6.606879             -5.038450
| 70>   H                      10.293789            5.832369             -5.364102
| 71> *
| 72>
| 73>                          ****END OF INPUT****
 Total Charge           Charge          ....    0
 Multiplicity           Mult            ....    1
 Number of Electrons    NEL             ....   36
Dispersion correction           -0.001511701
FINAL SINGLE POINT ENERGY      -231.461237403373
Dispersion correction           -0.000249600
FINAL SINGLE POINT ENERGY      -115.731218377854

CARTESIAN COORDINATES (ANGSTROEM)
---------------------------------
  C      8.250343    5.705359   -1.178994
  O      7.781973    4.399579   -0.935683
  H      6.990076    4.528335   -0.441139
  H      7.784217    6.542154   -0.621818
  H      9.292746    5.743374   -0.911809
  H      8.314528    5.887828   -2.257205
  C     10.946178    6.499316   -4.724918
  O     10.963376    6.166861   -3.349450
  H     10.187720    6.514946   -2.857216
  H     10.592208    7.486626   -4.935436
  H     12.020252    6.606879   -5.038450
  H     10.293789    5.832369   -5.364102

 Multiplicity           Mult            ....    1
 Number of Electrons    NEL             ....   18
 Basis Dimension        Dim             ....  172

ORBITAL ENERGIES
----------------

  NO   OCC          E(Eh)            E(eV)
   0   2.0000     -19.233256      -523.3635
   1   2.0000     -10.318303      -280.7753
   2   2.0000      -1.129760       -30.7423
   3   2.0000      -0.794425       -21.6174
   4   2.0000      -0.614393       -16.7185
   5   2.0000      -0.542796       -14.7702
   6   2.0000      -0.514085       -13.9890
   7   2.0000      -0.425501       -11.5785
   8   2.0000      -0.375726       -10.2240
   9   0.0000       0.077842         2.1182
  10   0.0000       0.126968         3.4550
  11   0.0000       0.146411         3.9840
  12   0.0000       0.180817         4.9203
  13   0.0000       0.194966         5.3053

MULLIKEN ATOMIC CHARGES
-----------------------
   0 C :    0.000730
   1 O :    0.000247
   2 H :   -0.000026
   3 H :   -0.000165
   4 H :   -0.000049
   5 H :   -0.008829
   6 C :   -0.155778
   7 O :   -0.478435
   8 H :    0.319510
   9 H :    0.105052
  10 H :    0.119692
  11 H :    0.098052
Sum of atomic charges:   -0.0000000

LOEWDIN ATOMIC CHARGES
----------------------
   0 C :   -0.008755
   1 O :   -0.000030
   2 H :   -0.000016
   3 H :   -0.000093
   4 H :   -0.002457
   5 H :   -0.006928
   6 C :   -0.393244
   7 O :   -0.079810
   8 H :    0.184715
   9 H :    0.088345
  10 H :    0.117271
  11 H :    0.101004

  Mayer bond orders larger than 0.1
B(  6-C ,  7-O ) :   1.0021 B(  6-C ,  9-H ) :   0.9788 B(  6-C , 10-H ) :   0.9744
B(  6-C , 11-H ) :   0.9660 B(  7-O ,  8-H ) :   0.8915

Dispersion correction           -0.000273177
FINAL SINGLE POINT ENERGY      -115.730728536549

DIPOLE MOMENT
-------------
                                X             Y             Z
Electronic contribution:      0.10253      -0.56399       1.75844
Nuclear contribution   :     -0.59827       0.98405      -1.98971
                        -----------------------------------------
Total Dipole Moment    :     -0.49574       0.42006      -0.23127
                        -----------------------------------------
Magnitude (a.u.)       :      0.68971
Magnitude (Debye)      :      1.75310

Rotational constants in cm-1:     4.273789     0.813871     0.789600
Rotational constants in MHz : 128124.980642 24399.225638 23671.598215

                             ****ORCA TERMINATED NORMALLY****
TOTAL RUN TIME: 0 days 0 hours 5 minutes 58 seconds 321 msec
