                         Program Version 4.1.2  - RELEASE  -
|  1> #Run DFT-D3 single point of the dimer
|  2> ! wB97X-D3 def2-TZVP TIGHTSCF CHELPG PMODEL PAL8
|  3>
|  4> %base "16-89_DFT_AB"
|  5>
|  6> %scf
|  7> MaxIter 1000
|  8> end
|  9>
| 10> * xyz 0 1
| 11>   C                      7.892758             10.821007            -2.226867
| 12>   O                      8.272880             9.742820             -1.404930
| 13>   H                      8.541633             10.062633            -0.501364
| 14>   H                      7.192416             10.442952            -2.924750
| 15>   H                      7.429778             11.576646            -1.600123
| 16>   H                      8.748379             11.363983            -2.592521
| 17>   C                      10.355604            7.318238             -2.186516
| 18>   O                      9.596052             7.114368             -0.987642
| 19>   H                      8.891249             7.814339             -0.905441
| 20>   H                      11.135173            8.104721             -2.107995
| 21>   H                      10.882896            6.364339             -2.387709
| 22>   H                      9.837666             7.442704             -3.169920
| 23> *
| 24>
| 25> #Run DFT-D3 single point of the molecule with dimer basis set
| 26> $new_job
| 27> %base "16-89_DFT_A"
| 28> ! wB97X-D3 def2-TZVP TIGHTSCF CHELPG PMODEL
| 29>
| 30> %scf
| 31> MaxIter 1000
| 32> end
| 33>
| 34> * xyz 0 1
| 35>   C                      7.892758             10.821007            -2.226867
| 36>   O                      8.272880             9.742820             -1.404930
| 37>   H                      8.541633             10.062633            -0.501364
| 38>   H                      7.192416             10.442952            -2.924750
| 39>   H                      7.429778             11.576646            -1.600123
| 40>   H                      8.748379             11.363983            -2.592521
| 41>   C                    : 10.355604            7.318238             -2.186516
| 42>   O                    : 9.596052             7.114368             -0.987642
| 43>   H                    : 8.891249             7.814339             -0.905441
| 44>   H                    : 11.135173            8.104721             -2.107995
| 45>   H                    : 10.882896            6.364339             -2.387709
| 46>   H                    : 9.837666             7.442704             -3.169920
| 47> *
| 48>
| 49> #Run DFT-D3 single point of the particle with dimer basis set
| 50> $new_job
| 51> %base "16-89_DFT_B"
| 52> ! wB97X-D3 def2-TZVP TIGHTSCF CHELPG PMODEL
| 53>
| 54> %scf
| 55> MaxIter 1000
| 56> end
| 57>
| 58> * xyz 0 1
| 59>   C                    : 7.892758             10.821007            -2.226867
| 60>   O                    : 8.272880             9.742820             -1.404930
| 61>   H                    : 8.541633             10.062633            -0.501364
| 62>   H                    : 7.192416             10.442952            -2.924750
| 63>   H                    : 7.429778             11.576646            -1.600123
| 64>   H                    : 8.748379             11.363983            -2.592521
| 65>   C                      10.355604            7.318238             -2.186516
| 66>   O                      9.596052             7.114368             -0.987642
| 67>   H                      8.891249             7.814339             -0.905441
| 68>   H                      11.135173            8.104721             -2.107995
| 69>   H                      10.882896            6.364339             -2.387709
| 70>   H                      9.837666             7.442704             -3.169920
| 71> *
| 72>
| 73>                          ****END OF INPUT****
 Total Charge           Charge          ....    0
 Multiplicity           Mult            ....    1
 Number of Electrons    NEL             ....   36
Dispersion correction           -0.001801920
FINAL SINGLE POINT ENERGY      -231.468357960263
Dispersion correction           -0.000224679
FINAL SINGLE POINT ENERGY      -115.730856925659

CARTESIAN COORDINATES (ANGSTROEM)
---------------------------------
  C      7.892758   10.821007   -2.226867
  O      8.272880    9.742820   -1.404930
  H      8.541633   10.062633   -0.501364
  H      7.192416   10.442952   -2.924750
  H      7.429778   11.576646   -1.600123
  H      8.748379   11.363983   -2.592521
  C     10.355604    7.318238   -2.186516
  O      9.596052    7.114368   -0.987642
  H      8.891249    7.814339   -0.905441
  H     11.135173    8.104721   -2.107995
  H     10.882896    6.364339   -2.387709
  H      9.837666    7.442704   -3.169920

 Multiplicity           Mult            ....    1
 Number of Electrons    NEL             ....   18
 Basis Dimension        Dim             ....  172

ORBITAL ENERGIES
----------------

  NO   OCC          E(Eh)            E(eV)
   0   2.0000     -19.239439      -523.5317
   1   2.0000     -10.320222      -280.8275
   2   2.0000      -1.124998       -30.6127
   3   2.0000      -0.793052       -21.5801
   4   2.0000      -0.605737       -16.4830
   5   2.0000      -0.537556       -14.6276
   6   2.0000      -0.515397       -14.0247
   7   2.0000      -0.429103       -11.6765
   8   2.0000      -0.378802       -10.3077
   9   0.0000       0.069502         1.8913
  10   0.0000       0.127509         3.4697
  11   0.0000       0.139738         3.8025
  12   0.0000       0.169640         4.6162
  13   0.0000       0.188627         5.1328

MULLIKEN ATOMIC CHARGES
-----------------------
   0 C :   -0.000465
   1 O :   -0.004798
   2 H :   -0.001996
   3 H :   -0.000084
   4 H :    0.000048
   5 H :   -0.000108
   6 C :   -0.181768
   7 O :   -0.473913
   8 H :    0.321759
   9 H :    0.108504
  10 H :    0.124208
  11 H :    0.108613
Sum of atomic charges:    0.0000000

LOEWDIN ATOMIC CHARGES
----------------------
   0 C :   -0.001160
   1 O :   -0.015749
   2 H :   -0.003388
   3 H :   -0.000056
   4 H :   -0.000020
   5 H :   -0.000046
   6 C :   -0.392733
   7 O :   -0.092212
   8 H :    0.193930
   9 H :    0.097812
  10 H :    0.113085
  11 H :    0.100537

  Mayer bond orders larger than 0.1
B(  6-C ,  7-O ) :   1.0019 B(  6-C ,  9-H ) :   0.9717 B(  6-C , 10-H ) :   0.9758
B(  6-C , 11-H ) :   0.9660 B(  7-O ,  8-H ) :   0.8948

Dispersion correction           -0.000300858
FINAL SINGLE POINT ENERGY      -115.731284102205

DIPOLE MOMENT
-------------
                                X             Y             Z
Electronic contribution:     -1.00176      -0.27042       1.65938
Nuclear contribution   :      0.86398       0.75193      -2.09411
                        -----------------------------------------
Total Dipole Moment    :     -0.13778       0.48151      -0.43472
                        -----------------------------------------
Magnitude (a.u.)       :      0.66319
Magnitude (Debye)      :      1.68569

Rotational constants in cm-1:     4.310260     0.788665     0.768105
Rotational constants in MHz : 129218.330457 23643.590089 23027.193671

                             ****ORCA TERMINATED NORMALLY****
TOTAL RUN TIME: 0 days 0 hours 0 minutes 54 seconds 316 msec
