                         Program Version 4.1.2  - RELEASE  -
|  1> #Run DFT-D3 single point of the dimer
|  2> ! wB97X-D3 def2-TZVP TIGHTSCF CHELPG PMODEL PAL8
|  3>
|  4> %base "9-79_DFT_AB"
|  5>
|  6> %scf
|  7> MaxIter 1000
|  8> end
|  9>
| 10> * xyz 0 1
| 11>   C                      -6.988085            5.917320             -1.756806
| 12>   O                      -5.841079            5.346315             -1.198149
| 13>   H                      -6.238028            4.725105             -0.596400
| 14>   H                      -7.469596            5.138823             -2.402609
| 15>   H                      -7.670168            6.304700             -1.043612
| 16>   H                      -6.732474            6.712058             -2.340388
| 17>   C                      -8.705510            10.196739            -5.063374
| 18>   O                      -7.708803            9.851671             -4.077808
| 19>   H                      -7.153227            9.081296             -4.423253
| 20>   H                      -9.588809            10.602126            -4.537238
| 21>   H                      -8.457030            10.856627            -5.890543
| 22>   H                      -9.100420            9.336630             -5.577473
| 23> *
| 24>
| 25> #Run DFT-D3 single point of the molecule with dimer basis set
| 26> $new_job
| 27> %base "9-79_DFT_A"
| 28> ! wB97X-D3 def2-TZVP TIGHTSCF CHELPG PMODEL
| 29>
| 30> %scf
| 31> MaxIter 1000
| 32> end
| 33>
| 34> * xyz 0 1
| 35>   C                      -6.988085            5.917320             -1.756806
| 36>   O                      -5.841079            5.346315             -1.198149
| 37>   H                      -6.238028            4.725105             -0.596400
| 38>   H                      -7.469596            5.138823             -2.402609
| 39>   H                      -7.670168            6.304700             -1.043612
| 40>   H                      -6.732474            6.712058             -2.340388
| 41>   C                    : -8.705510            10.196739            -5.063374
| 42>   O                    : -7.708803            9.851671             -4.077808
| 43>   H                    : -7.153227            9.081296             -4.423253
| 44>   H                    : -9.588809            10.602126            -4.537238
| 45>   H                    : -8.457030            10.856627            -5.890543
| 46>   H                    : -9.100420            9.336630             -5.577473
| 47> *
| 48>
| 49> #Run DFT-D3 single point of the particle with dimer basis set
| 50> $new_job
| 51> %base "9-79_DFT_B"
| 52> ! wB97X-D3 def2-TZVP TIGHTSCF CHELPG PMODEL
| 53>
| 54> %scf
| 55> MaxIter 1000
| 56> end
| 57>
| 58> * xyz 0 1
| 59>   C                    : -6.988085            5.917320             -1.756806
| 60>   O                    : -5.841079            5.346315             -1.198149
| 61>   H                    : -6.238028            4.725105             -0.596400
| 62>   H                    : -7.469596            5.138823             -2.402609
| 63>   H                    : -7.670168            6.304700             -1.043612
| 64>   H                    : -6.732474            6.712058             -2.340388
| 65>   C                      -8.705510            10.196739            -5.063374
| 66>   O                      -7.708803            9.851671             -4.077808
| 67>   H                      -7.153227            9.081296             -4.423253
| 68>   H                      -9.588809            10.602126            -4.537238
| 69>   H                      -8.457030            10.856627            -5.890543
| 70>   H                      -9.100420            9.336630             -5.577473
| 71> *
| 72>
| 73>                          ****END OF INPUT****
 Total Charge           Charge          ....    0
 Multiplicity           Mult            ....    1
 Number of Electrons    NEL             ....   36
Dispersion correction           -0.000812083
FINAL SINGLE POINT ENERGY      -231.459184714086
Dispersion correction           -0.000197776
FINAL SINGLE POINT ENERGY      -115.729155961785

CARTESIAN COORDINATES (ANGSTROEM)
---------------------------------
  C     -6.988085    5.917320   -1.756806
  O     -5.841079    5.346315   -1.198149
  H     -6.238028    4.725105   -0.596400
  H     -7.469596    5.138823   -2.402609
  H     -7.670168    6.304700   -1.043612
  H     -6.732474    6.712058   -2.340388
  C     -8.705510   10.196739   -5.063374
  O     -7.708803    9.851671   -4.077808
  H     -7.153227    9.081296   -4.423253
  H     -9.588809   10.602126   -4.537238
  H     -8.457030   10.856627   -5.890543
  H     -9.100420    9.336630   -5.577473

 Multiplicity           Mult            ....    1
 Number of Electrons    NEL             ....   18
 Basis Dimension        Dim             ....  172

ORBITAL ENERGIES
----------------

  NO   OCC          E(Eh)            E(eV)
   0   2.0000     -19.238487      -523.5059
   1   2.0000     -10.313627      -280.6481
   2   2.0000      -1.119028       -30.4503
   3   2.0000      -0.797089       -21.6899
   4   2.0000      -0.606660       -16.5081
   5   2.0000      -0.533202       -14.5092
   6   2.0000      -0.518903       -14.1201
   7   2.0000      -0.433615       -11.7993
   8   2.0000      -0.376663       -10.2495
   9   0.0000       0.084062         2.2874
  10   0.0000       0.111617         3.0373
  11   0.0000       0.144884         3.9425
  12   0.0000       0.179365         4.8808
  13   0.0000       0.194550         5.2940

MULLIKEN ATOMIC CHARGES
-----------------------
   0 C :    0.001354
   1 O :   -0.000034
   2 H :   -0.000003
   3 H :   -0.000041
   4 H :   -0.000125
   5 H :   -0.003030
   6 C :   -0.174943
   7 O :   -0.478628
   8 H :    0.319461
   9 H :    0.121528
  10 H :    0.107820
  11 H :    0.106640
Sum of atomic charges:   -0.0000000

LOEWDIN ATOMIC CHARGES
----------------------
   0 C :   -0.000435
   1 O :   -0.000008
   2 H :   -0.000003
   3 H :   -0.000003
   4 H :   -0.000022
   5 H :   -0.000952
   6 C :   -0.376146
   7 O :   -0.115348
   8 H :    0.195506
   9 H :    0.111370
  10 H :    0.093635
  11 H :    0.092405

  Mayer bond orders larger than 0.1
B(  6-C ,  7-O ) :   1.0090 B(  6-C ,  9-H ) :   0.9769 B(  6-C , 10-H ) :   0.9642
B(  6-C , 11-H ) :   0.9801 B(  7-O ,  8-H ) :   0.8907

Dispersion correction           -0.000281325
FINAL SINGLE POINT ENERGY      -115.729594536363

DIPOLE MOMENT
-------------
                                X             Y             Z
Electronic contribution:      1.34881      -0.26487       1.35511
Nuclear contribution   :     -1.43191      -0.10209      -1.98288
                        -----------------------------------------
Total Dipole Moment    :     -0.08310      -0.36696      -0.62777
                        -----------------------------------------
Magnitude (a.u.)       :      0.73189
Magnitude (Debye)      :      1.86031

Rotational constants in cm-1:     4.405562     0.789964     0.759759
Rotational constants in MHz : 132075.438145 23682.533359 22776.990330

                             ****ORCA TERMINATED NORMALLY****
TOTAL RUN TIME: 0 days 0 hours 0 minutes 40 seconds 849 msec
