                         Program Version 4.1.2  - RELEASE  -
|  1> #Run DFT-D3 single point of the dimer
|  2> ! wB97X-D3 def2-TZVP TIGHTSCF CHELPG PMODEL PAL8
|  3>
|  4> %base "7-48_DFT_AB"
|  5>
|  6> %scf
|  7> MaxIter 1000
|  8> end
|  9>
| 10> * xyz 0 1
| 11>   C                      -10.430630           5.965214             -6.659766
| 12>   O                      -11.506915           6.842817             -6.664926
| 13>   H                      -12.269845           6.244401             -6.518812
| 14>   H                      -10.239529           5.594698             -5.660409
| 15>   H                      -10.552653           5.211127             -7.463928
| 16>   H                      -9.466643            6.469908             -6.833632
| 17>   C                      -6.417568            5.724779             -9.595401
| 18>   O                      -6.496729            5.320561             -10.985951
| 19>   H                      -5.837591            4.593481             -11.037787
| 20>   H                      -5.394733            5.521762             -9.256778
| 21>   H                      -6.775722            6.772513             -9.423022
| 22>   H                      -7.171860            5.219922             -8.997641
| 23> *
| 24>
| 25> #Run DFT-D3 single point of the molecule with dimer basis set
| 26> $new_job
| 27> %base "7-48_DFT_A"
| 28> ! wB97X-D3 def2-TZVP TIGHTSCF CHELPG PMODEL
| 29>
| 30> %scf
| 31> MaxIter 1000
| 32> end
| 33>
| 34> * xyz 0 1
| 35>   C                      -10.430630           5.965214             -6.659766
| 36>   O                      -11.506915           6.842817             -6.664926
| 37>   H                      -12.269845           6.244401             -6.518812
| 38>   H                      -10.239529           5.594698             -5.660409
| 39>   H                      -10.552653           5.211127             -7.463928
| 40>   H                      -9.466643            6.469908             -6.833632
| 41>   C                    : -6.417568            5.724779             -9.595401
| 42>   O                    : -6.496729            5.320561             -10.985951
| 43>   H                    : -5.837591            4.593481             -11.037787
| 44>   H                    : -5.394733            5.521762             -9.256778
| 45>   H                    : -6.775722            6.772513             -9.423022
| 46>   H                    : -7.171860            5.219922             -8.997641
| 47> *
| 48>
| 49> #Run DFT-D3 single point of the particle with dimer basis set
| 50> $new_job
| 51> %base "7-48_DFT_B"
| 52> ! wB97X-D3 def2-TZVP TIGHTSCF CHELPG PMODEL
| 53>
| 54> %scf
| 55> MaxIter 1000
| 56> end
| 57>
| 58> * xyz 0 1
| 59>   C                    : -10.430630           5.965214             -6.659766
| 60>   O                    : -11.506915           6.842817             -6.664926
| 61>   H                    : -12.269845           6.244401             -6.518812
| 62>   H                    : -10.239529           5.594698             -5.660409
| 63>   H                    : -10.552653           5.211127             -7.463928
| 64>   H                    : -9.466643            6.469908             -6.833632
| 65>   C                      -6.417568            5.724779             -9.595401
| 66>   O                      -6.496729            5.320561             -10.985951
| 67>   H                      -5.837591            4.593481             -11.037787
| 68>   H                      -5.394733            5.521762             -9.256778
| 69>   H                      -6.775722            6.772513             -9.423022
| 70>   H                      -7.171860            5.219922             -8.997641
| 71> *
| 72>
| 73>                          ****END OF INPUT****
 Total Charge           Charge          ....    0
 Multiplicity           Mult            ....    1
 Number of Electrons    NEL             ....   36
Dispersion correction           -0.000826087
FINAL SINGLE POINT ENERGY      -231.460473643892
Dispersion correction           -0.000219080
FINAL SINGLE POINT ENERGY      -115.731168287315

CARTESIAN COORDINATES (ANGSTROEM)
---------------------------------
  C    -10.430630    5.965214   -6.659766
  O    -11.506915    6.842817   -6.664926
  H    -12.269845    6.244401   -6.518812
  H    -10.239529    5.594698   -5.660409
  H    -10.552653    5.211127   -7.463928
  H     -9.466643    6.469908   -6.833632
  C     -6.417568    5.724779   -9.595401
  O     -6.496729    5.320561  -10.985951
  H     -5.837591    4.593481  -11.037787
  H     -5.394733    5.521762   -9.256778
  H     -6.775722    6.772513   -9.423022
  H     -7.171860    5.219922   -8.997641

 Multiplicity           Mult            ....    1
 Number of Electrons    NEL             ....   18
 Basis Dimension        Dim             ....  172

ORBITAL ENERGIES
----------------

  NO   OCC          E(Eh)            E(eV)
   0   2.0000     -19.232402      -523.3403
   1   2.0000     -10.319186      -280.7993
   2   2.0000      -1.124208       -30.5913
   3   2.0000      -0.791945       -21.5499
   4   2.0000      -0.600198       -16.3322
   5   2.0000      -0.544840       -14.8258
   6   2.0000      -0.517615       -14.0850
   7   2.0000      -0.439207       -11.9514
   8   2.0000      -0.370859       -10.0916
   9   0.0000       0.084074         2.2878
  10   0.0000       0.110409         3.0044
  11   0.0000       0.138714         3.7746
  12   0.0000       0.176021         4.7898
  13   0.0000       0.185798         5.0558

MULLIKEN ATOMIC CHARGES
-----------------------
   0 C :    0.000147
   1 O :   -0.000003
   2 H :    0.000000
   3 H :   -0.000012
   4 H :   -0.000021
   5 H :   -0.000306
   6 C :   -0.175169
   7 O :   -0.470863
   8 H :    0.314564
   9 H :    0.107447
  10 H :    0.117207
  11 H :    0.107008
Sum of atomic charges:   -0.0000000

LOEWDIN ATOMIC CHARGES
----------------------
   0 C :   -0.000342
   1 O :   -0.000004
   2 H :   -0.000001
   3 H :   -0.000003
   4 H :   -0.000103
   5 H :   -0.000251
   6 C :   -0.369734
   7 O :   -0.115174
   8 H :    0.181397
   9 H :    0.098270
  10 H :    0.111962
  11 H :    0.093983

  Mayer bond orders larger than 0.1
B(  6-C ,  7-O ) :   1.0041 B(  6-C ,  9-H ) :   0.9854 B(  6-C , 10-H ) :   0.9737
B(  6-C , 11-H ) :   0.9723 B(  7-O ,  8-H ) :   0.9008

Dispersion correction           -0.000248476
FINAL SINGLE POINT ENERGY      -115.729021349303

DIPOLE MOMENT
-------------
                                X             Y             Z
Electronic contribution:     -0.12694      -0.38785      -1.78193
Nuclear contribution   :      0.54968       0.10571       2.32183
                        -----------------------------------------
Total Dipole Moment    :      0.42274      -0.28214       0.53990
                        -----------------------------------------
Magnitude (a.u.)       :      0.74149
Magnitude (Debye)      :      1.88471

Rotational constants in cm-1:     4.172433     0.808380     0.765227
Rotational constants in MHz : 125086.379987 24234.616994 22940.937785

                             ****ORCA TERMINATED NORMALLY****
TOTAL RUN TIME: 0 days 0 hours 1 minutes 9 seconds 820 msec
