                         Program Version 4.1.2  - RELEASE  -
|  1> #Run DFT-D3 single point of the dimer
|  2> ! wB97X-D3 def2-TZVP TIGHTSCF CHELPG PMODEL PAL8
|  3>
|  4> %base "10-10_DFT_AB"
|  5>
|  6> %scf
|  7> MaxIter 1000
|  8> end
|  9>
| 10> * xyz 0 1
| 11>   C                      -8.336969            -4.600054            6.961619
| 12>   O                      -7.406997            -4.718792            5.976221
| 13>   H                      -6.557219            -5.068828            6.345814
| 14>   H                      -9.026821            -3.757067            6.800029
| 15>   H                      -9.068774            -5.485411            6.969378
| 16>   H                      -7.848887            -4.496328            7.950912
| 17>   C                      -7.366661            -2.963687            2.761216
| 18>   O                      -7.991004            -1.877299            2.184801
| 19>   H                      -8.630948            -1.490112            2.772157
| 20>   H                      -8.031490            -3.775481            2.924278
| 21>   H                      -6.620792            -3.428823            2.136483
| 22>   H                      -6.995310            -2.677469            3.725112
| 23> *
| 24>
| 25> #Run DFT-D3 single point of the molecule with dimer basis set
| 26> $new_job
| 27> %base "10-10_DFT_A"
| 28> ! wB97X-D3 def2-TZVP TIGHTSCF CHELPG PMODEL
| 29>
| 30> %scf
| 31> MaxIter 1000
| 32> end
| 33>
| 34> * xyz 0 1
| 35>   C                      -8.336969            -4.600054            6.961619
| 36>   O                      -7.406997            -4.718792            5.976221
| 37>   H                      -6.557219            -5.068828            6.345814
| 38>   H                      -9.026821            -3.757067            6.800029
| 39>   H                      -9.068774            -5.485411            6.969378
| 40>   H                      -7.848887            -4.496328            7.950912
| 41>   C                    : -7.366661            -2.963687            2.761216
| 42>   O                    : -7.991004            -1.877299            2.184801
| 43>   H                    : -8.630948            -1.490112            2.772157
| 44>   H                    : -8.031490            -3.775481            2.924278
| 45>   H                    : -6.620792            -3.428823            2.136483
| 46>   H                    : -6.995310            -2.677469            3.725112
| 47> *
| 48>
| 49> #Run DFT-D3 single point of the particle with dimer basis set
| 50> $new_job
| 51> %base "10-10_DFT_B"
| 52> ! wB97X-D3 def2-TZVP TIGHTSCF CHELPG PMODEL
| 53>
| 54> %scf
| 55> MaxIter 1000
| 56> end
| 57>
| 58> * xyz 0 1
| 59>   C                    : -8.336969            -4.600054            6.961619
| 60>   O                    : -7.406997            -4.718792            5.976221
| 61>   H                    : -6.557219            -5.068828            6.345814
| 62>   H                    : -9.026821            -3.757067            6.800029
| 63>   H                    : -9.068774            -5.485411            6.969378
| 64>   H                    : -7.848887            -4.496328            7.950912
| 65>   C                      -7.366661            -2.963687            2.761216
| 66>   O                      -7.991004            -1.877299            2.184801
| 67>   H                      -8.630948            -1.490112            2.772157
| 68>   H                      -8.031490            -3.775481            2.924278
| 69>   H                      -6.620792            -3.428823            2.136483
| 70>   H                      -6.995310            -2.677469            3.725112
| 71> *
| 72>
| 73>                          ****END OF INPUT****
 Total Charge           Charge          ....    0
 Multiplicity           Mult            ....    1
 Number of Electrons    NEL             ....   36
Dispersion correction           -0.001274868
FINAL SINGLE POINT ENERGY      -231.463954040504
Dispersion correction           -0.000243979
FINAL SINGLE POINT ENERGY      -115.730749432651

CARTESIAN COORDINATES (ANGSTROEM)
---------------------------------
  C     -8.336969   -4.600054    6.961619
  O     -7.406997   -4.718792    5.976221
  H     -6.557219   -5.068828    6.345814
  H     -9.026821   -3.757067    6.800029
  H     -9.068774   -5.485411    6.969378
  H     -7.848887   -4.496328    7.950912
  C     -7.366661   -2.963687    2.761216
  O     -7.991004   -1.877299    2.184801
  H     -8.630948   -1.490112    2.772157
  H     -8.031490   -3.775481    2.924278
  H     -6.620792   -3.428823    2.136483
  H     -6.995310   -2.677469    3.725112

 Multiplicity           Mult            ....    1
 Number of Electrons    NEL             ....   18
 Basis Dimension        Dim             ....  172

ORBITAL ENERGIES
----------------

  NO   OCC          E(Eh)            E(eV)
   0   2.0000     -19.225966      -523.1651
   1   2.0000     -10.302508      -280.3455
   2   2.0000      -1.145609       -31.1736
   3   2.0000      -0.802297       -21.8316
   4   2.0000      -0.620647       -16.8887
   5   2.0000      -0.553717       -15.0674
   6   2.0000      -0.531814       -14.4714
   7   2.0000      -0.427768       -11.6402
   8   2.0000      -0.369243       -10.0476
   9   0.0000       0.078996         2.1496
  10   0.0000       0.118532         3.2254
  11   0.0000       0.146921         3.9979
  12   0.0000       0.169016         4.5992
  13   0.0000       0.189302         5.1512

MULLIKEN ATOMIC CHARGES
-----------------------
   0 C :   -0.000653
   1 O :   -0.000374
   2 H :   -0.000078
   3 H :    0.000042
   4 H :    0.000016
   5 H :    0.000026
   6 C :   -0.138274
   7 O :   -0.477501
   8 H :    0.315570
   9 H :    0.093235
  10 H :    0.116774
  11 H :    0.091216
Sum of atomic charges:    0.0000000

LOEWDIN ATOMIC CHARGES
----------------------
   0 C :   -0.000498
   1 O :   -0.001507
   2 H :   -0.000173
   3 H :   -0.000050
   4 H :   -0.000010
   5 H :   -0.000006
   6 C :   -0.401083
   7 O :   -0.048132
   8 H :    0.165838
   9 H :    0.087249
  10 H :    0.107726
  11 H :    0.090646

  Mayer bond orders larger than 0.1
B(  6-C ,  7-O ) :   1.0006 B(  6-C ,  9-H ) :   0.9789 B(  6-C , 10-H ) :   0.9689
B(  6-C , 11-H ) :   0.9903 B(  7-O ,  8-H ) :   0.8970

Dispersion correction           -0.000218071
FINAL SINGLE POINT ENERGY      -115.731789949263

DIPOLE MOMENT
-------------
                                X             Y             Z
Electronic contribution:     -0.67818       1.44110      -0.89444
Nuclear contribution   :      0.49978      -1.63182       1.49642
                        -----------------------------------------
Total Dipole Moment    :     -0.17840      -0.19072       0.60198
                        -----------------------------------------
Magnitude (a.u.)       :      0.65619
Magnitude (Debye)      :      1.66790

Rotational constants in cm-1:     4.573357     0.865946     0.830298
Rotational constants in MHz : 137105.804064 25960.412218 24891.709908

                             ****ORCA TERMINATED NORMALLY****
TOTAL RUN TIME: 0 days 0 hours 1 minutes 4 seconds 289 msec
