                         Program Version 4.1.2  - RELEASE  -
|  1> #Run DFT-D3 single point of the dimer
|  2> ! wB97X-D3 def2-TZVP TIGHTSCF CHELPG PMODEL PAL8
|  3>
|  4> %base "21-139_DFT_AB"
|  5>
|  6> %scf
|  7> MaxIter 1000
|  8> end
|  9>
| 10> * xyz 0 1
| 11>   C                      -1.001725            -9.641674            -5.075141
| 12>   O                      -1.080321            -11.053985           -4.800357
| 13>   H                      -0.733545            -11.033127           -3.907484
| 14>   H                      -1.773834            -9.130125            -4.517852
| 15>   H                      -0.063907            -9.121528            -4.738339
| 16>   H                      -1.159688            -9.406464            -6.166276
| 17>   C                      -4.193454            -11.296787           -3.984335
| 18>   O                      -3.721456            -11.740180           -5.284262
| 19>   H                      -2.770841            -11.555167           -5.343181
| 20>   H                      -3.546336            -11.650999           -3.139602
| 21>   H                      -4.193360            -10.192244           -3.849085
| 22>   H                      -5.156689            -11.711549           -3.758057
| 23> *
| 24>
| 25> #Run DFT-D3 single point of the molecule with dimer basis set
| 26> $new_job
| 27> %base "21-139_DFT_A"
| 28> ! wB97X-D3 def2-TZVP TIGHTSCF CHELPG PMODEL
| 29>
| 30> %scf
| 31> MaxIter 1000
| 32> end
| 33>
| 34> * xyz 0 1
| 35>   C                      -1.001725            -9.641674            -5.075141
| 36>   O                      -1.080321            -11.053985           -4.800357
| 37>   H                      -0.733545            -11.033127           -3.907484
| 38>   H                      -1.773834            -9.130125            -4.517852
| 39>   H                      -0.063907            -9.121528            -4.738339
| 40>   H                      -1.159688            -9.406464            -6.166276
| 41>   C                    : -4.193454            -11.296787           -3.984335
| 42>   O                    : -3.721456            -11.740180           -5.284262
| 43>   H                    : -2.770841            -11.555167           -5.343181
| 44>   H                    : -3.546336            -11.650999           -3.139602
| 45>   H                    : -4.193360            -10.192244           -3.849085
| 46>   H                    : -5.156689            -11.711549           -3.758057
| 47> *
| 48>
| 49> #Run DFT-D3 single point of the particle with dimer basis set
| 50> $new_job
| 51> %base "21-139_DFT_B"
| 52> ! wB97X-D3 def2-TZVP TIGHTSCF CHELPG PMODEL
| 53>
| 54> %scf
| 55> MaxIter 1000
| 56> end
| 57>
| 58> * xyz 0 1
| 59>   C                    : -1.001725            -9.641674            -5.075141
| 60>   O                    : -1.080321            -11.053985           -4.800357
| 61>   H                    : -0.733545            -11.033127           -3.907484
| 62>   H                    : -1.773834            -9.130125            -4.517852
| 63>   H                    : -0.063907            -9.121528            -4.738339
| 64>   H                    : -1.159688            -9.406464            -6.166276
| 65>   C                      -4.193454            -11.296787           -3.984335
| 66>   O                      -3.721456            -11.740180           -5.284262
| 67>   H                      -2.770841            -11.555167           -5.343181
| 68>   H                      -3.546336            -11.650999           -3.139602
| 69>   H                      -4.193360            -10.192244           -3.849085
| 70>   H                      -5.156689            -11.711549           -3.758057
| 71> *
| 72>
| 73>                          ****END OF INPUT****
 Total Charge           Charge          ....    0
 Multiplicity           Mult            ....    1
 Number of Electrons    NEL             ....   36
Dispersion correction           -0.002344993
FINAL SINGLE POINT ENERGY      -231.471679826615
Dispersion correction           -0.000240810
FINAL SINGLE POINT ENERGY      -115.730907090357

CARTESIAN COORDINATES (ANGSTROEM)
---------------------------------
  C     -1.001725   -9.641674   -5.075141
  O     -1.080321  -11.053985   -4.800357
  H     -0.733545  -11.033127   -3.907484
  H     -1.773834   -9.130125   -4.517852
  H     -0.063907   -9.121528   -4.738339
  H     -1.159688   -9.406464   -6.166276
  C     -4.193454  -11.296787   -3.984335
  O     -3.721456  -11.740180   -5.284262
  H     -2.770841  -11.555167   -5.343181
  H     -3.546336  -11.650999   -3.139602
  H     -4.193360  -10.192244   -3.849085
  H     -5.156689  -11.711549   -3.758057

 Multiplicity           Mult            ....    1
 Number of Electrons    NEL             ....   18
 Basis Dimension        Dim             ....  172

ORBITAL ENERGIES
----------------

  NO   OCC          E(Eh)            E(eV)
   0   2.0000     -19.235599      -523.4273
   1   2.0000     -10.319811      -280.8163
   2   2.0000      -1.124598       -30.6019
   3   2.0000      -0.796896       -21.6846
   4   2.0000      -0.605866       -16.4865
   5   2.0000      -0.534628       -14.5480
   6   2.0000      -0.520680       -14.1684
   7   2.0000      -0.438829       -11.9412
   8   2.0000      -0.375879       -10.2282
   9   0.0000       0.069140         1.8814
  10   0.0000       0.138997         3.7823
  11   0.0000       0.141945         3.8625
  12   0.0000       0.159682         4.3452
  13   0.0000       0.193573         5.2674

MULLIKEN ATOMIC CHARGES
-----------------------
   0 C :   -0.007936
   1 O :   -0.005637
   2 H :   -0.000268
   3 H :    0.000747
   4 H :   -0.000293
   5 H :    0.000848
   6 C :   -0.184237
   7 O :   -0.473011
   8 H :    0.320990
   9 H :    0.106051
  10 H :    0.110426
  11 H :    0.132320
Sum of atomic charges:   -0.0000000

LOEWDIN ATOMIC CHARGES
----------------------
   0 C :   -0.010074
   1 O :   -0.025300
   2 H :   -0.001681
   3 H :   -0.001727
   4 H :   -0.000191
   5 H :   -0.000689
   6 C :   -0.362677
   7 O :   -0.087976
   8 H :    0.185195
   9 H :    0.101455
  10 H :    0.099979
  11 H :    0.103686

  Mayer bond orders larger than 0.1
B(  6-C ,  7-O ) :   0.9901 B(  6-C ,  9-H ) :   0.9757 B(  6-C , 10-H ) :   0.9704
B(  6-C , 11-H ) :   0.9742 B(  7-O ,  8-H ) :   0.9026

Dispersion correction           -0.000276715
FINAL SINGLE POINT ENERGY      -115.733960595384

DIPOLE MOMENT
-------------
                                X             Y             Z
Electronic contribution:      0.36252      -0.61385      -1.79110
Nuclear contribution   :      0.02610       0.89080       2.30108
                        -----------------------------------------
Total Dipole Moment    :      0.38862       0.27696       0.50998
                        -----------------------------------------
Magnitude (a.u.)       :      0.69843
Magnitude (Debye)      :      1.77527

Rotational constants in cm-1:     4.315719     0.785221     0.757824
Rotational constants in MHz : 129382.001862 23540.319374 22719.003808

                             ****ORCA TERMINATED NORMALLY****
TOTAL RUN TIME: 0 days 0 hours 1 minutes 4 seconds 652 msec
