                         Program Version 4.1.2  - RELEASE  -
|  1> #Run DFT-D3 single point of the dimer
|  2> ! wB97X-D3 def2-TZVP TIGHTSCF CHELPG PMODEL PAL8
|  3>
|  4> %base "11-105_DFT_AB"
|  5>
|  6> %scf
|  7> MaxIter 1000
|  8> end
|  9>
| 10> * xyz 0 1
| 11>   C                      -8.009871            -4.711269            -2.147200
| 12>   O                      -8.298918            -5.552520            -1.027599
| 13>   H                      -8.177552            -5.122342            -0.191332
| 14>   H                      -8.178726            -5.149591            -3.108748
| 15>   H                      -8.576040            -3.788171            -2.055177
| 16>   H                      -7.060665            -4.281000            -2.058181
| 17>   C                      -9.419754            -8.999298            0.521356
| 18>   O                      -9.622307            -9.161128            1.920195
| 19>   H                      -8.922278            -8.609451            2.246270
| 20>   H                      -9.949133            -8.085550            0.170717
| 21>   H                      -8.383027            -8.907763            0.132142
| 22>   H                      -9.894533            -9.824222            0.008250
| 23> *
| 24>
| 25> #Run DFT-D3 single point of the molecule with dimer basis set
| 26> $new_job
| 27> %base "11-105_DFT_A"
| 28> ! wB97X-D3 def2-TZVP TIGHTSCF CHELPG PMODEL
| 29>
| 30> %scf
| 31> MaxIter 1000
| 32> end
| 33>
| 34> * xyz 0 1
| 35>   C                      -8.009871            -4.711269            -2.147200
| 36>   O                      -8.298918            -5.552520            -1.027599
| 37>   H                      -8.177552            -5.122342            -0.191332
| 38>   H                      -8.178726            -5.149591            -3.108748
| 39>   H                      -8.576040            -3.788171            -2.055177
| 40>   H                      -7.060665            -4.281000            -2.058181
| 41>   C                    : -9.419754            -8.999298            0.521356
| 42>   O                    : -9.622307            -9.161128            1.920195
| 43>   H                    : -8.922278            -8.609451            2.246270
| 44>   H                    : -9.949133            -8.085550            0.170717
| 45>   H                    : -8.383027            -8.907763            0.132142
| 46>   H                    : -9.894533            -9.824222            0.008250
| 47> *
| 48>
| 49> #Run DFT-D3 single point of the particle with dimer basis set
| 50> $new_job
| 51> %base "11-105_DFT_B"
| 52> ! wB97X-D3 def2-TZVP TIGHTSCF CHELPG PMODEL
| 53>
| 54> %scf
| 55> MaxIter 1000
| 56> end
| 57>
| 58> * xyz 0 1
| 59>   C                    : -8.009871            -4.711269            -2.147200
| 60>   O                    : -8.298918            -5.552520            -1.027599
| 61>   H                    : -8.177552            -5.122342            -0.191332
| 62>   H                    : -8.178726            -5.149591            -3.108748
| 63>   H                    : -8.576040            -3.788171            -2.055177
| 64>   H                    : -7.060665            -4.281000            -2.058181
| 65>   C                      -9.419754            -8.999298            0.521356
| 66>   O                      -9.622307            -9.161128            1.920195
| 67>   H                      -8.922278            -8.609451            2.246270
| 68>   H                      -9.949133            -8.085550            0.170717
| 69>   H                      -8.383027            -8.907763            0.132142
| 70>   H                      -9.894533            -9.824222            0.008250
| 71> *
| 72>
| 73>                          ****END OF INPUT****
 Total Charge           Charge          ....    0
 Multiplicity           Mult            ....    1
 Number of Electrons    NEL             ....   36
Dispersion correction           -0.001055535
FINAL SINGLE POINT ENERGY      -231.461460608393
Dispersion correction           -0.000237372
FINAL SINGLE POINT ENERGY      -115.727953946503

CARTESIAN COORDINATES (ANGSTROEM)
---------------------------------
  C     -8.009871   -4.711269   -2.147200
  O     -8.298918   -5.552520   -1.027599
  H     -8.177552   -5.122342   -0.191332
  H     -8.178726   -5.149591   -3.108748
  H     -8.576040   -3.788171   -2.055177
  H     -7.060665   -4.281000   -2.058181
  C     -9.419754   -8.999298    0.521356
  O     -9.622307   -9.161128    1.920195
  H     -8.922278   -8.609451    2.246270
  H     -9.949133   -8.085550    0.170717
  H     -8.383027   -8.907763    0.132142
  H     -9.894533   -9.824222    0.008250

 Multiplicity           Mult            ....    1
 Number of Electrons    NEL             ....   18
 Basis Dimension        Dim             ....  172

ORBITAL ENERGIES
----------------

  NO   OCC          E(Eh)            E(eV)
   0   2.0000     -19.234747      -523.4041
   1   2.0000     -10.315772      -280.7064
   2   2.0000      -1.143274       -31.1101
   3   2.0000      -0.792944       -21.5771
   4   2.0000      -0.612279       -16.6610
   5   2.0000      -0.535596       -14.5743
   6   2.0000      -0.523293       -14.2395
   7   2.0000      -0.449086       -12.2203
   8   2.0000      -0.374229       -10.1833
   9   0.0000       0.079002         2.1498
  10   0.0000       0.114447         3.1143
  11   0.0000       0.146992         3.9998
  12   0.0000       0.169045         4.6000
  13   0.0000       0.190180         5.1751

MULLIKEN ATOMIC CHARGES
-----------------------
   0 C :   -0.000305
   1 O :   -0.000173
   2 H :    0.000014
   3 H :    0.000003
   4 H :    0.000015
   5 H :    0.000010
   6 C :   -0.190590
   7 O :   -0.450856
   8 H :    0.311736
   9 H :    0.101431
  10 H :    0.107438
  11 H :    0.121275
Sum of atomic charges:   -0.0000000

LOEWDIN ATOMIC CHARGES
----------------------
   0 C :   -0.000109
   1 O :   -0.000818
   2 H :   -0.000229
   3 H :   -0.000005
   4 H :   -0.000002
   5 H :   -0.000002
   6 C :   -0.393534
   7 O :   -0.071899
   8 H :    0.165744
   9 H :    0.097880
  10 H :    0.098787
  11 H :    0.104186

  Mayer bond orders larger than 0.1
B(  6-C ,  7-O ) :   1.0081 B(  6-C ,  9-H ) :   0.9769 B(  6-C , 10-H ) :   0.9694
B(  6-C , 11-H ) :   0.9765 B(  7-O ,  8-H ) :   0.9071

Dispersion correction           -0.000241217
FINAL SINGLE POINT ENERGY      -115.732320708319

DIPOLE MOMENT
-------------
                                X             Y             Z
Electronic contribution:     -0.30034      -0.38060       1.89286
Nuclear contribution   :      0.81249       0.76941      -2.22391
                        -----------------------------------------
Total Dipole Moment    :      0.51216       0.38880      -0.33105
                        -----------------------------------------
Magnitude (a.u.)       :      0.72324
Magnitude (Debye)      :      1.83832

Rotational constants in cm-1:     4.275988     0.826044     0.793603
Rotational constants in MHz : 128190.885778 24764.177111 23791.630363

                             ****ORCA TERMINATED NORMALLY****
TOTAL RUN TIME: 0 days 0 hours 1 minutes 8 seconds 429 msec
