                         Program Version 4.1.2  - RELEASE  -
|  1> #Run DFT-D3 single point of the dimer
|  2> ! wB97X-D3 def2-TZVP TIGHTSCF CHELPG PMODEL PAL8
|  3>
|  4> %base "16-106_DFT_AB"
|  5>
|  6> %scf
|  7> MaxIter 1000
|  8> end
|  9>
| 10> * xyz 0 1
| 11>   C                      -5.734501            -10.192023           -5.611026
| 12>   O                      -4.666098            -9.342436            -5.831175
| 13>   H                      -5.044080            -8.663797            -6.404960
| 14>   H                      -6.608225            -9.629141            -5.369410
| 15>   H                      -5.796766            -10.794661           -6.500832
| 16>   H                      -5.543738            -10.761625           -4.659608
| 17>   C                      -5.590370            -7.869805            -9.159098
| 18>   O                      -6.107930            -8.282535            -7.889996
| 19>   H                      -7.005371            -8.557653            -7.957416
| 20>   H                      -6.105004            -6.922504            -9.527348
| 21>   H                      -4.508572            -7.705444            -9.112053
| 22>   H                      -5.763735            -8.656621            -9.890694
| 23> *
| 24>
| 25> #Run DFT-D3 single point of the molecule with dimer basis set
| 26> $new_job
| 27> %base "16-106_DFT_A"
| 28> ! wB97X-D3 def2-TZVP TIGHTSCF CHELPG PMODEL
| 29>
| 30> %scf
| 31> MaxIter 1000
| 32> end
| 33>
| 34> * xyz 0 1
| 35>   C                      -5.734501            -10.192023           -5.611026
| 36>   O                      -4.666098            -9.342436            -5.831175
| 37>   H                      -5.044080            -8.663797            -6.404960
| 38>   H                      -6.608225            -9.629141            -5.369410
| 39>   H                      -5.796766            -10.794661           -6.500832
| 40>   H                      -5.543738            -10.761625           -4.659608
| 41>   C                    : -5.590370            -7.869805            -9.159098
| 42>   O                    : -6.107930            -8.282535            -7.889996
| 43>   H                    : -7.005371            -8.557653            -7.957416
| 44>   H                    : -6.105004            -6.922504            -9.527348
| 45>   H                    : -4.508572            -7.705444            -9.112053
| 46>   H                    : -5.763735            -8.656621            -9.890694
| 47> *
| 48>
| 49> #Run DFT-D3 single point of the particle with dimer basis set
| 50> $new_job
| 51> %base "16-106_DFT_B"
| 52> ! wB97X-D3 def2-TZVP TIGHTSCF CHELPG PMODEL
| 53>
| 54> %scf
| 55> MaxIter 1000
| 56> end
| 57>
| 58> * xyz 0 1
| 59>   C                    : -5.734501            -10.192023           -5.611026
| 60>   O                    : -4.666098            -9.342436            -5.831175
| 61>   H                    : -5.044080            -8.663797            -6.404960
| 62>   H                    : -6.608225            -9.629141            -5.369410
| 63>   H                    : -5.796766            -10.794661           -6.500832
| 64>   H                    : -5.543738            -10.761625           -4.659608
| 65>   C                      -5.590370            -7.869805            -9.159098
| 66>   O                      -6.107930            -8.282535            -7.889996
| 67>   H                      -7.005371            -8.557653            -7.957416
| 68>   H                      -6.105004            -6.922504            -9.527348
| 69>   H                      -4.508572            -7.705444            -9.112053
| 70>   H                      -5.763735            -8.656621            -9.890694
| 71> *
| 72>
| 73>                          ****END OF INPUT****
 Total Charge           Charge          ....    0
 Multiplicity           Mult            ....    1
 Number of Electrons    NEL             ....   36
Dispersion correction           -0.001992584
FINAL SINGLE POINT ENERGY      -231.472312771956
Dispersion correction           -0.000193654
FINAL SINGLE POINT ENERGY      -115.729937006335

CARTESIAN COORDINATES (ANGSTROEM)
---------------------------------
  C     -5.734501  -10.192023   -5.611026
  O     -4.666098   -9.342436   -5.831175
  H     -5.044080   -8.663797   -6.404960
  H     -6.608225   -9.629141   -5.369410
  H     -5.796766  -10.794661   -6.500832
  H     -5.543738  -10.761625   -4.659608
  C     -5.590370   -7.869805   -9.159098
  O     -6.107930   -8.282535   -7.889996
  H     -7.005371   -8.557653   -7.957416
  H     -6.105004   -6.922504   -9.527348
  H     -4.508572   -7.705444   -9.112053
  H     -5.763735   -8.656621   -9.890694

 Multiplicity           Mult            ....    1
 Number of Electrons    NEL             ....   18
 Basis Dimension        Dim             ....  172

ORBITAL ENERGIES
----------------

  NO   OCC          E(Eh)            E(eV)
   0   2.0000     -19.228211      -523.2262
   1   2.0000     -10.320372      -280.8316
   2   2.0000      -1.133289       -30.8384
   3   2.0000      -0.797040       -21.6886
   4   2.0000      -0.609633       -16.5890
   5   2.0000      -0.536637       -14.6026
   6   2.0000      -0.530109       -14.4250
   7   2.0000      -0.431525       -11.7424
   8   2.0000      -0.373985       -10.1767
   9   0.0000       0.098722         2.6864
  10   0.0000       0.132118         3.5951
  11   0.0000       0.153066         4.1651
  12   0.0000       0.184207         5.0125
  13   0.0000       0.197886         5.3848

MULLIKEN ATOMIC CHARGES
-----------------------
   0 C :    0.003864
   1 O :    0.001830
   2 H :   -0.009302
   3 H :   -0.002695
   4 H :   -0.006970
   5 H :   -0.000759
   6 C :   -0.157537
   7 O :   -0.473863
   8 H :    0.314022
   9 H :    0.097154
  10 H :    0.126705
  11 H :    0.107552
Sum of atomic charges:    0.0000000

LOEWDIN ATOMIC CHARGES
----------------------
   0 C :   -0.017568
   1 O :   -0.008216
   2 H :   -0.044941
   3 H :   -0.001947
   4 H :   -0.004248
   5 H :   -0.000257
   6 C :   -0.367283
   7 O :   -0.019472
   8 H :    0.156211
   9 H :    0.103436
  10 H :    0.110044
  11 H :    0.094241

  Mayer bond orders larger than 0.1
B(  6-C ,  7-O ) :   0.9873 B(  6-C ,  9-H ) :   0.9699 B(  6-C , 10-H ) :   0.9742
B(  6-C , 11-H ) :   0.9765 B(  7-O ,  8-H ) :   0.8969

Dispersion correction           -0.000255146
FINAL SINGLE POINT ENERGY      -115.735318123336

DIPOLE MOMENT
-------------
                                X             Y             Z
Electronic contribution:     -0.48195      -0.49123       1.66304
Nuclear contribution   :      0.12892       0.47277      -2.24658
                        -----------------------------------------
Total Dipole Moment    :     -0.35302      -0.01846      -0.58354
                        -----------------------------------------
Magnitude (a.u.)       :      0.68227
Magnitude (Debye)      :      1.73418

Rotational constants in cm-1:     4.268383     0.807963     0.783625
Rotational constants in MHz : 127962.894339 24222.110909 23492.490575

                             ****ORCA TERMINATED NORMALLY****
TOTAL RUN TIME: 0 days 0 hours 1 minutes 7 seconds 146 msec
