                         Program Version 4.1.2  - RELEASE  -
|  1> #Run DFT-D3 single point of the dimer
|  2> ! wB97X-D3 def2-TZVP TIGHTSCF CHELPG PMODEL PAL8
|  3>
|  4> %base "2-179_DFT_AB"
|  5>
|  6> %scf
|  7> MaxIter 1000
|  8> end
|  9>
| 10> * xyz 0 1
| 11>   C                      1.478229             4.723334             1.853045
| 12>   O                      2.137860             3.740740             0.987973
| 13>   H                      1.603205             2.908610             1.102617
| 14>   H                      2.125817             5.126152             2.564378
| 15>   H                      1.034596             5.532654             1.227298
| 16>   H                      0.771103             4.272160             2.550989
| 17>   C                      2.132562             6.857292             -0.457491
| 18>   O                      1.974471             5.493375             -0.854099
| 19>   H                      1.139271             5.180348             -0.609880
| 20>   H                      1.193411             7.360740             -0.596032
| 21>   H                      2.479506             6.892604             0.618237
| 22>   H                      2.840056             7.425782             -1.091816
| 23> *
| 24>
| 25> #Run DFT-D3 single point of the molecule with dimer basis set
| 26> $new_job
| 27> %base "2-179_DFT_A"
| 28> ! wB97X-D3 def2-TZVP TIGHTSCF CHELPG PMODEL
| 29>
| 30> %scf
| 31> MaxIter 1000
| 32> end
| 33>
| 34> * xyz 0 1
| 35>   C                      1.478229             4.723334             1.853045
| 36>   O                      2.137860             3.740740             0.987973
| 37>   H                      1.603205             2.908610             1.102617
| 38>   H                      2.125817             5.126152             2.564378
| 39>   H                      1.034596             5.532654             1.227298
| 40>   H                      0.771103             4.272160             2.550989
| 41>   C                    : 2.132562             6.857292             -0.457491
| 42>   O                    : 1.974471             5.493375             -0.854099
| 43>   H                    : 1.139271             5.180348             -0.609880
| 44>   H                    : 1.193411             7.360740             -0.596032
| 45>   H                    : 2.479506             6.892604             0.618237
| 46>   H                    : 2.840056             7.425782             -1.091816
| 47> *
| 48>
| 49> #Run DFT-D3 single point of the particle with dimer basis set
| 50> $new_job
| 51> %base "2-179_DFT_B"
| 52> ! wB97X-D3 def2-TZVP TIGHTSCF CHELPG PMODEL
| 53>
| 54> %scf
| 55> MaxIter 1000
| 56> end
| 57>
| 58> * xyz 0 1
| 59>   C                    : 1.478229             4.723334             1.853045
| 60>   O                    : 2.137860             3.740740             0.987973
| 61>   H                    : 1.603205             2.908610             1.102617
| 62>   H                    : 2.125817             5.126152             2.564378
| 63>   H                    : 1.034596             5.532654             1.227298
| 64>   H                    : 0.771103             4.272160             2.550989
| 65>   C                      2.132562             6.857292             -0.457491
| 66>   O                      1.974471             5.493375             -0.854099
| 67>   H                      1.139271             5.180348             -0.609880
| 68>   H                      1.193411             7.360740             -0.596032
| 69>   H                      2.479506             6.892604             0.618237
| 70>   H                      2.840056             7.425782             -1.091816
| 71> *
| 72>
| 73>                          ****END OF INPUT****
 Total Charge           Charge          ....    0
 Multiplicity           Mult            ....    1
 Number of Electrons    NEL             ....   36
Dispersion correction           -0.002171407
FINAL SINGLE POINT ENERGY      -231.447176604150
Dispersion correction           -0.000268035
FINAL SINGLE POINT ENERGY      -115.727646326984

CARTESIAN COORDINATES (ANGSTROEM)
---------------------------------
  C      1.478229    4.723334    1.853045
  O      2.137860    3.740740    0.987973
  H      1.603205    2.908610    1.102617
  H      2.125817    5.126152    2.564378
  H      1.034596    5.532654    1.227298
  H      0.771103    4.272160    2.550989
  C      2.132562    6.857292   -0.457491
  O      1.974471    5.493375   -0.854099
  H      1.139271    5.180348   -0.609880
  H      1.193411    7.360740   -0.596032
  H      2.479506    6.892604    0.618237
  H      2.840056    7.425782   -1.091816

 Multiplicity           Mult            ....    1
 Number of Electrons    NEL             ....   18
 Basis Dimension        Dim             ....  172

ORBITAL ENERGIES
----------------

  NO   OCC          E(Eh)            E(eV)
   0   2.0000     -19.226572      -523.1816
   1   2.0000     -10.319278      -280.8018
   2   2.0000      -1.137932       -30.9647
   3   2.0000      -0.798450       -21.7269
   4   2.0000      -0.611711       -16.6455
   5   2.0000      -0.542529       -14.7630
   6   2.0000      -0.529450       -14.4071
   7   2.0000      -0.428760       -11.6672
   8   2.0000      -0.375916       -10.2292
   9   0.0000       0.083730         2.2784
  10   0.0000       0.141099         3.8395
  11   0.0000       0.144072         3.9204
  12   0.0000       0.181537         4.9399
  13   0.0000       0.183789         5.0011

MULLIKEN ATOMIC CHARGES
-----------------------
   0 C :   -0.006397
   1 O :   -0.000457
   2 H :    0.000090
   3 H :   -0.001676
   4 H :   -0.005850
   5 H :   -0.000769
   6 C :   -0.178251
   7 O :   -0.465777
   8 H :    0.314095
   9 H :    0.115061
  10 H :    0.102734
  11 H :    0.127198
Sum of atomic charges:   -0.0000000

LOEWDIN ATOMIC CHARGES
----------------------
   0 C :   -0.032355
   1 O :   -0.023883
   2 H :   -0.001457
   3 H :   -0.001214
   4 H :   -0.018318
   5 H :   -0.000312
   6 C :   -0.360276
   7 O :   -0.030607
   8 H :    0.151279
   9 H :    0.095111
  10 H :    0.111962
  11 H :    0.110070

  Mayer bond orders larger than 0.1
B(  6-C ,  7-O ) :   0.9890 B(  6-C ,  9-H ) :   0.9856 B(  6-C , 10-H ) :   0.9799
B(  6-C , 11-H ) :   0.9723 B(  7-O ,  8-H ) :   0.9051

Dispersion correction           -0.000248419
FINAL SINGLE POINT ENERGY      -115.733085815423

DIPOLE MOMENT
-------------
                                X             Y             Z
Electronic contribution:     -0.06747      -1.69704      -0.58339
Nuclear contribution   :     -0.42460       2.07862       0.86355
                        -----------------------------------------
Total Dipole Moment    :     -0.49208       0.38158       0.28017
                        -----------------------------------------
Magnitude (a.u.)       :      0.68282
Magnitude (Debye)      :      1.73558

Rotational constants in cm-1:     4.309902     0.808852     0.792955
Rotational constants in MHz : 129207.607266 24248.784368 23772.186373

                             ****ORCA TERMINATED NORMALLY****
TOTAL RUN TIME: 0 days 0 hours 5 minutes 44 seconds 701 msec
