                         Program Version 4.1.2  - RELEASE  -
|  1> #Run DFT-D3 single point of the dimer
|  2> ! wB97X-D3 def2-TZVP TIGHTSCF CHELPG PMODEL PAL8
|  3>
|  4> %base "12-48_DFT_AB"
|  5>
|  6> %scf
|  7> MaxIter 1000
|  8> end
|  9>
| 10> * xyz 0 1
| 11>   C                      -2.565252            4.718114             -0.085181
| 12>   O                      -2.001019            4.805665             -1.430314
| 13>   H                      -1.240345            5.338943             -1.221299
| 14>   H                      -1.779562            4.387065             0.613376
| 15>   H                      -2.893558            5.626545             0.347260
| 16>   H                      -3.394099            4.098800             0.009473
| 17>   C                      -5.299136            6.324784             2.525797
| 18>   O                      -3.875344            6.632212             2.582951
| 19>   H                      -3.598302            5.797346             2.961508
| 20>   H                      -5.501277            5.336444             2.068063
| 21>   H                      -5.698940            6.291915             3.520697
| 22>   H                      -5.897448            7.063423             1.971269
| 23> *
| 24>
| 25> #Run DFT-D3 single point of the molecule with dimer basis set
| 26> $new_job
| 27> %base "12-48_DFT_A"
| 28> ! wB97X-D3 def2-TZVP TIGHTSCF CHELPG PMODEL
| 29>
| 30> %scf
| 31> MaxIter 1000
| 32> end
| 33>
| 34> * xyz 0 1
| 35>   C                      -2.565252            4.718114             -0.085181
| 36>   O                      -2.001019            4.805665             -1.430314
| 37>   H                      -1.240345            5.338943             -1.221299
| 38>   H                      -1.779562            4.387065             0.613376
| 39>   H                      -2.893558            5.626545             0.347260
| 40>   H                      -3.394099            4.098800             0.009473
| 41>   C                    : -5.299136            6.324784             2.525797
| 42>   O                    : -3.875344            6.632212             2.582951
| 43>   H                    : -3.598302            5.797346             2.961508
| 44>   H                    : -5.501277            5.336444             2.068063
| 45>   H                    : -5.698940            6.291915             3.520697
| 46>   H                    : -5.897448            7.063423             1.971269
| 47> *
| 48>
| 49> #Run DFT-D3 single point of the particle with dimer basis set
| 50> $new_job
| 51> %base "12-48_DFT_B"
| 52> ! wB97X-D3 def2-TZVP TIGHTSCF CHELPG PMODEL
| 53>
| 54> %scf
| 55> MaxIter 1000
| 56> end
| 57>
| 58> * xyz 0 1
| 59>   C                    : -2.565252            4.718114             -0.085181
| 60>   O                    : -2.001019            4.805665             -1.430314
| 61>   H                    : -1.240345            5.338943             -1.221299
| 62>   H                    : -1.779562            4.387065             0.613376
| 63>   H                    : -2.893558            5.626545             0.347260
| 64>   H                    : -3.394099            4.098800             0.009473
| 65>   C                      -5.299136            6.324784             2.525797
| 66>   O                      -3.875344            6.632212             2.582951
| 67>   H                      -3.598302            5.797346             2.961508
| 68>   H                      -5.501277            5.336444             2.068063
| 69>   H                      -5.698940            6.291915             3.520697
| 70>   H                      -5.897448            7.063423             1.971269
| 71> *
| 72>
| 73>                          ****END OF INPUT****
 Total Charge           Charge          ....    0
 Multiplicity           Mult            ....    1
 Number of Electrons    NEL             ....   36
Dispersion correction           -0.001688416
FINAL SINGLE POINT ENERGY      -231.460274568328
Dispersion correction           -0.000233859
FINAL SINGLE POINT ENERGY      -115.727012901733

CARTESIAN COORDINATES (ANGSTROEM)
---------------------------------
  C     -2.565252    4.718114   -0.085181
  O     -2.001019    4.805665   -1.430314
  H     -1.240345    5.338943   -1.221299
  H     -1.779562    4.387065    0.613376
  H     -2.893558    5.626545    0.347260
  H     -3.394099    4.098800    0.009473
  C     -5.299136    6.324784    2.525797
  O     -3.875344    6.632212    2.582951
  H     -3.598302    5.797346    2.961508
  H     -5.501277    5.336444    2.068063
  H     -5.698940    6.291915    3.520697
  H     -5.897448    7.063423    1.971269

 Multiplicity           Mult            ....    1
 Number of Electrons    NEL             ....   18
 Basis Dimension        Dim             ....  172

ORBITAL ENERGIES
----------------

  NO   OCC          E(Eh)            E(eV)
   0   2.0000     -19.235935      -523.4364
   1   2.0000     -10.318055      -280.7685
   2   2.0000      -1.133218       -30.8364
   3   2.0000      -0.795214       -21.6389
   4   2.0000      -0.602237       -16.3877
   5   2.0000      -0.540239       -14.7007
   6   2.0000      -0.522931       -14.2297
   7   2.0000      -0.449110       -12.2209
   8   2.0000      -0.377721       -10.2783
   9   0.0000       0.085390         2.3236
  10   0.0000       0.125584         3.4173
  11   0.0000       0.149080         4.0567
  12   0.0000       0.171956         4.6792
  13   0.0000       0.193981         5.2785

MULLIKEN ATOMIC CHARGES
-----------------------
   0 C :   -0.005820
   1 O :   -0.000137
   2 H :   -0.000099
   3 H :    0.000204
   4 H :   -0.005049
   5 H :    0.000862
   6 C :   -0.198811
   7 O :   -0.456991
   8 H :    0.315443
   9 H :    0.109952
  10 H :    0.117195
  11 H :    0.123250
Sum of atomic charges:    0.0000000

LOEWDIN ATOMIC CHARGES
----------------------
   0 C :   -0.006222
   1 O :   -0.000039
   2 H :   -0.000008
   3 H :   -0.000390
   4 H :   -0.010287
   5 H :   -0.000378
   6 C :   -0.364039
   7 O :   -0.090410
   8 H :    0.170856
   9 H :    0.099040
  10 H :    0.092692
  11 H :    0.109186

  Mayer bond orders larger than 0.1
B(  6-C ,  7-O ) :   0.9852 B(  6-C ,  9-H ) :   0.9758 B(  6-C , 10-H ) :   0.9754
B(  6-C , 11-H ) :   0.9744 B(  7-O ,  8-H ) :   0.9041

Dispersion correction           -0.000232555
FINAL SINGLE POINT ENERGY      -115.731527960317

DIPOLE MOMENT
-------------
                                X             Y             Z
Electronic contribution:      1.81925       0.61871      -0.01196
Nuclear contribution   :     -2.24702      -1.23770       0.23623
                        -----------------------------------------
Total Dipole Moment    :     -0.42777      -0.61899       0.22427
                        -----------------------------------------
Magnitude (a.u.)       :      0.78514
Magnitude (Debye)      :      1.99566

Rotational constants in cm-1:     4.271765     0.799527     0.767169
Rotational constants in MHz : 128064.288045 23969.228164 22999.139339

                             ****ORCA TERMINATED NORMALLY****
TOTAL RUN TIME: 0 days 0 hours 1 minutes 14 seconds 417 msec
