                         Program Version 4.1.2  - RELEASE  -
|  1> #Run DFT-D3 single point of the dimer
|  2> ! wB97X-D3 def2-TZVP TIGHTSCF CHELPG PMODEL PAL8
|  3>
|  4> %base "12-157_DFT_AB"
|  5>
|  6> %scf
|  7> MaxIter 1000
|  8> end
|  9>
| 10> * xyz 0 1
| 11>   C                      -0.386517            7.473457             -7.189764
| 12>   O                      -1.456874            6.859022             -6.368077
| 13>   H                      -2.191042            7.459436             -6.201093
| 14>   H                      -0.620523            7.533396             -8.242037
| 15>   H                      -0.079154            8.434100             -6.840839
| 16>   H                      0.476425             6.832288             -7.105463
| 17>   C                      -3.891385            9.456541             -6.561521
| 18>   O                      -3.741582            8.301238             -5.732158
| 19>   H                      -4.519778            8.165228             -5.203494
| 20>   H                      -4.942078            9.605646             -6.892756
| 21>   H                      -3.735440            10.335706            -5.928576
| 22>   H                      -3.229710            9.454276             -7.448932
| 23> *
| 24>
| 25> #Run DFT-D3 single point of the molecule with dimer basis set
| 26> $new_job
| 27> %base "12-157_DFT_A"
| 28> ! wB97X-D3 def2-TZVP TIGHTSCF CHELPG PMODEL
| 29>
| 30> %scf
| 31> MaxIter 1000
| 32> end
| 33>
| 34> * xyz 0 1
| 35>   C                      -0.386517            7.473457             -7.189764
| 36>   O                      -1.456874            6.859022             -6.368077
| 37>   H                      -2.191042            7.459436             -6.201093
| 38>   H                      -0.620523            7.533396             -8.242037
| 39>   H                      -0.079154            8.434100             -6.840839
| 40>   H                      0.476425             6.832288             -7.105463
| 41>   C                    : -3.891385            9.456541             -6.561521
| 42>   O                    : -3.741582            8.301238             -5.732158
| 43>   H                    : -4.519778            8.165228             -5.203494
| 44>   H                    : -4.942078            9.605646             -6.892756
| 45>   H                    : -3.735440            10.335706            -5.928576
| 46>   H                    : -3.229710            9.454276             -7.448932
| 47> *
| 48>
| 49> #Run DFT-D3 single point of the particle with dimer basis set
| 50> $new_job
| 51> %base "12-157_DFT_B"
| 52> ! wB97X-D3 def2-TZVP TIGHTSCF CHELPG PMODEL
| 53>
| 54> %scf
| 55> MaxIter 1000
| 56> end
| 57>
| 58> * xyz 0 1
| 59>   C                    : -0.386517            7.473457             -7.189764
| 60>   O                    : -1.456874            6.859022             -6.368077
| 61>   H                    : -2.191042            7.459436             -6.201093
| 62>   H                    : -0.620523            7.533396             -8.242037
| 63>   H                    : -0.079154            8.434100             -6.840839
| 64>   H                    : 0.476425             6.832288             -7.105463
| 65>   C                      -3.891385            9.456541             -6.561521
| 66>   O                      -3.741582            8.301238             -5.732158
| 67>   H                      -4.519778            8.165228             -5.203494
| 68>   H                      -4.942078            9.605646             -6.892756
| 69>   H                      -3.735440            10.335706            -5.928576
| 70>   H                      -3.229710            9.454276             -7.448932
| 71> *
| 72>
| 73>                          ****END OF INPUT****
 Total Charge           Charge          ....    0
 Multiplicity           Mult            ....    1
 Number of Electrons    NEL             ....   36
Dispersion correction           -0.001853199
FINAL SINGLE POINT ENERGY      -231.472506438571
Dispersion correction           -0.000287978
FINAL SINGLE POINT ENERGY      -115.732848395637

CARTESIAN COORDINATES (ANGSTROEM)
---------------------------------
  C     -0.386517    7.473457   -7.189764
  O     -1.456874    6.859022   -6.368077
  H     -2.191042    7.459436   -6.201093
  H     -0.620523    7.533396   -8.242037
  H     -0.079154    8.434100   -6.840839
  H      0.476425    6.832288   -7.105463
  C     -3.891385    9.456541   -6.561521
  O     -3.741582    8.301238   -5.732158
  H     -4.519778    8.165228   -5.203494
  H     -4.942078    9.605646   -6.892756
  H     -3.735440   10.335706   -5.928576
  H     -3.229710    9.454276   -7.448932

 Multiplicity           Mult            ....    1
 Number of Electrons    NEL             ....   18
 Basis Dimension        Dim             ....  172

ORBITAL ENERGIES
----------------

  NO   OCC          E(Eh)            E(eV)
   0   2.0000     -19.228455      -523.2329
   1   2.0000     -10.319007      -280.7945
   2   2.0000      -1.131848       -30.7991
   3   2.0000      -0.795975       -21.6596
   4   2.0000      -0.611498       -16.6397
   5   2.0000      -0.539527       -14.6813
   6   2.0000      -0.523399       -14.2424
   7   2.0000      -0.434101       -11.8125
   8   2.0000      -0.370842       -10.0911
   9   0.0000       0.095377         2.5953
  10   0.0000       0.121672         3.3109
  11   0.0000       0.151448         4.1211
  12   0.0000       0.187343         5.0979
  13   0.0000       0.198559         5.4031

MULLIKEN ATOMIC CHARGES
-----------------------
   0 C :    0.001269
   1 O :    0.002178
   2 H :   -0.015088
   3 H :   -0.000268
   4 H :   -0.000200
   5 H :   -0.000028
   6 C :   -0.165269
   7 O :   -0.468983
   8 H :    0.311001
   9 H :    0.101625
  10 H :    0.105151
  11 H :    0.128612
Sum of atomic charges:    0.0000000

LOEWDIN ATOMIC CHARGES
----------------------
   0 C :   -0.001477
   1 O :   -0.007188
   2 H :   -0.051351
   3 H :   -0.000149
   4 H :   -0.000136
   5 H :   -0.000011
   6 C :   -0.368867
   7 O :   -0.038973
   8 H :    0.160638
   9 H :    0.098606
  10 H :    0.096452
  11 H :    0.112456

  Mayer bond orders larger than 0.1
B(  6-C ,  7-O ) :   0.9812 B(  6-C ,  9-H ) :   0.9742 B(  6-C , 10-H ) :   0.9775
B(  6-C , 11-H ) :   0.9715 B(  7-O ,  8-H ) :   0.8985

Dispersion correction           -0.000250155
FINAL SINGLE POINT ENERGY      -115.733289545484

DIPOLE MOMENT
-------------
                                X             Y             Z
Electronic contribution:      0.39910      -1.54427       0.91310
Nuclear contribution   :     -0.98569       1.93876      -0.91486
                        -----------------------------------------
Total Dipole Moment    :     -0.58659       0.39449      -0.00175
                        -----------------------------------------
Magnitude (a.u.)       :      0.70691
Magnitude (Debye)      :      1.79682

Rotational constants in cm-1:     4.291725     0.813687     0.779230
Rotational constants in MHz : 128662.667729 24393.708022 23360.720304

                             ****ORCA TERMINATED NORMALLY****
TOTAL RUN TIME: 0 days 0 hours 1 minutes 16 seconds 735 msec
