                         Program Version 4.1.2  - RELEASE  -
|  1> #Run DFT-D3 single point of the dimer
|  2> ! wB97X-D3 def2-TZVP TIGHTSCF CHELPG PMODEL PAL8
|  3>
|  4> %base "21-78_DFT_AB"
|  5>
|  6> %scf
|  7> MaxIter 1000
|  8> end
|  9>
| 10> * xyz 0 1
| 11>   C                      3.842016             6.695679             2.250202
| 12>   O                      2.873278             7.246164             1.343030
| 13>   H                      3.031708             6.919436             0.425400
| 14>   H                      3.817862             5.565453             2.173094
| 15>   H                      4.822762             6.953849             1.878522
| 16>   H                      3.663193             7.138407             3.241986
| 17>   C                      4.300986             3.277837             -0.779412
| 18>   O                      4.135071             1.899110             -0.580720
| 19>   H                      3.524675             1.661113             -1.263119
| 20>   H                      4.367841             3.429824             -1.873879
| 21>   H                      3.404084             3.864418             -0.389898
| 22>   H                      5.150771             3.684024             -0.288864
| 23> *
| 24>
| 25> #Run DFT-D3 single point of the molecule with dimer basis set
| 26> $new_job
| 27> %base "21-78_DFT_A"
| 28> ! wB97X-D3 def2-TZVP TIGHTSCF CHELPG PMODEL
| 29>
| 30> %scf
| 31> MaxIter 1000
| 32> end
| 33>
| 34> * xyz 0 1
| 35>   C                      3.842016             6.695679             2.250202
| 36>   O                      2.873278             7.246164             1.343030
| 37>   H                      3.031708             6.919436             0.425400
| 38>   H                      3.817862             5.565453             2.173094
| 39>   H                      4.822762             6.953849             1.878522
| 40>   H                      3.663193             7.138407             3.241986
| 41>   C                    : 4.300986             3.277837             -0.779412
| 42>   O                    : 4.135071             1.899110             -0.580720
| 43>   H                    : 3.524675             1.661113             -1.263119
| 44>   H                    : 4.367841             3.429824             -1.873879
| 45>   H                    : 3.404084             3.864418             -0.389898
| 46>   H                    : 5.150771             3.684024             -0.288864
| 47> *
| 48>
| 49> #Run DFT-D3 single point of the particle with dimer basis set
| 50> $new_job
| 51> %base "21-78_DFT_B"
| 52> ! wB97X-D3 def2-TZVP TIGHTSCF CHELPG PMODEL
| 53>
| 54> %scf
| 55> MaxIter 1000
| 56> end
| 57>
| 58> * xyz 0 1
| 59>   C                    : 3.842016             6.695679             2.250202
| 60>   O                    : 2.873278             7.246164             1.343030
| 61>   H                    : 3.031708             6.919436             0.425400
| 62>   H                    : 3.817862             5.565453             2.173094
| 63>   H                    : 4.822762             6.953849             1.878522
| 64>   H                    : 3.663193             7.138407             3.241986
| 65>   C                      4.300986             3.277837             -0.779412
| 66>   O                      4.135071             1.899110             -0.580720
| 67>   H                      3.524675             1.661113             -1.263119
| 68>   H                      4.367841             3.429824             -1.873879
| 69>   H                      3.404084             3.864418             -0.389898
| 70>   H                      5.150771             3.684024             -0.288864
| 71> *
| 72>
| 73>                          ****END OF INPUT****
 Total Charge           Charge          ....    0
 Multiplicity           Mult            ....    1
 Number of Electrons    NEL             ....   36
Dispersion correction           -0.001153028
FINAL SINGLE POINT ENERGY      -231.464850661460
Dispersion correction           -0.000238932
FINAL SINGLE POINT ENERGY      -115.732084899333

CARTESIAN COORDINATES (ANGSTROEM)
---------------------------------
  C      3.842016    6.695679    2.250202
  O      2.873278    7.246164    1.343030
  H      3.031708    6.919436    0.425400
  H      3.817862    5.565453    2.173094
  H      4.822762    6.953849    1.878522
  H      3.663193    7.138407    3.241986
  C      4.300986    3.277837   -0.779412
  O      4.135071    1.899110   -0.580720
  H      3.524675    1.661113   -1.263119
  H      4.367841    3.429824   -1.873879
  H      3.404084    3.864418   -0.389898
  H      5.150771    3.684024   -0.288864

 Multiplicity           Mult            ....    1
 Number of Electrons    NEL             ....   18
 Basis Dimension        Dim             ....  172

ORBITAL ENERGIES
----------------

  NO   OCC          E(Eh)            E(eV)
   0   2.0000     -19.229586      -523.2636
   1   2.0000     -10.315689      -280.7042
   2   2.0000      -1.146694       -31.2031
   3   2.0000      -0.791938       -21.5497
   4   2.0000      -0.612226       -16.6595
   5   2.0000      -0.541596       -14.7376
   6   2.0000      -0.535356       -14.5678
   7   2.0000      -0.438271       -11.9259
   8   2.0000      -0.370590       -10.0843
   9   0.0000       0.083567         2.2740
  10   0.0000       0.115084         3.1316
  11   0.0000       0.149825         4.0770
  12   0.0000       0.168233         4.5778
  13   0.0000       0.188556         5.1309

MULLIKEN ATOMIC CHARGES
-----------------------
   0 C :   -0.000392
   1 O :    0.000094
   2 H :   -0.000349
   3 H :    0.000082
   4 H :   -0.000001
   5 H :   -0.000011
   6 C :   -0.175081
   7 O :   -0.456269
   8 H :    0.313313
   9 H :    0.100292
  10 H :    0.094797
  11 H :    0.123523
Sum of atomic charges:    0.0000000

LOEWDIN ATOMIC CHARGES
----------------------
   0 C :   -0.000580
   1 O :   -0.000055
   2 H :   -0.000765
   3 H :   -0.000694
   4 H :   -0.000034
   5 H :   -0.000004
   6 C :   -0.395891
   7 O :   -0.063251
   8 H :    0.164288
   9 H :    0.097936
  10 H :    0.100617
  11 H :    0.098432

  Mayer bond orders larger than 0.1
B(  6-C ,  7-O ) :   1.0006 B(  6-C ,  9-H ) :   0.9881 B(  6-C , 10-H ) :   0.9713
B(  6-C , 11-H ) :   0.9718 B(  7-O ,  8-H ) :   0.9051

Dispersion correction           -0.000219188
FINAL SINGLE POINT ENERGY      -115.732246882397

DIPOLE MOMENT
-------------
                                X             Y             Z
Electronic contribution:      0.02075      -1.82012       0.43836
Nuclear contribution   :     -0.31047       2.18636      -0.94304
                        -----------------------------------------
Total Dipole Moment    :     -0.28972       0.36624      -0.50469
                        -----------------------------------------
Magnitude (a.u.)       :      0.68759
Magnitude (Debye)      :      1.74772

Rotational constants in cm-1:     4.208317     0.848079     0.818299
Rotational constants in MHz : 126162.176830 25424.757497 24531.980444

                             ****ORCA TERMINATED NORMALLY****
TOTAL RUN TIME: 0 days 0 hours 1 minutes 4 seconds 377 msec
