                         Program Version 4.1.2  - RELEASE  -
|  1> #Run DFT-D3 single point of the dimer
|  2> ! wB97X-D3 def2-TZVP TIGHTSCF CHELPG PMODEL PAL8
|  3>
|  4> %base "19-199_DFT_AB"
|  5>
|  6> %scf
|  7> MaxIter 1000
|  8> end
|  9>
| 10> * xyz 0 1
| 11>   C                      -2.961215            -7.884649            -1.258607
| 12>   O                      -3.610688            -7.932195            0.018584
| 13>   H                      -3.502670            -8.828416            0.334848
| 14>   H                      -2.254820            -8.680860            -1.353446
| 15>   H                      -3.686694            -7.831056            -2.107191
| 16>   H                      -2.356575            -6.985893            -1.346645
| 17>   C                      -6.561120            -7.208516            -2.043141
| 18>   O                      -6.505503            -8.034311            -0.859146
| 19>   H                      -5.815728            -7.694203            -0.279533
| 20>   H                      -6.739107            -7.803259            -2.949671
| 21>   H                      -7.411202            -6.441525            -1.877794
| 22>   H                      -5.631504            -6.586797            -2.143747
| 23> *
| 24>
| 25> #Run DFT-D3 single point of the molecule with dimer basis set
| 26> $new_job
| 27> %base "19-199_DFT_A"
| 28> ! wB97X-D3 def2-TZVP TIGHTSCF CHELPG PMODEL
| 29>
| 30> %scf
| 31> MaxIter 1000
| 32> end
| 33>
| 34> * xyz 0 1
| 35>   C                      -2.961215            -7.884649            -1.258607
| 36>   O                      -3.610688            -7.932195            0.018584
| 37>   H                      -3.502670            -8.828416            0.334848
| 38>   H                      -2.254820            -8.680860            -1.353446
| 39>   H                      -3.686694            -7.831056            -2.107191
| 40>   H                      -2.356575            -6.985893            -1.346645
| 41>   C                    : -6.561120            -7.208516            -2.043141
| 42>   O                    : -6.505503            -8.034311            -0.859146
| 43>   H                    : -5.815728            -7.694203            -0.279533
| 44>   H                    : -6.739107            -7.803259            -2.949671
| 45>   H                    : -7.411202            -6.441525            -1.877794
| 46>   H                    : -5.631504            -6.586797            -2.143747
| 47> *
| 48>
| 49> #Run DFT-D3 single point of the particle with dimer basis set
| 50> $new_job
| 51> %base "19-199_DFT_B"
| 52> ! wB97X-D3 def2-TZVP TIGHTSCF CHELPG PMODEL
| 53>
| 54> %scf
| 55> MaxIter 1000
| 56> end
| 57>
| 58> * xyz 0 1
| 59>   C                    : -2.961215            -7.884649            -1.258607
| 60>   O                    : -3.610688            -7.932195            0.018584
| 61>   H                    : -3.502670            -8.828416            0.334848
| 62>   H                    : -2.254820            -8.680860            -1.353446
| 63>   H                    : -3.686694            -7.831056            -2.107191
| 64>   H                    : -2.356575            -6.985893            -1.346645
| 65>   C                      -6.561120            -7.208516            -2.043141
| 66>   O                      -6.505503            -8.034311            -0.859146
| 67>   H                      -5.815728            -7.694203            -0.279533
| 68>   H                      -6.739107            -7.803259            -2.949671
| 69>   H                      -7.411202            -6.441525            -1.877794
| 70>   H                      -5.631504            -6.586797            -2.143747
| 71> *
| 72>
| 73>                          ****END OF INPUT****
 Total Charge           Charge          ....    0
 Multiplicity           Mult            ....    1
 Number of Electrons    NEL             ....   36
Dispersion correction           -0.002179877
FINAL SINGLE POINT ENERGY      -231.473169901914
Dispersion correction           -0.000253099
FINAL SINGLE POINT ENERGY      -115.734214779346

CARTESIAN COORDINATES (ANGSTROEM)
---------------------------------
  C     -2.961215   -7.884649   -1.258607
  O     -3.610688   -7.932195    0.018584
  H     -3.502670   -8.828416    0.334848
  H     -2.254820   -8.680860   -1.353446
  H     -3.686694   -7.831056   -2.107191
  H     -2.356575   -6.985893   -1.346645
  C     -6.561120   -7.208516   -2.043141
  O     -6.505503   -8.034311   -0.859146
  H     -5.815728   -7.694203   -0.279533
  H     -6.739107   -7.803259   -2.949671
  H     -7.411202   -6.441525   -1.877794
  H     -5.631504   -6.586797   -2.143747

 Multiplicity           Mult            ....    1
 Number of Electrons    NEL             ....   18
 Basis Dimension        Dim             ....  172

ORBITAL ENERGIES
----------------

  NO   OCC          E(Eh)            E(eV)
   0   2.0000     -19.230650      -523.2926
   1   2.0000     -10.327010      -281.0122
   2   2.0000      -1.126807       -30.6620
   3   2.0000      -0.789135       -21.4735
   4   2.0000      -0.604958       -16.4618
   5   2.0000      -0.535911       -14.5829
   6   2.0000      -0.519324       -14.1315
   7   2.0000      -0.435492       -11.8503
   8   2.0000      -0.371605       -10.1119
   9   0.0000       0.075335         2.0500
  10   0.0000       0.135113         3.6766
  11   0.0000       0.138796         3.7768
  12   0.0000       0.173751         4.7280
  13   0.0000       0.186836         5.0841

MULLIKEN ATOMIC CHARGES
-----------------------
   0 C :   -0.006294
   1 O :   -0.002944
   2 H :   -0.000556
   3 H :    0.000265
   4 H :    0.002588
   5 H :    0.000082
   6 C :   -0.181187
   7 O :   -0.473076
   8 H :    0.315302
   9 H :    0.125511
  10 H :    0.110760
  11 H :    0.109550
Sum of atomic charges:   -0.0000000

LOEWDIN ATOMIC CHARGES
----------------------
   0 C :   -0.008099
   1 O :   -0.010242
   2 H :   -0.001656
   3 H :   -0.000061
   4 H :   -0.005029
   5 H :   -0.000125
   6 C :   -0.368558
   7 O :   -0.093863
   8 H :    0.170370
   9 H :    0.105899
  10 H :    0.107752
  11 H :    0.103612

  Mayer bond orders larger than 0.1
B(  6-C ,  7-O ) :   0.9904 B(  6-C ,  9-H ) :   0.9682 B(  6-C , 10-H ) :   0.9782
B(  6-C , 11-H ) :   0.9766 B(  7-O ,  8-H ) :   0.9023

Dispersion correction           -0.000266421
FINAL SINGLE POINT ENERGY      -115.732305995512

DIPOLE MOMENT
-------------
                                X             Y             Z
Electronic contribution:      0.00370      -1.24660       1.33270
Nuclear contribution   :      0.42647       1.79392      -1.45420
                        -----------------------------------------
Total Dipole Moment    :      0.43016       0.54732      -0.12150
                        -----------------------------------------
Magnitude (a.u.)       :      0.70666
Magnitude (Debye)      :      1.79618

Rotational constants in cm-1:     4.055926     0.798213     0.771373
Rotational constants in MHz : 121593.611186 23929.813781 23125.177138

                             ****ORCA TERMINATED NORMALLY****
TOTAL RUN TIME: 0 days 0 hours 1 minutes 48 seconds 347 msec
