                         Program Version 4.1.2  - RELEASE  -
|  1> #Run DFT-D3 single point of the dimer
|  2> ! wB97X-D3 def2-TZVP TIGHTSCF CHELPG PMODEL PAL8
|  3>
|  4> %base "5-82_DFT_AB"
|  5>
|  6> %scf
|  7> MaxIter 1000
|  8> end
|  9>
| 10> * xyz 0 1
| 11>   C                      -1.179900            -8.638037            -6.948018
| 12>   O                      -1.535437            -7.599694            -7.826611
| 13>   H                      -1.999492            -7.996814            -8.546439
| 14>   H                      -1.140443            -8.346784            -5.893805
| 15>   H                      -1.993029            -9.398908            -7.027883
| 16>   H                      -0.248926            -9.165004            -7.282007
| 17>   C                      -4.415804            -6.305064            -9.010949
| 18>   O                      -3.554945            -7.024887            -9.821782
| 19>   H                      -3.705395            -6.707970            -10.700897
| 20>   H                      -4.060751            -5.249625            -8.799378
| 21>   H                      -5.379806            -6.265267            -9.537826
| 22>   H                      -4.717809            -6.763836            -8.096143
| 23> *
| 24>
| 25> #Run DFT-D3 single point of the molecule with dimer basis set
| 26> $new_job
| 27> %base "5-82_DFT_A"
| 28> ! wB97X-D3 def2-TZVP TIGHTSCF CHELPG PMODEL
| 29>
| 30> %scf
| 31> MaxIter 1000
| 32> end
| 33>
| 34> * xyz 0 1
| 35>   C                      -1.179900            -8.638037            -6.948018
| 36>   O                      -1.535437            -7.599694            -7.826611
| 37>   H                      -1.999492            -7.996814            -8.546439
| 38>   H                      -1.140443            -8.346784            -5.893805
| 39>   H                      -1.993029            -9.398908            -7.027883
| 40>   H                      -0.248926            -9.165004            -7.282007
| 41>   C                    : -4.415804            -6.305064            -9.010949
| 42>   O                    : -3.554945            -7.024887            -9.821782
| 43>   H                    : -3.705395            -6.707970            -10.700897
| 44>   H                    : -4.060751            -5.249625            -8.799378
| 45>   H                    : -5.379806            -6.265267            -9.537826
| 46>   H                    : -4.717809            -6.763836            -8.096143
| 47> *
| 48>
| 49> #Run DFT-D3 single point of the particle with dimer basis set
| 50> $new_job
| 51> %base "5-82_DFT_B"
| 52> ! wB97X-D3 def2-TZVP TIGHTSCF CHELPG PMODEL
| 53>
| 54> %scf
| 55> MaxIter 1000
| 56> end
| 57>
| 58> * xyz 0 1
| 59>   C                    : -1.179900            -8.638037            -6.948018
| 60>   O                    : -1.535437            -7.599694            -7.826611
| 61>   H                    : -1.999492            -7.996814            -8.546439
| 62>   H                    : -1.140443            -8.346784            -5.893805
| 63>   H                    : -1.993029            -9.398908            -7.027883
| 64>   H                    : -0.248926            -9.165004            -7.282007
| 65>   C                      -4.415804            -6.305064            -9.010949
| 66>   O                      -3.554945            -7.024887            -9.821782
| 67>   H                      -3.705395            -6.707970            -10.700897
| 68>   H                      -4.060751            -5.249625            -8.799378
| 69>   H                      -5.379806            -6.265267            -9.537826
| 70>   H                      -4.717809            -6.763836            -8.096143
| 71> *
| 72>
| 73>                          ****END OF INPUT****
 Total Charge           Charge          ....    0
 Multiplicity           Mult            ....    1
 Number of Electrons    NEL             ....   36
Dispersion correction           -0.001624956
FINAL SINGLE POINT ENERGY      -231.468677217827
Dispersion correction           -0.000232871
FINAL SINGLE POINT ENERGY      -115.733081694543

CARTESIAN COORDINATES (ANGSTROEM)
---------------------------------
  C     -1.179900   -8.638037   -6.948018
  O     -1.535437   -7.599694   -7.826611
  H     -1.999492   -7.996814   -8.546439
  H     -1.140443   -8.346784   -5.893805
  H     -1.993029   -9.398908   -7.027883
  H     -0.248926   -9.165004   -7.282007
  C     -4.415804   -6.305064   -9.010949
  O     -3.554945   -7.024887   -9.821782
  H     -3.705395   -6.707970  -10.700897
  H     -4.060751   -5.249625   -8.799378
  H     -5.379806   -6.265267   -9.537826
  H     -4.717809   -6.763836   -8.096143

 Multiplicity           Mult            ....    1
 Number of Electrons    NEL             ....   18
 Basis Dimension        Dim             ....  172

ORBITAL ENERGIES
----------------

  NO   OCC          E(Eh)            E(eV)
   0   2.0000     -19.231382      -523.3125
   1   2.0000     -10.312741      -280.6240
   2   2.0000      -1.151487       -31.3336
   3   2.0000      -0.795036       -21.6340
   4   2.0000      -0.617122       -16.7927
   5   2.0000      -0.547431       -14.8964
   6   2.0000      -0.536995       -14.6124
   7   2.0000      -0.426881       -11.6160
   8   2.0000      -0.374237       -10.1835
   9   0.0000       0.097049         2.6408
  10   0.0000       0.118999         3.2381
  11   0.0000       0.153587         4.1793
  12   0.0000       0.192516         5.2386
  13   0.0000       0.197366         5.3706

MULLIKEN ATOMIC CHARGES
-----------------------
   0 C :    0.000913
   1 O :    0.000784
   2 H :   -0.009834
   3 H :   -0.000025
   4 H :   -0.000206
   5 H :   -0.000042
   6 C :   -0.165354
   7 O :   -0.451783
   8 H :    0.316069
   9 H :    0.092649
  10 H :    0.096944
  11 H :    0.119885
Sum of atomic charges:   -0.0000000

LOEWDIN ATOMIC CHARGES
----------------------
   0 C :   -0.000333
   1 O :   -0.005217
   2 H :   -0.020881
   3 H :   -0.000009
   4 H :   -0.000033
   5 H :   -0.000005
   6 C :   -0.411194
   7 O :   -0.028241
   8 H :    0.166645
   9 H :    0.099825
  10 H :    0.098516
  11 H :    0.100928

  Mayer bond orders larger than 0.1
B(  6-C ,  7-O ) :   0.9976 B(  6-C ,  9-H ) :   0.9711 B(  6-C , 10-H ) :   0.9863
B(  6-C , 11-H ) :   0.9726 B(  7-O ,  8-H ) :   0.8987

Dispersion correction           -0.000226227
FINAL SINGLE POINT ENERGY      -115.730480336422

DIPOLE MOMENT
-------------
                                X             Y             Z
Electronic contribution:      1.31404      -1.09550      -0.87750
Nuclear contribution   :     -1.77106       1.53489       0.61952
                        -----------------------------------------
Total Dipole Moment    :     -0.45702       0.43939      -0.25798
                        -----------------------------------------
Magnitude (a.u.)       :      0.68446
Magnitude (Debye)      :      1.73975

Rotational constants in cm-1:     4.347528     0.850195     0.832476
Rotational constants in MHz : 130335.614451 25488.217206 24956.990992

                             ****ORCA TERMINATED NORMALLY****
TOTAL RUN TIME: 0 days 0 hours 1 minutes 4 seconds 525 msec
