                         Program Version 4.1.2  - RELEASE  -
|  1> #Run DFT-D3 single point of the dimer
|  2> ! wB97X-D3 def2-TZVP TIGHTSCF CHELPG PMODEL PAL8
|  3>
|  4> %base "14-52_DFT_AB"
|  5>
|  6> %scf
|  7> MaxIter 1000
|  8> end
|  9>
| 10> * xyz 0 1
| 11>   C                      -3.823675            4.289136             -8.766144
| 12>   O                      -4.377185            5.267155             -9.559197
| 13>   H                      -4.576584            6.000657             -8.961619
| 14>   H                      -2.831440            4.544331             -8.466993
| 15>   H                      -4.245802            4.234392             -7.782589
| 16>   H                      -3.906820            3.308003             -9.284825
| 17>   C                      -5.012732            4.651737             -4.015420
| 18>   O                      -5.313746            6.068341             -3.824211
| 19>   H                      -5.792739            6.296180             -4.612807
| 20>   H                      -4.509524            4.441952             -4.946995
| 21>   H                      -4.294382            4.316787             -3.213413
| 22>   H                      -5.939629            4.108769             -3.953471
| 23> *
| 24>
| 25> #Run DFT-D3 single point of the molecule with dimer basis set
| 26> $new_job
| 27> %base "14-52_DFT_A"
| 28> ! wB97X-D3 def2-TZVP TIGHTSCF CHELPG PMODEL
| 29>
| 30> %scf
| 31> MaxIter 1000
| 32> end
| 33>
| 34> * xyz 0 1
| 35>   C                      -3.823675            4.289136             -8.766144
| 36>   O                      -4.377185            5.267155             -9.559197
| 37>   H                      -4.576584            6.000657             -8.961619
| 38>   H                      -2.831440            4.544331             -8.466993
| 39>   H                      -4.245802            4.234392             -7.782589
| 40>   H                      -3.906820            3.308003             -9.284825
| 41>   C                    : -5.012732            4.651737             -4.015420
| 42>   O                    : -5.313746            6.068341             -3.824211
| 43>   H                    : -5.792739            6.296180             -4.612807
| 44>   H                    : -4.509524            4.441952             -4.946995
| 45>   H                    : -4.294382            4.316787             -3.213413
| 46>   H                    : -5.939629            4.108769             -3.953471
| 47> *
| 48>
| 49> #Run DFT-D3 single point of the particle with dimer basis set
| 50> $new_job
| 51> %base "14-52_DFT_B"
| 52> ! wB97X-D3 def2-TZVP TIGHTSCF CHELPG PMODEL
| 53>
| 54> %scf
| 55> MaxIter 1000
| 56> end
| 57>
| 58> * xyz 0 1
| 59>   C                    : -3.823675            4.289136             -8.766144
| 60>   O                    : -4.377185            5.267155             -9.559197
| 61>   H                    : -4.576584            6.000657             -8.961619
| 62>   H                    : -2.831440            4.544331             -8.466993
| 63>   H                    : -4.245802            4.234392             -7.782589
| 64>   H                    : -3.906820            3.308003             -9.284825
| 65>   C                      -5.012732            4.651737             -4.015420
| 66>   O                      -5.313746            6.068341             -3.824211
| 67>   H                      -5.792739            6.296180             -4.612807
| 68>   H                      -4.509524            4.441952             -4.946995
| 69>   H                      -4.294382            4.316787             -3.213413
| 70>   H                      -5.939629            4.108769             -3.953471
| 71> *
| 72>
| 73>                          ****END OF INPUT****
 Total Charge           Charge          ....    0
 Multiplicity           Mult            ....    1
 Number of Electrons    NEL             ....   36
Dispersion correction           -0.000914412
FINAL SINGLE POINT ENERGY      -231.463703384893
Dispersion correction           -0.000209828
FINAL SINGLE POINT ENERGY      -115.730013720470

CARTESIAN COORDINATES (ANGSTROEM)
---------------------------------
  C     -3.823675    4.289136   -8.766144
  O     -4.377185    5.267155   -9.559197
  H     -4.576584    6.000657   -8.961619
  H     -2.831440    4.544331   -8.466993
  H     -4.245802    4.234392   -7.782589
  H     -3.906820    3.308003   -9.284825
  C     -5.012732    4.651737   -4.015420
  O     -5.313746    6.068341   -3.824211
  H     -5.792739    6.296180   -4.612807
  H     -4.509524    4.441952   -4.946995
  H     -4.294382    4.316787   -3.213413
  H     -5.939629    4.108769   -3.953471

 Multiplicity           Mult            ....    1
 Number of Electrons    NEL             ....   18
 Basis Dimension        Dim             ....  172

ORBITAL ENERGIES
----------------

  NO   OCC          E(Eh)            E(eV)
   0   2.0000     -19.229139      -523.2515
   1   2.0000     -10.316755      -280.7332
   2   2.0000      -1.126840       -30.6629
   3   2.0000      -0.795479       -21.6461
   4   2.0000      -0.601466       -16.3667
   5   2.0000      -0.546569       -14.8729
   6   2.0000      -0.514401       -13.9976
   7   2.0000      -0.440307       -11.9814
   8   2.0000      -0.376763       -10.2522
   9   0.0000       0.078198         2.1279
  10   0.0000       0.120705         3.2845
  11   0.0000       0.148659         4.0452
  12   0.0000       0.168059         4.5731
  13   0.0000       0.181335         4.9344

MULLIKEN ATOMIC CHARGES
-----------------------
   0 C :   -0.000723
   1 O :   -0.000001
   2 H :   -0.000010
   3 H :   -0.000022
   4 H :    0.001293
   5 H :    0.000044
   6 C :   -0.179735
   7 O :   -0.474207
   8 H :    0.309256
   9 H :    0.109056
  10 H :    0.121915
  11 H :    0.113135
Sum of atomic charges:    0.0000000

LOEWDIN ATOMIC CHARGES
----------------------
   0 C :   -0.000407
   1 O :   -0.000005
   2 H :   -0.000009
   3 H :   -0.000027
   4 H :   -0.001323
   5 H :   -0.000001
   6 C :   -0.353725
   7 O :   -0.106345
   8 H :    0.159058
   9 H :    0.092401
  10 H :    0.116654
  11 H :    0.093727

  Mayer bond orders larger than 0.1
B(  6-C ,  7-O ) :   0.9912 B(  6-C ,  9-H ) :   0.9712 B(  6-C , 10-H ) :   0.9725
B(  6-C , 11-H ) :   0.9796 B(  7-O ,  8-H ) :   0.9068

Dispersion correction           -0.000240838
FINAL SINGLE POINT ENERGY      -115.733685379315

DIPOLE MOMENT
-------------
                                X             Y             Z
Electronic contribution:     -0.33116       1.73541       0.32273
Nuclear contribution   :      0.16399      -2.18757      -0.90194
                        -----------------------------------------
Total Dipole Moment    :     -0.16717      -0.45217      -0.57921
                        -----------------------------------------
Magnitude (a.u.)       :      0.75358
Magnitude (Debye)      :      1.91546

Rotational constants in cm-1:     4.235314     0.795776     0.766998
Rotational constants in MHz : 126971.514534 23856.767306 22994.009781

                             ****ORCA TERMINATED NORMALLY****
TOTAL RUN TIME: 0 days 0 hours 1 minutes 1 seconds 634 msec
