                         Program Version 4.1.2  - RELEASE  -
|  1> #Run DFT-D3 single point of the dimer
|  2> ! wB97X-D3 def2-TZVP TIGHTSCF CHELPG PMODEL PAL8
|  3>
|  4> %base "5-115_DFT_AB"
|  5>
|  6> %scf
|  7> MaxIter 1000
|  8> end
|  9>
| 10> * xyz 0 1
| 11>   C                      -10.253278           2.281178             -10.866713
| 12>   O                      -10.765935           1.255526             -10.066762
| 13>   H                      -10.405657           0.438513             -10.208040
| 14>   H                      -10.864081           2.419809             -11.732097
| 15>   H                      -10.316140           3.216251             -10.352441
| 16>   H                      -9.188772            2.082964             -11.156149
| 17>   C                      -8.410225            -0.821002            -8.789456
| 18>   O                      -8.113368            -0.162009            -9.990376
| 19>   H                      -7.278055            0.309001             -9.897010
| 20>   H                      -8.741089            -0.008371            -8.039512
| 21>   H                      -9.202039            -1.532107            -8.940040
| 22>   H                      -7.582550            -1.437232            -8.412476
| 23> *
| 24>
| 25> #Run DFT-D3 single point of the molecule with dimer basis set
| 26> $new_job
| 27> %base "5-115_DFT_A"
| 28> ! wB97X-D3 def2-TZVP TIGHTSCF CHELPG PMODEL
| 29>
| 30> %scf
| 31> MaxIter 1000
| 32> end
| 33>
| 34> * xyz 0 1
| 35>   C                      -10.253278           2.281178             -10.866713
| 36>   O                      -10.765935           1.255526             -10.066762
| 37>   H                      -10.405657           0.438513             -10.208040
| 38>   H                      -10.864081           2.419809             -11.732097
| 39>   H                      -10.316140           3.216251             -10.352441
| 40>   H                      -9.188772            2.082964             -11.156149
| 41>   C                    : -8.410225            -0.821002            -8.789456
| 42>   O                    : -8.113368            -0.162009            -9.990376
| 43>   H                    : -7.278055            0.309001             -9.897010
| 44>   H                    : -8.741089            -0.008371            -8.039512
| 45>   H                    : -9.202039            -1.532107            -8.940040
| 46>   H                    : -7.582550            -1.437232            -8.412476
| 47> *
| 48>
| 49> #Run DFT-D3 single point of the particle with dimer basis set
| 50> $new_job
| 51> %base "5-115_DFT_B"
| 52> ! wB97X-D3 def2-TZVP TIGHTSCF CHELPG PMODEL
| 53>
| 54> %scf
| 55> MaxIter 1000
| 56> end
| 57>
| 58> * xyz 0 1
| 59>   C                    : -10.253278           2.281178             -10.866713
| 60>   O                    : -10.765935           1.255526             -10.066762
| 61>   H                    : -10.405657           0.438513             -10.208040
| 62>   H                    : -10.864081           2.419809             -11.732097
| 63>   H                    : -10.316140           3.216251             -10.352441
| 64>   H                    : -9.188772            2.082964             -11.156149
| 65>   C                      -8.410225            -0.821002            -8.789456
| 66>   O                      -8.113368            -0.162009            -9.990376
| 67>   H                      -7.278055            0.309001             -9.897010
| 68>   H                      -8.741089            -0.008371            -8.039512
| 69>   H                      -9.202039            -1.532107            -8.940040
| 70>   H                      -7.582550            -1.437232            -8.412476
| 71> *
| 72>
| 73>                          ****END OF INPUT****
 Total Charge           Charge          ....    0
 Multiplicity           Mult            ....    1
 Number of Electrons    NEL             ....   36
Dispersion correction           -0.002139951
FINAL SINGLE POINT ENERGY      -231.469688844246
Dispersion correction           -0.000242953
FINAL SINGLE POINT ENERGY      -115.731542418853

CARTESIAN COORDINATES (ANGSTROEM)
---------------------------------
  C    -10.253278    2.281178  -10.866713
  O    -10.765935    1.255526  -10.066762
  H    -10.405657    0.438513  -10.208040
  H    -10.864081    2.419809  -11.732097
  H    -10.316140    3.216251  -10.352441
  H     -9.188772    2.082964  -11.156149
  C     -8.410225   -0.821002   -8.789456
  O     -8.113368   -0.162009   -9.990376
  H     -7.278055    0.309001   -9.897010
  H     -8.741089   -0.008371   -8.039512
  H     -9.202039   -1.532107   -8.940040
  H     -7.582550   -1.437232   -8.412476

 Multiplicity           Mult            ....    1
 Number of Electrons    NEL             ....   18
 Basis Dimension        Dim             ....  172

ORBITAL ENERGIES
----------------

  NO   OCC          E(Eh)            E(eV)
   0   2.0000     -19.230146      -523.2789
   1   2.0000     -10.316876      -280.7365
   2   2.0000      -1.139082       -30.9960
   3   2.0000      -0.792848       -21.5745
   4   2.0000      -0.609325       -16.5806
   5   2.0000      -0.545464       -14.8428
   6   2.0000      -0.528387       -14.3782
   7   2.0000      -0.428975       -11.6730
   8   2.0000      -0.372040       -10.1237
   9   0.0000       0.096040         2.6134
  10   0.0000       0.128595         3.4993
  11   0.0000       0.149129         4.0580
  12   0.0000       0.185987         5.0610
  13   0.0000       0.190265         5.1774

MULLIKEN ATOMIC CHARGES
-----------------------
   0 C :    0.001399
   1 O :    0.000944
   2 H :   -0.000604
   3 H :   -0.000689
   4 H :   -0.000045
   5 H :   -0.007636
   6 C :   -0.170767
   7 O :   -0.470382
   8 H :    0.316651
   9 H :    0.099639
  10 H :    0.122415
  11 H :    0.109077
Sum of atomic charges:    0.0000000

LOEWDIN ATOMIC CHARGES
----------------------
   0 C :   -0.008443
   1 O :   -0.003603
   2 H :   -0.011133
   3 H :   -0.000121
   4 H :   -0.000088
   5 H :   -0.006616
   6 C :   -0.397572
   7 O :   -0.051413
   8 H :    0.171783
   9 H :    0.106650
  10 H :    0.104327
  11 H :    0.096230

  Mayer bond orders larger than 0.1
B(  6-C ,  7-O ) :   0.9904 B(  6-C ,  9-H ) :   0.9812 B(  6-C , 10-H ) :   0.9735
B(  6-C , 11-H ) :   0.9679 B(  7-O ,  8-H ) :   0.8951

Dispersion correction           -0.000240599
FINAL SINGLE POINT ENERGY      -115.733787668442

DIPOLE MOMENT
-------------
                                X             Y             Z
Electronic contribution:      0.29258       0.72185      -1.62755
Nuclear contribution   :      0.13214      -0.72559       2.13381
                        -----------------------------------------
Total Dipole Moment    :      0.42473      -0.00374       0.50626
                        -----------------------------------------
Magnitude (a.u.)       :      0.66084
Magnitude (Debye)      :      1.67972

Rotational constants in cm-1:     4.176733     0.834858     0.817438
Rotational constants in MHz : 125215.300559 25028.426209 24506.178322

                             ****ORCA TERMINATED NORMALLY****
TOTAL RUN TIME: 0 days 0 hours 1 minutes 4 seconds 241 msec
