                         Program Version 4.1.2  - RELEASE  -
|  1> #Run DFT-D3 single point of the dimer
|  2> ! wB97X-D3 def2-TZVP TIGHTSCF CHELPG PMODEL PAL8
|  3>
|  4> %base "5-75_DFT_AB"
|  5>
|  6> %scf
|  7> MaxIter 1000
|  8> end
|  9>
| 10> * xyz 0 1
| 11>   C                      -1.179900            -8.638037            -6.948018
| 12>   O                      -1.535437            -7.599694            -7.826611
| 13>   H                      -1.999492            -7.996814            -8.546439
| 14>   H                      -1.140443            -8.346784            -5.893805
| 15>   H                      -1.993029            -9.398908            -7.027883
| 16>   H                      -0.248926            -9.165004            -7.282007
| 17>   C                      -0.745910            -4.978390            -10.184007
| 18>   O                      -0.486956            -4.877424            -8.819097
| 19>   H                      -0.942398            -5.613371            -8.446573
| 20>   H                      -0.400305            -5.989052            -10.614495
| 21>   H                      -1.838380            -4.986133            -10.404108
| 22>   H                      -0.206231            -4.276731            -10.733806
| 23> *
| 24>
| 25> #Run DFT-D3 single point of the molecule with dimer basis set
| 26> $new_job
| 27> %base "5-75_DFT_A"
| 28> ! wB97X-D3 def2-TZVP TIGHTSCF CHELPG PMODEL
| 29>
| 30> %scf
| 31> MaxIter 1000
| 32> end
| 33>
| 34> * xyz 0 1
| 35>   C                      -1.179900            -8.638037            -6.948018
| 36>   O                      -1.535437            -7.599694            -7.826611
| 37>   H                      -1.999492            -7.996814            -8.546439
| 38>   H                      -1.140443            -8.346784            -5.893805
| 39>   H                      -1.993029            -9.398908            -7.027883
| 40>   H                      -0.248926            -9.165004            -7.282007
| 41>   C                    : -0.745910            -4.978390            -10.184007
| 42>   O                    : -0.486956            -4.877424            -8.819097
| 43>   H                    : -0.942398            -5.613371            -8.446573
| 44>   H                    : -0.400305            -5.989052            -10.614495
| 45>   H                    : -1.838380            -4.986133            -10.404108
| 46>   H                    : -0.206231            -4.276731            -10.733806
| 47> *
| 48>
| 49> #Run DFT-D3 single point of the particle with dimer basis set
| 50> $new_job
| 51> %base "5-75_DFT_B"
| 52> ! wB97X-D3 def2-TZVP TIGHTSCF CHELPG PMODEL
| 53>
| 54> %scf
| 55> MaxIter 1000
| 56> end
| 57>
| 58> * xyz 0 1
| 59>   C                    : -1.179900            -8.638037            -6.948018
| 60>   O                    : -1.535437            -7.599694            -7.826611
| 61>   H                    : -1.999492            -7.996814            -8.546439
| 62>   H                    : -1.140443            -8.346784            -5.893805
| 63>   H                    : -1.993029            -9.398908            -7.027883
| 64>   H                    : -0.248926            -9.165004            -7.282007
| 65>   C                      -0.745910            -4.978390            -10.184007
| 66>   O                      -0.486956            -4.877424            -8.819097
| 67>   H                      -0.942398            -5.613371            -8.446573
| 68>   H                      -0.400305            -5.989052            -10.614495
| 69>   H                      -1.838380            -4.986133            -10.404108
| 70>   H                      -0.206231            -4.276731            -10.733806
| 71> *
| 72>
| 73>                          ****END OF INPUT****
 Total Charge           Charge          ....    0
 Multiplicity           Mult            ....    1
 Number of Electrons    NEL             ....   36
Dispersion correction           -0.001551960
FINAL SINGLE POINT ENERGY      -231.471353668367
Dispersion correction           -0.000232871
FINAL SINGLE POINT ENERGY      -115.733018381382

CARTESIAN COORDINATES (ANGSTROEM)
---------------------------------
  C     -1.179900   -8.638037   -6.948018
  O     -1.535437   -7.599694   -7.826611
  H     -1.999492   -7.996814   -8.546439
  H     -1.140443   -8.346784   -5.893805
  H     -1.993029   -9.398908   -7.027883
  H     -0.248926   -9.165004   -7.282007
  C     -0.745910   -4.978390  -10.184007
  O     -0.486956   -4.877424   -8.819097
  H     -0.942398   -5.613371   -8.446573
  H     -0.400305   -5.989052  -10.614495
  H     -1.838380   -4.986133  -10.404108
  H     -0.206231   -4.276731  -10.733806

 Multiplicity           Mult            ....    1
 Number of Electrons    NEL             ....   18
 Basis Dimension        Dim             ....  172

ORBITAL ENERGIES
----------------

  NO   OCC          E(Eh)            E(eV)
   0   2.0000     -19.232753      -523.3498
   1   2.0000     -10.315250      -280.6922
   2   2.0000      -1.151324       -31.3291
   3   2.0000      -0.795108       -21.6360
   4   2.0000      -0.618375       -16.8269
   5   2.0000      -0.545639       -14.8476
   6   2.0000      -0.527959       -14.3665
   7   2.0000      -0.443260       -12.0617
   8   2.0000      -0.370155       -10.0724
   9   0.0000       0.070274         1.9122
  10   0.0000       0.123539         3.3617
  11   0.0000       0.153138         4.1671
  12   0.0000       0.174917         4.7597
  13   0.0000       0.187566         5.1039

MULLIKEN ATOMIC CHARGES
-----------------------
   0 C :   -0.001411
   1 O :   -0.002130
   2 H :   -0.000016
   3 H :    0.000103
   4 H :    0.000013
   5 H :    0.000052
   6 C :   -0.170973
   7 O :   -0.452569
   8 H :    0.312596
   9 H :    0.086057
  10 H :    0.100898
  11 H :    0.127379
Sum of atomic charges:   -0.0000000

LOEWDIN ATOMIC CHARGES
----------------------
   0 C :   -0.001102
   1 O :   -0.011070
   2 H :   -0.001014
   3 H :   -0.000028
   4 H :   -0.000034
   5 H :   -0.000030
   6 C :   -0.402551
   7 O :   -0.042635
   8 H :    0.165506
   9 H :    0.099941
  10 H :    0.098010
  11 H :    0.095006

  Mayer bond orders larger than 0.1
B(  6-C ,  7-O ) :   0.9988 B(  6-C ,  9-H ) :   0.9759 B(  6-C , 10-H ) :   0.9763
B(  6-C , 11-H ) :   0.9744 B(  7-O ,  8-H ) :   0.9113

Dispersion correction           -0.000223568
FINAL SINGLE POINT ENERGY      -115.731336378713

DIPOLE MOMENT
-------------
                                X             Y             Z
Electronic contribution:      0.44601       0.49078       1.83370
Nuclear contribution   :     -0.81418      -0.96853      -2.10724
                        -----------------------------------------
Total Dipole Moment    :     -0.36816      -0.47775      -0.27354
                        -----------------------------------------
Magnitude (a.u.)       :      0.66228
Magnitude (Debye)      :      1.68337

Rotational constants in cm-1:     4.270768     0.853041     0.819911
Rotational constants in MHz : 128034.406071 25573.517609 24580.312741

                             ****ORCA TERMINATED NORMALLY****
TOTAL RUN TIME: 0 days 0 hours 1 minutes 6 seconds 216 msec
