                         Program Version 4.1.2  - RELEASE  -
|  1> #Run DFT-D3 single point of the dimer
|  2> ! wB97X-D3 def2-TZVP TIGHTSCF CHELPG PMODEL PAL8
|  3>
|  4> %base "22-29_DFT_AB"
|  5>
|  6> %scf
|  7> MaxIter 1000
|  8> end
|  9>
| 10> * xyz 0 1
| 11>   C                      -7.103731            6.653923             -1.669574
| 12>   O                      -6.894566            5.210805             -1.789627
| 13>   H                      -7.334692            4.689197             -1.072243
| 14>   H                      -8.194465            6.918869             -1.815733
| 15>   H                      -6.801057            7.072376             -0.661411
| 16>   H                      -6.560077            7.160748             -2.438667
| 17>   C                      -6.210408            7.186349             -6.347533
| 18>   O                      -6.337280            8.254765             -7.246706
| 19>   H                      -6.561061            7.790520             -8.089679
| 20>   H                      -6.987174            6.395478             -6.449828
| 21>   H                      -5.291814            6.642553             -6.432559
| 22>   H                      -6.203094            7.509204             -5.298534
| 23> *
| 24>
| 25> #Run DFT-D3 single point of the molecule with dimer basis set
| 26> $new_job
| 27> %base "22-29_DFT_A"
| 28> ! wB97X-D3 def2-TZVP TIGHTSCF CHELPG PMODEL
| 29>
| 30> %scf
| 31> MaxIter 1000
| 32> end
| 33>
| 34> * xyz 0 1
| 35>   C                      -7.103731            6.653923             -1.669574
| 36>   O                      -6.894566            5.210805             -1.789627
| 37>   H                      -7.334692            4.689197             -1.072243
| 38>   H                      -8.194465            6.918869             -1.815733
| 39>   H                      -6.801057            7.072376             -0.661411
| 40>   H                      -6.560077            7.160748             -2.438667
| 41>   C                    : -6.210408            7.186349             -6.347533
| 42>   O                    : -6.337280            8.254765             -7.246706
| 43>   H                    : -6.561061            7.790520             -8.089679
| 44>   H                    : -6.987174            6.395478             -6.449828
| 45>   H                    : -5.291814            6.642553             -6.432559
| 46>   H                    : -6.203094            7.509204             -5.298534
| 47> *
| 48>
| 49> #Run DFT-D3 single point of the particle with dimer basis set
| 50> $new_job
| 51> %base "22-29_DFT_B"
| 52> ! wB97X-D3 def2-TZVP TIGHTSCF CHELPG PMODEL
| 53>
| 54> %scf
| 55> MaxIter 1000
| 56> end
| 57>
| 58> * xyz 0 1
| 59>   C                    : -7.103731            6.653923             -1.669574
| 60>   O                    : -6.894566            5.210805             -1.789627
| 61>   H                    : -7.334692            4.689197             -1.072243
| 62>   H                    : -8.194465            6.918869             -1.815733
| 63>   H                    : -6.801057            7.072376             -0.661411
| 64>   H                    : -6.560077            7.160748             -2.438667
| 65>   C                      -6.210408            7.186349             -6.347533
| 66>   O                      -6.337280            8.254765             -7.246706
| 67>   H                      -6.561061            7.790520             -8.089679
| 68>   H                      -6.987174            6.395478             -6.449828
| 69>   H                      -5.291814            6.642553             -6.432559
| 70>   H                      -6.203094            7.509204             -5.298534
| 71> *
| 72>
| 73>                          ****END OF INPUT****
 Total Charge           Charge          ....    0
 Multiplicity           Mult            ....    1
 Number of Electrons    NEL             ....   36
Dispersion correction           -0.000971796
FINAL SINGLE POINT ENERGY      -231.464813688511
Dispersion correction           -0.000295650
FINAL SINGLE POINT ENERGY      -115.731625370186

CARTESIAN COORDINATES (ANGSTROEM)
---------------------------------
  C     -7.103731    6.653923   -1.669574
  O     -6.894566    5.210805   -1.789627
  H     -7.334692    4.689197   -1.072243
  H     -8.194465    6.918869   -1.815733
  H     -6.801057    7.072376   -0.661411
  H     -6.560077    7.160748   -2.438667
  C     -6.210408    7.186349   -6.347533
  O     -6.337280    8.254765   -7.246706
  H     -6.561061    7.790520   -8.089679
  H     -6.987174    6.395478   -6.449828
  H     -5.291814    6.642553   -6.432559
  H     -6.203094    7.509204   -5.298534

 Multiplicity           Mult            ....    1
 Number of Electrons    NEL             ....   18
 Basis Dimension        Dim             ....  172

ORBITAL ENERGIES
----------------

  NO   OCC          E(Eh)            E(eV)
   0   2.0000     -19.238574      -523.5082
   1   2.0000     -10.311464      -280.5892
   2   2.0000      -1.140504       -31.0347
   3   2.0000      -0.793071       -21.5806
   4   2.0000      -0.612770       -16.6743
   5   2.0000      -0.537628       -14.6296
   6   2.0000      -0.529311       -14.4033
   7   2.0000      -0.440298       -11.9811
   8   2.0000      -0.373525       -10.1641
   9   0.0000       0.084762         2.3065
  10   0.0000       0.111212         3.0262
  11   0.0000       0.144092         3.9209
  12   0.0000       0.165097         4.4925
  13   0.0000       0.193189         5.2569

MULLIKEN ATOMIC CHARGES
-----------------------
   0 C :   -0.000063
   1 O :    0.000011
   2 H :    0.000000
   3 H :   -0.000013
   4 H :   -0.000005
   5 H :   -0.000316
   6 C :   -0.184137
   7 O :   -0.456886
   8 H :    0.319369
   9 H :    0.099550
  10 H :    0.101571
  11 H :    0.120919
Sum of atomic charges:   -0.0000000

LOEWDIN ATOMIC CHARGES
----------------------
   0 C :   -0.000507
   1 O :   -0.000005
   2 H :   -0.000000
   3 H :   -0.000015
   4 H :   -0.000002
   5 H :   -0.001231
   6 C :   -0.410083
   7 O :   -0.074478
   8 H :    0.192197
   9 H :    0.097036
  10 H :    0.088151
  11 H :    0.108938

  Mayer bond orders larger than 0.1
B(  6-C ,  7-O ) :   1.0144 B(  6-C ,  9-H ) :   0.9801 B(  6-C , 10-H ) :   0.9719
B(  6-C , 11-H ) :   0.9755 B(  7-O ,  8-H ) :   0.8954

Dispersion correction           -0.000238040
FINAL SINGLE POINT ENERGY      -115.732467300733

DIPOLE MOMENT
-------------
                                X             Y             Z
Electronic contribution:     -0.15065       1.64258      -1.13093
Nuclear contribution   :      0.07162      -2.32819       0.95651
                        -----------------------------------------
Total Dipole Moment    :     -0.07903      -0.68560      -0.17442
                        -----------------------------------------
Magnitude (a.u.)       :      0.71184
Magnitude (Debye)      :      1.80936

Rotational constants in cm-1:     4.340040     0.840685     0.799951
Rotational constants in MHz : 130111.130409 25203.113677 23981.939040

                             ****ORCA TERMINATED NORMALLY****
TOTAL RUN TIME: 0 days 0 hours 0 minutes 52 seconds 104 msec
