                         Program Version 4.1.2  - RELEASE  -
|  1> #Run DFT-D3 single point of the dimer
|  2> ! wB97X-D3 def2-TZVP TIGHTSCF CHELPG PMODEL PAL8
|  3>
|  4> %base "12-166_DFT_AB"
|  5>
|  6> %scf
|  7> MaxIter 1000
|  8> end
|  9>
| 10> * xyz 0 1
| 11>   C                      6.473592             9.706864             -10.771290
| 12>   O                      7.685691             9.380644             -11.309980
| 13>   H                      8.111181             8.755592             -10.815954
| 14>   H                      5.928419             10.423833            -11.402221
| 15>   H                      5.814521             8.813682             -10.683049
| 16>   H                      6.546990             10.228248            -9.831830
| 17>   C                      7.767444             4.566818             -9.133607
| 18>   O                      7.553531             5.905557             -8.779030
| 19>   H                      8.128435             6.432187             -9.348183
| 20>   H                      7.214960             4.367022             -10.062271
| 21>   H                      8.836594             4.365661             -9.249625
| 22>   H                      7.318369             3.888565             -8.383946
| 23> *
| 24>
| 25> #Run DFT-D3 single point of the molecule with dimer basis set
| 26> $new_job
| 27> %base "12-166_DFT_A"
| 28> ! wB97X-D3 def2-TZVP TIGHTSCF CHELPG PMODEL
| 29>
| 30> %scf
| 31> MaxIter 1000
| 32> end
| 33>
| 34> * xyz 0 1
| 35>   C                      6.473592             9.706864             -10.771290
| 36>   O                      7.685691             9.380644             -11.309980
| 37>   H                      8.111181             8.755592             -10.815954
| 38>   H                      5.928419             10.423833            -11.402221
| 39>   H                      5.814521             8.813682             -10.683049
| 40>   H                      6.546990             10.228248            -9.831830
| 41>   C                    : 7.767444             4.566818             -9.133607
| 42>   O                    : 7.553531             5.905557             -8.779030
| 43>   H                    : 8.128435             6.432187             -9.348183
| 44>   H                    : 7.214960             4.367022             -10.062271
| 45>   H                    : 8.836594             4.365661             -9.249625
| 46>   H                    : 7.318369             3.888565             -8.383946
| 47> *
| 48>
| 49> #Run DFT-D3 single point of the particle with dimer basis set
| 50> $new_job
| 51> %base "12-166_DFT_B"
| 52> ! wB97X-D3 def2-TZVP TIGHTSCF CHELPG PMODEL
| 53>
| 54> %scf
| 55> MaxIter 1000
| 56> end
| 57>
| 58> * xyz 0 1
| 59>   C                    : 6.473592             9.706864             -10.771290
| 60>   O                    : 7.685691             9.380644             -11.309980
| 61>   H                    : 8.111181             8.755592             -10.815954
| 62>   H                    : 5.928419             10.423833            -11.402221
| 63>   H                    : 5.814521             8.813682             -10.683049
| 64>   H                    : 6.546990             10.228248            -9.831830
| 65>   C                      7.767444             4.566818             -9.133607
| 66>   O                      7.553531             5.905557             -8.779030
| 67>   H                      8.128435             6.432187             -9.348183
| 68>   H                      7.214960             4.367022             -10.062271
| 69>   H                      8.836594             4.365661             -9.249625
| 70>   H                      7.318369             3.888565             -8.383946
| 71> *
| 72>
| 73>                          ****END OF INPUT****
 Total Charge           Charge          ....    0
 Multiplicity           Mult            ....    1
 Number of Electrons    NEL             ....   36
Dispersion correction           -0.001058613
FINAL SINGLE POINT ENERGY      -231.466560858134
Dispersion correction           -0.000228099
FINAL SINGLE POINT ENERGY      -115.731514833138

CARTESIAN COORDINATES (ANGSTROEM)
---------------------------------
  C      6.473592    9.706864  -10.771290
  O      7.685691    9.380644  -11.309980
  H      8.111181    8.755592  -10.815954
  H      5.928419   10.423833  -11.402221
  H      5.814521    8.813682  -10.683049
  H      6.546990   10.228248   -9.831830
  C      7.767444    4.566818   -9.133607
  O      7.553531    5.905557   -8.779030
  H      8.128435    6.432187   -9.348183
  H      7.214960    4.367022  -10.062271
  H      8.836594    4.365661   -9.249625
  H      7.318369    3.888565   -8.383946

 Multiplicity           Mult            ....    1
 Number of Electrons    NEL             ....   18
 Basis Dimension        Dim             ....  172

ORBITAL ENERGIES
----------------

  NO   OCC          E(Eh)            E(eV)
   0   2.0000     -19.229274      -523.2551
   1   2.0000     -10.313314      -280.6395
   2   2.0000      -1.139944       -31.0194
   3   2.0000      -0.791192       -21.5294
   4   2.0000      -0.610134       -16.6026
   5   2.0000      -0.546059       -14.8590
   6   2.0000      -0.528890       -14.3918
   7   2.0000      -0.433032       -11.7834
   8   2.0000      -0.370819       -10.0905
   9   0.0000       0.080292         2.1849
  10   0.0000       0.121612         3.3092
  11   0.0000       0.151416         4.1202
  12   0.0000       0.180902         4.9226
  13   0.0000       0.195185         5.3113

MULLIKEN ATOMIC CHARGES
-----------------------
   0 C :    0.000457
   1 O :    0.000174
   2 H :   -0.001066
   3 H :   -0.000098
   4 H :   -0.001610
   5 H :    0.000015
   6 C :   -0.163291
   7 O :   -0.469639
   8 H :    0.316509
   9 H :    0.099005
  10 H :    0.102678
  11 H :    0.116865
Sum of atomic charges:   -0.0000000

LOEWDIN ATOMIC CHARGES
----------------------
   0 C :   -0.000563
   1 O :   -0.000068
   2 H :   -0.001439
   3 H :   -0.000016
   4 H :   -0.000622
   5 H :   -0.000010
   6 C :   -0.397272
   7 O :   -0.073015
   8 H :    0.173495
   9 H :    0.094885
  10 H :    0.094484
  11 H :    0.110141

  Mayer bond orders larger than 0.1
B(  6-C ,  7-O ) :   1.0010 B(  6-C ,  9-H ) :   0.9778 B(  6-C , 10-H ) :   0.9814
B(  6-C , 11-H ) :   0.9714 B(  7-O ,  8-H ) :   0.8978

Dispersion correction           -0.000222928
FINAL SINGLE POINT ENERGY      -115.735674101315

DIPOLE MOMENT
-------------
                                X             Y             Z
Electronic contribution:     -0.30492       1.65748       0.59499
Nuclear contribution   :      0.75053      -1.85420      -1.07947
                        -----------------------------------------
Total Dipole Moment    :      0.44561      -0.19672      -0.48448
                        -----------------------------------------
Magnitude (a.u.)       :      0.68701
Magnitude (Debye)      :      1.74624

Rotational constants in cm-1:     4.195581     0.849365     0.816654
Rotational constants in MHz : 125780.359812 25463.316104 24482.675049

                             ****ORCA TERMINATED NORMALLY****
TOTAL RUN TIME: 0 days 0 hours 1 minutes 1 seconds 227 msec
