                         Program Version 4.1.2  - RELEASE  -
|  1> #Run DFT-D3 single point of the dimer
|  2> ! wB97X-D3 def2-TZVP TIGHTSCF CHELPG PMODEL PAL8
|  3>
|  4> %base "3-149_DFT_AB"
|  5>
|  6> %scf
|  7> MaxIter 1000
|  8> end
|  9>
| 10> * xyz 0 1
| 11>   C                      6.745725             9.675620             6.100346
| 12>   O                      6.065059             8.799649             5.211877
| 13>   H                      5.292187             9.106264             4.782544
| 14>   H                      7.817412             9.817642             5.772021
| 15>   H                      6.263485             10.669242            6.151953
| 16>   H                      6.794358             9.337570             7.126804
| 17>   C                      2.406520             9.917815             5.748108
| 18>   O                      3.557760             10.698385            5.931662
| 19>   H                      3.277306             11.573894            6.108458
| 20>   H                      2.720529             9.138909             5.119411
| 21>   H                      1.989477             9.508668             6.700628
| 22>   H                      1.706266             10.532903            5.307693
| 23> *
| 24>
| 25> #Run DFT-D3 single point of the molecule with dimer basis set
| 26> $new_job
| 27> %base "3-149_DFT_A"
| 28> ! wB97X-D3 def2-TZVP TIGHTSCF CHELPG PMODEL
| 29>
| 30> %scf
| 31> MaxIter 1000
| 32> end
| 33>
| 34> * xyz 0 1
| 35>   C                      6.745725             9.675620             6.100346
| 36>   O                      6.065059             8.799649             5.211877
| 37>   H                      5.292187             9.106264             4.782544
| 38>   H                      7.817412             9.817642             5.772021
| 39>   H                      6.263485             10.669242            6.151953
| 40>   H                      6.794358             9.337570             7.126804
| 41>   C                    : 2.406520             9.917815             5.748108
| 42>   O                    : 3.557760             10.698385            5.931662
| 43>   H                    : 3.277306             11.573894            6.108458
| 44>   H                    : 2.720529             9.138909             5.119411
| 45>   H                    : 1.989477             9.508668             6.700628
| 46>   H                    : 1.706266             10.532903            5.307693
| 47> *
| 48>
| 49> #Run DFT-D3 single point of the particle with dimer basis set
| 50> $new_job
| 51> %base "3-149_DFT_B"
| 52> ! wB97X-D3 def2-TZVP TIGHTSCF CHELPG PMODEL
| 53>
| 54> %scf
| 55> MaxIter 1000
| 56> end
| 57>
| 58> * xyz 0 1
| 59>   C                    : 6.745725             9.675620             6.100346
| 60>   O                    : 6.065059             8.799649             5.211877
| 61>   H                    : 5.292187             9.106264             4.782544
| 62>   H                    : 7.817412             9.817642             5.772021
| 63>   H                    : 6.263485             10.669242            6.151953
| 64>   H                    : 6.794358             9.337570             7.126804
| 65>   C                      2.406520             9.917815             5.748108
| 66>   O                      3.557760             10.698385            5.931662
| 67>   H                      3.277306             11.573894            6.108458
| 68>   H                      2.720529             9.138909             5.119411
| 69>   H                      1.989477             9.508668             6.700628
| 70>   H                      1.706266             10.532903            5.307693
| 71> *
| 72>
| 73>                          ****END OF INPUT****
 Total Charge           Charge          ....    0
 Multiplicity           Mult            ....    1
 Number of Electrons    NEL             ....   36
Dispersion correction           -0.001938096
FINAL SINGLE POINT ENERGY      -231.465476012103
Dispersion correction           -0.000278855
FINAL SINGLE POINT ENERGY      -115.731466892003

CARTESIAN COORDINATES (ANGSTROEM)
---------------------------------
  C      6.745725    9.675620    6.100346
  O      6.065059    8.799649    5.211877
  H      5.292187    9.106264    4.782544
  H      7.817412    9.817642    5.772021
  H      6.263485   10.669242    6.151953
  H      6.794358    9.337570    7.126804
  C      2.406520    9.917815    5.748108
  O      3.557760   10.698385    5.931662
  H      3.277306   11.573894    6.108458
  H      2.720529    9.138909    5.119411
  H      1.989477    9.508668    6.700628
  H      1.706266   10.532903    5.307693

 Multiplicity           Mult            ....    1
 Number of Electrons    NEL             ....   18
 Basis Dimension        Dim             ....  172

ORBITAL ENERGIES
----------------

  NO   OCC          E(Eh)            E(eV)
   0   2.0000     -19.224199      -523.1170
   1   2.0000     -10.302558      -280.3468
   2   2.0000      -1.144274       -31.1373
   3   2.0000      -0.801775       -21.8174
   4   2.0000      -0.620132       -16.8747
   5   2.0000      -0.544378       -14.8133
   6   2.0000      -0.533689       -14.5224
   7   2.0000      -0.438600       -11.9349
   8   2.0000      -0.371764       -10.1162
   9   0.0000       0.101304         2.7566
  10   0.0000       0.126996         3.4557
  11   0.0000       0.157406         4.2832
  12   0.0000       0.178109         4.8466
  13   0.0000       0.204140         5.5549

MULLIKEN ATOMIC CHARGES
-----------------------
   0 C :    0.004879
   1 O :    0.000192
   2 H :   -0.004189
   3 H :   -0.000351
   4 H :   -0.007568
   5 H :   -0.000992
   6 C :   -0.144497
   7 O :   -0.463742
   8 H :    0.304091
   9 H :    0.121204
  10 H :    0.088472
  11 H :    0.102501
Sum of atomic charges:    0.0000000

LOEWDIN ATOMIC CHARGES
----------------------
   0 C :   -0.008959
   1 O :   -0.001212
   2 H :   -0.005833
   3 H :   -0.000081
   4 H :   -0.006949
   5 H :   -0.000320
   6 C :   -0.370456
   7 O :   -0.041450
   8 H :    0.152075
   9 H :    0.100361
  10 H :    0.098627
  11 H :    0.084196

  Mayer bond orders larger than 0.1
B(  6-C ,  7-O ) :   0.9980 B(  6-C ,  9-H ) :   0.9809 B(  6-C , 10-H ) :   0.9705
B(  6-C , 11-H ) :   0.9884 B(  7-O ,  8-H ) :   0.9082

Dispersion correction           -0.000212231
FINAL SINGLE POINT ENERGY      -115.730387471057

DIPOLE MOMENT
-------------
                                X             Y             Z
Electronic contribution:      1.44246       0.84256       0.15261
Nuclear contribution   :     -2.09332      -0.56905      -0.14278
                        -----------------------------------------
Total Dipole Moment    :     -0.65086       0.27351       0.00983
                        -----------------------------------------
Magnitude (a.u.)       :      0.70606
Magnitude (Debye)      :      1.79466

Rotational constants in cm-1:     4.413304     0.860193     0.830912
Rotational constants in MHz : 132307.526537 25787.941244 24910.124863

                             ****ORCA TERMINATED NORMALLY****
TOTAL RUN TIME: 0 days 0 hours 6 minutes 21 seconds 815 msec
