                         Program Version 4.1.2  - RELEASE  -
|  1> #Run DFT-D3 single point of the dimer
|  2> ! wB97X-D3 def2-TZVP TIGHTSCF CHELPG PMODEL PAL8
|  3>
|  4> %base "6-42_DFT_AB"
|  5>
|  6> %scf
|  7> MaxIter 1000
|  8> end
|  9>
| 10> * xyz 0 1
| 11>   C                      -8.806139            -3.804200            -0.537785
| 12>   O                      -9.024071            -2.496550            -1.017201
| 13>   H                      -9.353899            -2.559543            -1.944128
| 14>   H                      -8.922862            -3.712289            0.568426
| 15>   H                      -9.480058            -4.616308            -0.979368
| 16>   H                      -7.833328            -4.174835            -0.732438
| 17>   C                      -6.590371            -0.072175            -1.940037
| 18>   O                      -6.198080            -1.457201            -1.579831
| 19>   H                      -6.945661            -1.931880            -1.209183
| 20>   H                      -7.280276            0.009702             -2.818355
| 21>   H                      -7.229663            0.384875             -1.154831
| 22>   H                      -5.676101            0.555513             -2.157689
| 23> *
| 24>
| 25> #Run DFT-D3 single point of the molecule with dimer basis set
| 26> $new_job
| 27> %base "6-42_DFT_A"
| 28> ! wB97X-D3 def2-TZVP TIGHTSCF CHELPG PMODEL
| 29>
| 30> %scf
| 31> MaxIter 1000
| 32> end
| 33>
| 34> * xyz 0 1
| 35>   C                      -8.806139            -3.804200            -0.537785
| 36>   O                      -9.024071            -2.496550            -1.017201
| 37>   H                      -9.353899            -2.559543            -1.944128
| 38>   H                      -8.922862            -3.712289            0.568426
| 39>   H                      -9.480058            -4.616308            -0.979368
| 40>   H                      -7.833328            -4.174835            -0.732438
| 41>   C                    : -6.590371            -0.072175            -1.940037
| 42>   O                    : -6.198080            -1.457201            -1.579831
| 43>   H                    : -6.945661            -1.931880            -1.209183
| 44>   H                    : -7.280276            0.009702             -2.818355
| 45>   H                    : -7.229663            0.384875             -1.154831
| 46>   H                    : -5.676101            0.555513             -2.157689
| 47> *
| 48>
| 49> #Run DFT-D3 single point of the particle with dimer basis set
| 50> $new_job
| 51> %base "6-42_DFT_B"
| 52> ! wB97X-D3 def2-TZVP TIGHTSCF CHELPG PMODEL
| 53>
| 54> %scf
| 55> MaxIter 1000
| 56> end
| 57>
| 58> * xyz 0 1
| 59>   C                    : -8.806139            -3.804200            -0.537785
| 60>   O                    : -9.024071            -2.496550            -1.017201
| 61>   H                    : -9.353899            -2.559543            -1.944128
| 62>   H                    : -8.922862            -3.712289            0.568426
| 63>   H                    : -9.480058            -4.616308            -0.979368
| 64>   H                    : -7.833328            -4.174835            -0.732438
| 65>   C                      -6.590371            -0.072175            -1.940037
| 66>   O                      -6.198080            -1.457201            -1.579831
| 67>   H                      -6.945661            -1.931880            -1.209183
| 68>   H                      -7.280276            0.009702             -2.818355
| 69>   H                      -7.229663            0.384875             -1.154831
| 70>   H                      -5.676101            0.555513             -2.157689
| 71> *
| 72>
| 73>                          ****END OF INPUT****
 Total Charge           Charge          ....    0
 Multiplicity           Mult            ....    1
 Number of Electrons    NEL             ....   36
Dispersion correction           -0.001908792
FINAL SINGLE POINT ENERGY      -231.468390225231
Dispersion correction           -0.000258192
FINAL SINGLE POINT ENERGY      -115.732054674989

CARTESIAN COORDINATES (ANGSTROEM)
---------------------------------
  C     -8.806139   -3.804200   -0.537785
  O     -9.024071   -2.496550   -1.017201
  H     -9.353899   -2.559543   -1.944128
  H     -8.922862   -3.712289    0.568426
  H     -9.480058   -4.616308   -0.979368
  H     -7.833328   -4.174835   -0.732438
  C     -6.590371   -0.072175   -1.940037
  O     -6.198080   -1.457201   -1.579831
  H     -6.945661   -1.931880   -1.209183
  H     -7.280276    0.009702   -2.818355
  H     -7.229663    0.384875   -1.154831
  H     -5.676101    0.555513   -2.157689

 Multiplicity           Mult            ....    1
 Number of Electrons    NEL             ....   18
 Basis Dimension        Dim             ....  172

ORBITAL ENERGIES
----------------

  NO   OCC          E(Eh)            E(eV)
   0   2.0000     -19.232735      -523.3493
   1   2.0000     -10.329215      -281.0722
   2   2.0000      -1.116474       -30.3808
   3   2.0000      -0.794677       -21.6243
   4   2.0000      -0.603905       -16.4331
   5   2.0000      -0.522632       -14.2215
   6   2.0000      -0.517525       -14.0826
   7   2.0000      -0.439824       -11.9682
   8   2.0000      -0.374316       -10.1857
   9   0.0000       0.070311         1.9133
  10   0.0000       0.127294         3.4639
  11   0.0000       0.146777         3.9940
  12   0.0000       0.166754         4.5376
  13   0.0000       0.189568         5.1584

MULLIKEN ATOMIC CHARGES
-----------------------
   0 C :   -0.001606
   1 O :   -0.003361
   2 H :   -0.000507
   3 H :    0.000192
   4 H :    0.000115
   5 H :   -0.000550
   6 C :   -0.187519
   7 O :   -0.482177
   8 H :    0.315393
   9 H :    0.109648
  10 H :    0.114962
  11 H :    0.135408
Sum of atomic charges:    0.0000000

LOEWDIN ATOMIC CHARGES
----------------------
   0 C :   -0.006213
   1 O :   -0.010645
   2 H :   -0.001454
   3 H :   -0.000131
   4 H :   -0.000072
   5 H :   -0.001419
   6 C :   -0.350131
   7 O :   -0.114527
   8 H :    0.167545
   9 H :    0.099302
  10 H :    0.099702
  11 H :    0.118043

  Mayer bond orders larger than 0.1
B(  6-C ,  7-O ) :   0.9846 B(  6-C ,  9-H ) :   0.9658 B(  6-C , 10-H ) :   0.9746
B(  6-C , 11-H ) :   0.9712 B(  7-O ,  8-H ) :   0.9053

Dispersion correction           -0.000299897
FINAL SINGLE POINT ENERGY      -115.729677650865

DIPOLE MOMENT
-------------
                                X             Y             Z
Electronic contribution:      0.71300      -1.71172       0.41190
Nuclear contribution   :     -1.36347       2.01688      -0.32795
                        -----------------------------------------
Total Dipole Moment    :     -0.65047       0.30516       0.08395
                        -----------------------------------------
Magnitude (a.u.)       :      0.72338
Magnitude (Debye)      :      1.83869

Rotational constants in cm-1:     4.222072     0.759349     0.724406
Rotational constants in MHz : 126574.538906 22764.699044 21717.136673

                             ****ORCA TERMINATED NORMALLY****
TOTAL RUN TIME: 0 days 0 hours 1 minutes 0 seconds 830 msec
