                         Program Version 4.1.2  - RELEASE  -
|  1> #Run DFT-D3 single point of the dimer
|  2> ! wB97X-D3 def2-TZVP TIGHTSCF CHELPG PMODEL PAL8
|  3>
|  4> %base "5-21_DFT_AB"
|  5>
|  6> %scf
|  7> MaxIter 1000
|  8> end
|  9>
| 10> * xyz 0 1
| 11>   C                      2.739132             -3.942480            -1.008213
| 12>   O                      1.753076             -3.898102            -0.067553
| 13>   H                      2.322324             -4.076974            0.640020
| 14>   H                      3.466281             -4.735064            -0.636827
| 15>   H                      2.402265             -4.144417            -2.020121
| 16>   H                      3.256188             -3.012980            -0.955926
| 17>   C                      2.972572             -0.901774            1.372664
| 18>   O                      3.715877             -0.053173            0.503747
| 19>   H                      4.643713             -0.350892            0.272494
| 20>   H                      2.042537             -0.463022            1.683760
| 21>   H                      2.718830             -1.816522            0.938662
| 22>   H                      3.540776             -1.169969            2.319029
| 23> *
| 24>
| 25> #Run DFT-D3 single point of the molecule with dimer basis set
| 26> $new_job
| 27> %base "5-21_DFT_A"
| 28> ! wB97X-D3 def2-TZVP TIGHTSCF CHELPG PMODEL
| 29>
| 30> %scf
| 31> MaxIter 1000
| 32> end
| 33>
| 34> * xyz 0 1
| 35>   C                      2.739132             -3.942480            -1.008213
| 36>   O                      1.753076             -3.898102            -0.067553
| 37>   H                      2.322324             -4.076974            0.640020
| 38>   H                      3.466281             -4.735064            -0.636827
| 39>   H                      2.402265             -4.144417            -2.020121
| 40>   H                      3.256188             -3.012980            -0.955926
| 41>   C                    : 2.972572             -0.901774            1.372664
| 42>   O                    : 3.715877             -0.053173            0.503747
| 43>   H                    : 4.643713             -0.350892            0.272494
| 44>   H                    : 2.042537             -0.463022            1.683760
| 45>   H                    : 2.718830             -1.816522            0.938662
| 46>   H                    : 3.540776             -1.169969            2.319029
| 47> *
| 48>
| 49> #Run DFT-D3 single point of the particle with dimer basis set
| 50> $new_job
| 51> %base "5-21_DFT_B"
| 52> ! wB97X-D3 def2-TZVP TIGHTSCF CHELPG PMODEL
| 53>
| 54> %scf
| 55> MaxIter 1000
| 56> end
| 57>
| 58> * xyz 0 1
| 59>   C                    : 2.739132             -3.942480            -1.008213
| 60>   O                    : 1.753076             -3.898102            -0.067553
| 61>   H                    : 2.322324             -4.076974            0.640020
| 62>   H                    : 3.466281             -4.735064            -0.636827
| 63>   H                    : 2.402265             -4.144417            -2.020121
| 64>   H                    : 3.256188             -3.012980            -0.955926
| 65>   C                      2.972572             -0.901774            1.372664
| 66>   O                      3.715877             -0.053173            0.503747
| 67>   H                      4.643713             -0.350892            0.272494
| 68>   H                      2.042537             -0.463022            1.683760
| 69>   H                      2.718830             -1.816522            0.938662
| 70>   H                      3.540776             -1.169969            2.319029
| 71> *
| 72>
| 73>                          ****END OF INPUT****
 Total Charge           Charge          ....    0
 Multiplicity           Mult            ....    1
 Number of Electrons    NEL             ....   36
Dispersion correction           -0.001801139
FINAL SINGLE POINT ENERGY      -231.450351650725
Dispersion correction           -0.000170215
FINAL SINGLE POINT ENERGY      -115.720384836542

CARTESIAN COORDINATES (ANGSTROEM)
---------------------------------
  C      2.739132   -3.942480   -1.008213
  O      1.753076   -3.898102   -0.067553
  H      2.322324   -4.076974    0.640020
  H      3.466281   -4.735064   -0.636827
  H      2.402265   -4.144417   -2.020121
  H      3.256188   -3.012980   -0.955926
  C      2.972572   -0.901774    1.372664
  O      3.715877   -0.053173    0.503747
  H      4.643713   -0.350892    0.272494
  H      2.042537   -0.463022    1.683760
  H      2.718830   -1.816522    0.938662
  H      3.540776   -1.169969    2.319029

 Multiplicity           Mult            ....    1
 Number of Electrons    NEL             ....   18
 Basis Dimension        Dim             ....  172

ORBITAL ENERGIES
----------------

  NO   OCC          E(Eh)            E(eV)
   0   2.0000     -19.232093      -523.3319
   1   2.0000     -10.311152      -280.5807
   2   2.0000      -1.120475       -30.4897
   3   2.0000      -0.800172       -21.7738
   4   2.0000      -0.608179       -16.5494
   5   2.0000      -0.535472       -14.5709
   6   2.0000      -0.530302       -14.4303
   7   2.0000      -0.423711       -11.5298
   8   2.0000      -0.372083       -10.1249
   9   0.0000       0.085462         2.3255
  10   0.0000       0.116547         3.1714
  11   0.0000       0.147747         4.0204
  12   0.0000       0.180635         4.9153
  13   0.0000       0.191201         5.2028

MULLIKEN ATOMIC CHARGES
-----------------------
   0 C :   -0.001937
   1 O :    0.002117
   2 H :   -0.001030
   3 H :    0.000068
   4 H :    0.000151
   5 H :    0.001212
   6 C :   -0.133664
   7 O :   -0.497909
   8 H :    0.325017
   9 H :    0.121515
  10 H :    0.086783
  11 H :    0.097677
Sum of atomic charges:   -0.0000000

LOEWDIN ATOMIC CHARGES
----------------------
   0 C :   -0.005845
   1 O :   -0.005061
   2 H :   -0.004349
   3 H :   -0.000072
   4 H :   -0.000060
   5 H :   -0.003330
   6 C :   -0.368282
   7 O :   -0.102335
   8 H :    0.191279
   9 H :    0.106303
  10 H :    0.088837
  11 H :    0.102916

  Mayer bond orders larger than 0.1
B(  6-C ,  7-O ) :   0.9965 B(  6-C ,  9-H ) :   0.9724 B(  6-C , 10-H ) :   0.9738
B(  6-C , 11-H ) :   0.9859 B(  7-O ,  8-H ) :   0.8820

Dispersion correction           -0.000276552
FINAL SINGLE POINT ENERGY      -115.729532789149

DIPOLE MOMENT
-------------
                                X             Y             Z
Electronic contribution:      0.78902       1.19230      -1.19416
Nuclear contribution   :     -0.52208      -1.74225       1.39491
                        -----------------------------------------
Total Dipole Moment    :      0.26694      -0.54995       0.20076
                        -----------------------------------------
Magnitude (a.u.)       :      0.64343
Magnitude (Debye)      :      1.63547

Rotational constants in cm-1:     4.498391     0.803901     0.774598
Rotational constants in MHz : 134858.363932 24100.339232 23221.876660

                             ****ORCA TERMINATED NORMALLY****
TOTAL RUN TIME: 0 days 0 hours 0 minutes 59 seconds 680 msec
