                         Program Version 4.1.2  - RELEASE  -
|  1> #Run DFT-D3 single point of the dimer
|  2> ! wB97X-D3 def2-TZVP TIGHTSCF CHELPG PMODEL PAL8
|  3>
|  4> %base "19-83_DFT_AB"
|  5>
|  6> %scf
|  7> MaxIter 1000
|  8> end
|  9>
| 10> * xyz 0 1
| 11>   C                      1.790265             3.458561             8.299905
| 12>   O                      0.760315             4.348827             7.951540
| 13>   H                      0.700689             4.320397             6.985783
| 14>   H                      2.747720             4.048782             8.453165
| 15>   H                      1.540345             2.807398             9.173545
| 16>   H                      2.017215             2.823354             7.489023
| 17>   C                      4.567546             1.242836             10.526428
| 18>   O                      3.386832             0.683215             9.917052
| 19>   H                      3.100955             0.137603             10.657604
| 20>   H                      4.363813             2.056819             11.236520
| 21>   H                      5.113520             0.500162             11.119708
| 22>   H                      5.121533             1.744111             9.754575
| 23> *
| 24>
| 25> #Run DFT-D3 single point of the molecule with dimer basis set
| 26> $new_job
| 27> %base "19-83_DFT_A"
| 28> ! wB97X-D3 def2-TZVP TIGHTSCF CHELPG PMODEL
| 29>
| 30> %scf
| 31> MaxIter 1000
| 32> end
| 33>
| 34> * xyz 0 1
| 35>   C                      1.790265             3.458561             8.299905
| 36>   O                      0.760315             4.348827             7.951540
| 37>   H                      0.700689             4.320397             6.985783
| 38>   H                      2.747720             4.048782             8.453165
| 39>   H                      1.540345             2.807398             9.173545
| 40>   H                      2.017215             2.823354             7.489023
| 41>   C                    : 4.567546             1.242836             10.526428
| 42>   O                    : 3.386832             0.683215             9.917052
| 43>   H                    : 3.100955             0.137603             10.657604
| 44>   H                    : 4.363813             2.056819             11.236520
| 45>   H                    : 5.113520             0.500162             11.119708
| 46>   H                    : 5.121533             1.744111             9.754575
| 47> *
| 48>
| 49> #Run DFT-D3 single point of the particle with dimer basis set
| 50> $new_job
| 51> %base "19-83_DFT_B"
| 52> ! wB97X-D3 def2-TZVP TIGHTSCF CHELPG PMODEL
| 53>
| 54> %scf
| 55> MaxIter 1000
| 56> end
| 57>
| 58> * xyz 0 1
| 59>   C                    : 1.790265             3.458561             8.299905
| 60>   O                    : 0.760315             4.348827             7.951540
| 61>   H                    : 0.700689             4.320397             6.985783
| 62>   H                    : 2.747720             4.048782             8.453165
| 63>   H                    : 1.540345             2.807398             9.173545
| 64>   H                    : 2.017215             2.823354             7.489023
| 65>   C                      4.567546             1.242836             10.526428
| 66>   O                      3.386832             0.683215             9.917052
| 67>   H                      3.100955             0.137603             10.657604
| 68>   H                      4.363813             2.056819             11.236520
| 69>   H                      5.113520             0.500162             11.119708
| 70>   H                      5.121533             1.744111             9.754575
| 71> *
| 72>
| 73>                          ****END OF INPUT****
 Total Charge           Charge          ....    0
 Multiplicity           Mult            ....    1
 Number of Electrons    NEL             ....   36
Dispersion correction           -0.001480153
FINAL SINGLE POINT ENERGY      -231.464752184851
Dispersion correction           -0.000237640
FINAL SINGLE POINT ENERGY      -115.731514516205

CARTESIAN COORDINATES (ANGSTROEM)
---------------------------------
  C      1.790265    3.458561    8.299905
  O      0.760315    4.348827    7.951540
  H      0.700689    4.320397    6.985783
  H      2.747720    4.048782    8.453165
  H      1.540345    2.807398    9.173545
  H      2.017215    2.823354    7.489023
  C      4.567546    1.242836   10.526428
  O      3.386832    0.683215    9.917052
  H      3.100955    0.137603   10.657604
  H      4.363813    2.056819   11.236520
  H      5.113520    0.500162   11.119708
  H      5.121533    1.744111    9.754575

 Multiplicity           Mult            ....    1
 Number of Electrons    NEL             ....   18
 Basis Dimension        Dim             ....  172

ORBITAL ENERGIES
----------------

  NO   OCC          E(Eh)            E(eV)
   0   2.0000     -19.235354      -523.4206
   1   2.0000     -10.314555      -280.6733
   2   2.0000      -1.135370       -30.8950
   3   2.0000      -0.794934       -21.6312
   4   2.0000      -0.610529       -16.6133
   5   2.0000      -0.536452       -14.5976
   6   2.0000      -0.518522       -14.1097
   7   2.0000      -0.454839       -12.3768
   8   2.0000      -0.373803       -10.1717
   9   0.0000       0.092717         2.5229
  10   0.0000       0.118540         3.2256
  11   0.0000       0.151004         4.1090
  12   0.0000       0.177228         4.8226
  13   0.0000       0.191085         5.1997

MULLIKEN ATOMIC CHARGES
-----------------------
   0 C :    0.006003
   1 O :   -0.000057
   2 H :   -0.000005
   3 H :   -0.000743
   4 H :   -0.008285
   5 H :   -0.001825
   6 C :   -0.191627
   7 O :   -0.454277
   8 H :    0.310237
   9 H :    0.103773
  10 H :    0.111593
  11 H :    0.125214
Sum of atomic charges:   -0.0000000

LOEWDIN ATOMIC CHARGES
----------------------
   0 C :   -0.004617
   1 O :   -0.000026
   2 H :   -0.000007
   3 H :   -0.000154
   4 H :   -0.005599
   5 H :   -0.000562
   6 C :   -0.375286
   7 O :   -0.085009
   8 H :    0.172844
   9 H :    0.095401
  10 H :    0.097922
  11 H :    0.105094

  Mayer bond orders larger than 0.1
B(  6-C ,  7-O ) :   0.9968 B(  6-C ,  9-H ) :   0.9690 B(  6-C , 10-H ) :   0.9746
B(  6-C , 11-H ) :   0.9793 B(  7-O ,  8-H ) :   0.9065

Dispersion correction           -0.000230818
FINAL SINGLE POINT ENERGY      -115.731261641223

DIPOLE MOMENT
-------------
                                X             Y             Z
Electronic contribution:     -1.43672      -0.71691      -0.98991
Nuclear contribution   :      1.73615       0.60787       1.68050
                        -----------------------------------------
Total Dipole Moment    :      0.29943      -0.10904       0.69059
                        -----------------------------------------
Magnitude (a.u.)       :      0.76057
Magnitude (Debye)      :      1.93322

Rotational constants in cm-1:     4.247274     0.821919     0.779330
Rotational constants in MHz : 127330.070123 24640.497100 23363.729889

                             ****ORCA TERMINATED NORMALLY****
TOTAL RUN TIME: 0 days 0 hours 0 minutes 52 seconds 174 msec
