                         Program Version 4.1.2  - RELEASE  -
|  1> #Run DFT-D3 single point of the dimer
|  2> ! wB97X-D3 def2-TZVP TIGHTSCF CHELPG PMODEL PAL8
|  3>
|  4> %base "20-211_DFT_AB"
|  5>
|  6> %scf
|  7> MaxIter 1000
|  8> end
|  9>
| 10> * xyz 0 1
| 11>   C                      1.531525             0.033829             -4.259971
| 12>   O                      2.307821             0.669970             -3.214208
| 13>   H                      1.640530             1.240165             -2.764406
| 14>   H                      1.314484             0.738078             -5.066417
| 15>   H                      2.103369             -0.772283            -4.715026
| 16>   H                      0.554897             -0.284237            -3.949074
| 17>   C                      5.414360             2.312318             -2.568402
| 18>   O                      4.625519             1.914450             -1.504518
| 19>   H                      3.851987             1.466490             -1.876465
| 20>   H                      4.913684             2.890442             -3.305051
| 21>   H                      6.162484             2.892581             -2.213522
| 22>   H                      5.852648             1.497806             -3.120697
| 23> *
| 24>
| 25> #Run DFT-D3 single point of the molecule with dimer basis set
| 26> $new_job
| 27> %base "20-211_DFT_A"
| 28> ! wB97X-D3 def2-TZVP TIGHTSCF CHELPG PMODEL
| 29>
| 30> %scf
| 31> MaxIter 1000
| 32> end
| 33>
| 34> * xyz 0 1
| 35>   C                      1.531525             0.033829             -4.259971
| 36>   O                      2.307821             0.669970             -3.214208
| 37>   H                      1.640530             1.240165             -2.764406
| 38>   H                      1.314484             0.738078             -5.066417
| 39>   H                      2.103369             -0.772283            -4.715026
| 40>   H                      0.554897             -0.284237            -3.949074
| 41>   C                    : 5.414360             2.312318             -2.568402
| 42>   O                    : 4.625519             1.914450             -1.504518
| 43>   H                    : 3.851987             1.466490             -1.876465
| 44>   H                    : 4.913684             2.890442             -3.305051
| 45>   H                    : 6.162484             2.892581             -2.213522
| 46>   H                    : 5.852648             1.497806             -3.120697
| 47> *
| 48>
| 49> #Run DFT-D3 single point of the particle with dimer basis set
| 50> $new_job
| 51> %base "20-211_DFT_B"
| 52> ! wB97X-D3 def2-TZVP TIGHTSCF CHELPG PMODEL
| 53>
| 54> %scf
| 55> MaxIter 1000
| 56> end
| 57>
| 58> * xyz 0 1
| 59>   C                    : 1.531525             0.033829             -4.259971
| 60>   O                    : 2.307821             0.669970             -3.214208
| 61>   H                    : 1.640530             1.240165             -2.764406
| 62>   H                    : 1.314484             0.738078             -5.066417
| 63>   H                    : 2.103369             -0.772283            -4.715026
| 64>   H                    : 0.554897             -0.284237            -3.949074
| 65>   C                      5.414360             2.312318             -2.568402
| 66>   O                      4.625519             1.914450             -1.504518
| 67>   H                      3.851987             1.466490             -1.876465
| 68>   H                      4.913684             2.890442             -3.305051
| 69>   H                      6.162484             2.892581             -2.213522
| 70>   H                      5.852648             1.497806             -3.120697
| 71> *
| 72>
| 73>                          ****END OF INPUT****
 Total Charge           Charge          ....    0
 Multiplicity           Mult            ....    1
 Number of Electrons    NEL             ....   36
Dispersion correction           -0.001469722
FINAL SINGLE POINT ENERGY      -231.470274288813
Dispersion correction           -0.000243082
FINAL SINGLE POINT ENERGY      -115.733508267915

CARTESIAN COORDINATES (ANGSTROEM)
---------------------------------
  C      1.531525    0.033829   -4.259971
  O      2.307821    0.669970   -3.214208
  H      1.640530    1.240165   -2.764406
  H      1.314484    0.738078   -5.066417
  H      2.103369   -0.772283   -4.715026
  H      0.554897   -0.284237   -3.949074
  C      5.414360    2.312318   -2.568402
  O      4.625519    1.914450   -1.504518
  H      3.851987    1.466490   -1.876465
  H      4.913684    2.890442   -3.305051
  H      6.162484    2.892581   -2.213522
  H      5.852648    1.497806   -3.120697

 Multiplicity           Mult            ....    1
 Number of Electrons    NEL             ....   18
 Basis Dimension        Dim             ....  172

ORBITAL ENERGIES
----------------

  NO   OCC          E(Eh)            E(eV)
   0   2.0000     -19.231715      -523.3216
   1   2.0000     -10.294725      -280.1337
   2   2.0000      -1.145101       -31.1598
   3   2.0000      -0.805595       -21.9214
   4   2.0000      -0.620971       -16.8975
   5   2.0000      -0.544305       -14.8113
   6   2.0000      -0.536831       -14.6079
   7   2.0000      -0.439906       -11.9705
   8   2.0000      -0.372651       -10.1404
   9   0.0000       0.070039         1.9059
  10   0.0000       0.124278         3.3818
  11   0.0000       0.152210         4.1418
  12   0.0000       0.176398         4.8000
  13   0.0000       0.194982         5.3057

MULLIKEN ATOMIC CHARGES
-----------------------
   0 C :   -0.000447
   1 O :   -0.002503
   2 H :   -0.001344
   3 H :   -0.000013
   4 H :    0.000008
   5 H :    0.000022
   6 C :   -0.153369
   7 O :   -0.469143
   8 H :    0.314773
   9 H :    0.096649
  10 H :    0.123517
  11 H :    0.091849
Sum of atomic charges:    0.0000000

LOEWDIN ATOMIC CHARGES
----------------------
   0 C :   -0.000541
   1 O :   -0.010823
   2 H :   -0.002341
   3 H :   -0.000016
   4 H :   -0.000018
   5 H :   -0.000011
   6 C :   -0.394937
   7 O :   -0.045678
   8 H :    0.180885
   9 H :    0.089598
  10 H :    0.091432
  11 H :    0.092449

  Mayer bond orders larger than 0.1
B(  6-C ,  7-O ) :   0.9981 B(  6-C ,  9-H ) :   0.9781 B(  6-C , 10-H ) :   0.9779
B(  6-C , 11-H ) :   0.9803 B(  7-O ,  8-H ) :   0.9063

Dispersion correction           -0.000217426
FINAL SINGLE POINT ENERGY      -115.730817790545

DIPOLE MOMENT
-------------
                                X             Y             Z
Electronic contribution:     -0.92634      -0.43813       1.54522
Nuclear contribution   :      0.75373       0.33114      -2.18406
                        -----------------------------------------
Total Dipole Moment    :     -0.17261      -0.10699      -0.63884
                        -----------------------------------------
Magnitude (a.u.)       :      0.67034
Magnitude (Debye)      :      1.70387

Rotational constants in cm-1:     4.638641     0.866282     0.834405
Rotational constants in MHz : 139062.966432 25970.475523 25014.840615

                             ****ORCA TERMINATED NORMALLY****
TOTAL RUN TIME: 0 days 0 hours 0 minutes 57 seconds 796 msec
