                         Program Version 4.1.2  - RELEASE  -
|  1> #Run DFT-D3 single point of the dimer
|  2> ! wB97X-D3 def2-TZVP TIGHTSCF CHELPG PMODEL PAL8
|  3>
|  4> %base "12-67_DFT_AB"
|  5>
|  6> %scf
|  7> MaxIter 1000
|  8> end
|  9>
| 10> * xyz 0 1
| 11>   C                      6.939438             8.381128             7.470866
| 12>   O                      6.725867             7.125149             6.925908
| 13>   H                      6.458362             6.563001             7.707976
| 14>   H                      6.795791             9.090185             6.659182
| 15>   H                      6.342889             8.682943             8.259780
| 16>   H                      7.982865             8.432314             7.760599
| 17>   C                      3.116415             9.494618             6.530826
| 18>   O                      3.287834             9.523754             7.967725
| 19>   H                      3.556932             8.624524             8.245668
| 20>   H                      4.026435             9.717809             6.046713
| 21>   H                      2.839763             8.464632             6.152085
| 22>   H                      2.406417             10.254568            6.109319
| 23> *
| 24>
| 25> #Run DFT-D3 single point of the molecule with dimer basis set
| 26> $new_job
| 27> %base "12-67_DFT_A"
| 28> ! wB97X-D3 def2-TZVP TIGHTSCF CHELPG PMODEL
| 29>
| 30> %scf
| 31> MaxIter 1000
| 32> end
| 33>
| 34> * xyz 0 1
| 35>   C                      6.939438             8.381128             7.470866
| 36>   O                      6.725867             7.125149             6.925908
| 37>   H                      6.458362             6.563001             7.707976
| 38>   H                      6.795791             9.090185             6.659182
| 39>   H                      6.342889             8.682943             8.259780
| 40>   H                      7.982865             8.432314             7.760599
| 41>   C                    : 3.116415             9.494618             6.530826
| 42>   O                    : 3.287834             9.523754             7.967725
| 43>   H                    : 3.556932             8.624524             8.245668
| 44>   H                    : 4.026435             9.717809             6.046713
| 45>   H                    : 2.839763             8.464632             6.152085
| 46>   H                    : 2.406417             10.254568            6.109319
| 47> *
| 48>
| 49> #Run DFT-D3 single point of the particle with dimer basis set
| 50> $new_job
| 51> %base "12-67_DFT_B"
| 52> ! wB97X-D3 def2-TZVP TIGHTSCF CHELPG PMODEL
| 53>
| 54> %scf
| 55> MaxIter 1000
| 56> end
| 57>
| 58> * xyz 0 1
| 59>   C                    : 6.939438             8.381128             7.470866
| 60>   O                    : 6.725867             7.125149             6.925908
| 61>   H                    : 6.458362             6.563001             7.707976
| 62>   H                    : 6.795791             9.090185             6.659182
| 63>   H                    : 6.342889             8.682943             8.259780
| 64>   H                    : 7.982865             8.432314             7.760599
| 65>   C                      3.116415             9.494618             6.530826
| 66>   O                      3.287834             9.523754             7.967725
| 67>   H                      3.556932             8.624524             8.245668
| 68>   H                      4.026435             9.717809             6.046713
| 69>   H                      2.839763             8.464632             6.152085
| 70>   H                      2.406417             10.254568            6.109319
| 71> *
| 72>
| 73>                          ****END OF INPUT****
 Total Charge           Charge          ....    0
 Multiplicity           Mult            ....    1
 Number of Electrons    NEL             ....   36
Dispersion correction           -0.001752286
FINAL SINGLE POINT ENERGY      -231.461530297944
Dispersion correction           -0.000215229
FINAL SINGLE POINT ENERGY      -115.729675072502

CARTESIAN COORDINATES (ANGSTROEM)
---------------------------------
  C      6.939438    8.381128    7.470866
  O      6.725867    7.125149    6.925908
  H      6.458362    6.563001    7.707976
  H      6.795791    9.090185    6.659182
  H      6.342889    8.682943    8.259780
  H      7.982865    8.432314    7.760599
  C      3.116415    9.494618    6.530826
  O      3.287834    9.523754    7.967725
  H      3.556932    8.624524    8.245668
  H      4.026435    9.717809    6.046713
  H      2.839763    8.464632    6.152085
  H      2.406417   10.254568    6.109319

 Multiplicity           Mult            ....    1
 Number of Electrons    NEL             ....   18
 Basis Dimension        Dim             ....  172

ORBITAL ENERGIES
----------------

  NO   OCC          E(Eh)            E(eV)
   0   2.0000     -19.235083      -523.4132
   1   2.0000     -10.319440      -280.8062
   2   2.0000      -1.124575       -30.6012
   3   2.0000      -0.795554       -21.6481
   4   2.0000      -0.603662       -16.4265
   5   2.0000      -0.533250       -14.5105
   6   2.0000      -0.526381       -14.3235
   7   2.0000      -0.436126       -11.8676
   8   2.0000      -0.374307       -10.1854
   9   0.0000       0.077235         2.1017
  10   0.0000       0.126452         3.4409
  11   0.0000       0.143358         3.9010
  12   0.0000       0.161368         4.3910
  13   0.0000       0.192906         5.2492

MULLIKEN ATOMIC CHARGES
-----------------------
   0 C :    0.001896
   1 O :   -0.000006
   2 H :   -0.000062
   3 H :   -0.000145
   4 H :   -0.006704
   5 H :   -0.000371
   6 C :   -0.187522
   7 O :   -0.474685
   8 H :    0.321279
   9 H :    0.116566
  10 H :    0.103016
  11 H :    0.126738
Sum of atomic charges:   -0.0000000

LOEWDIN ATOMIC CHARGES
----------------------
   0 C :   -0.003084
   1 O :   -0.000042
   2 H :   -0.000084
   3 H :   -0.000844
   4 H :   -0.003284
   5 H :   -0.000048
   6 C :   -0.369988
   7 O :   -0.104877
   8 H :    0.179693
   9 H :    0.086538
  10 H :    0.102865
  11 H :    0.113156

  Mayer bond orders larger than 0.1
B(  6-C ,  7-O ) :   1.0023 B(  6-C ,  9-H ) :   0.9742 B(  6-C , 10-H ) :   0.9830
B(  6-C , 11-H ) :   0.9727 B(  7-O ,  8-H ) :   0.8937

Dispersion correction           -0.000267483
FINAL SINGLE POINT ENERGY      -115.730380750736

DIPOLE MOMENT
-------------
                                X             Y             Z
Electronic contribution:      0.13296       0.23870       1.89983
Nuclear contribution   :     -0.02167      -0.80595      -2.32894
                        -----------------------------------------
Total Dipole Moment    :      0.11129      -0.56725      -0.42911
                        -----------------------------------------
Magnitude (a.u.)       :      0.71993
Magnitude (Debye)      :      1.82991

Rotational constants in cm-1:     4.302307     0.795827     0.756614
Rotational constants in MHz : 128979.922751 23858.303492 22682.731398

                             ****ORCA TERMINATED NORMALLY****
TOTAL RUN TIME: 0 days 0 hours 1 minutes 10 seconds 231 msec
