                         Program Version 4.1.2  - RELEASE  -
|  1> #Run DFT-D3 single point of the dimer
|  2> ! wB97X-D3 def2-TZVP TIGHTSCF CHELPG PMODEL PAL8
|  3>
|  4> %base "17-158_DFT_AB"
|  5>
|  6> %scf
|  7> MaxIter 1000
|  8> end
|  9>
| 10> * xyz 0 1
| 11>   C                      3.336545             -6.019057            -0.127289
| 12>   O                      2.124200             -6.692143            -0.632479
| 13>   H                      2.245712             -6.788249            -1.551181
| 14>   H                      3.279200             -5.674546            0.871108
| 15>   H                      4.169471             -6.729841            -0.125674
| 16>   H                      3.693860             -5.153305            -0.729483
| 17>   C                      1.026511             -7.915812            -3.914606
| 18>   O                      2.196745             -7.362972            -3.310764
| 19>   H                      2.851614             -7.156945            -3.984918
| 20>   H                      1.192888             -8.934520            -4.204761
| 21>   H                      0.187900             -7.932288            -3.209825
| 22>   H                      0.729456             -7.331890            -4.788723
| 23> *
| 24>
| 25> #Run DFT-D3 single point of the molecule with dimer basis set
| 26> $new_job
| 27> %base "17-158_DFT_A"
| 28> ! wB97X-D3 def2-TZVP TIGHTSCF CHELPG PMODEL
| 29>
| 30> %scf
| 31> MaxIter 1000
| 32> end
| 33>
| 34> * xyz 0 1
| 35>   C                      3.336545             -6.019057            -0.127289
| 36>   O                      2.124200             -6.692143            -0.632479
| 37>   H                      2.245712             -6.788249            -1.551181
| 38>   H                      3.279200             -5.674546            0.871108
| 39>   H                      4.169471             -6.729841            -0.125674
| 40>   H                      3.693860             -5.153305            -0.729483
| 41>   C                    : 1.026511             -7.915812            -3.914606
| 42>   O                    : 2.196745             -7.362972            -3.310764
| 43>   H                    : 2.851614             -7.156945            -3.984918
| 44>   H                    : 1.192888             -8.934520            -4.204761
| 45>   H                    : 0.187900             -7.932288            -3.209825
| 46>   H                    : 0.729456             -7.331890            -4.788723
| 47> *
| 48>
| 49> #Run DFT-D3 single point of the particle with dimer basis set
| 50> $new_job
| 51> %base "17-158_DFT_B"
| 52> ! wB97X-D3 def2-TZVP TIGHTSCF CHELPG PMODEL
| 53>
| 54> %scf
| 55> MaxIter 1000
| 56> end
| 57>
| 58> * xyz 0 1
| 59>   C                    : 3.336545             -6.019057            -0.127289
| 60>   O                    : 2.124200             -6.692143            -0.632479
| 61>   H                    : 2.245712             -6.788249            -1.551181
| 62>   H                    : 3.279200             -5.674546            0.871108
| 63>   H                    : 4.169471             -6.729841            -0.125674
| 64>   H                    : 3.693860             -5.153305            -0.729483
| 65>   C                      1.026511             -7.915812            -3.914606
| 66>   O                      2.196745             -7.362972            -3.310764
| 67>   H                      2.851614             -7.156945            -3.984918
| 68>   H                      1.192888             -8.934520            -4.204761
| 69>   H                      0.187900             -7.932288            -3.209825
| 70>   H                      0.729456             -7.331890            -4.788723
| 71> *
| 72>
| 73>                          ****END OF INPUT****
 Total Charge           Charge          ....    0
 Multiplicity           Mult            ....    1
 Number of Electrons    NEL             ....   36
Dispersion correction           -0.001619762
FINAL SINGLE POINT ENERGY      -231.474023978126
Dispersion correction           -0.000274012
FINAL SINGLE POINT ENERGY      -115.730236467706

CARTESIAN COORDINATES (ANGSTROEM)
---------------------------------
  C      3.336545   -6.019057   -0.127289
  O      2.124200   -6.692143   -0.632479
  H      2.245712   -6.788249   -1.551181
  H      3.279200   -5.674546    0.871108
  H      4.169471   -6.729841   -0.125674
  H      3.693860   -5.153305   -0.729483
  C      1.026511   -7.915812   -3.914606
  O      2.196745   -7.362972   -3.310764
  H      2.851614   -7.156945   -3.984918
  H      1.192888   -8.934520   -4.204761
  H      0.187900   -7.932288   -3.209825
  H      0.729456   -7.331890   -4.788723

 Multiplicity           Mult            ....    1
 Number of Electrons    NEL             ....   18
 Basis Dimension        Dim             ....  172

ORBITAL ENERGIES
----------------

  NO   OCC          E(Eh)            E(eV)
   0   2.0000     -19.228936      -523.2459
   1   2.0000     -10.312289      -280.6116
   2   2.0000      -1.129632       -30.7389
   3   2.0000      -0.798545       -21.7295
   4   2.0000      -0.607555       -16.5324
   5   2.0000      -0.543171       -14.7804
   6   2.0000      -0.528106       -14.3705
   7   2.0000      -0.431198       -11.7335
   8   2.0000      -0.374063       -10.1788
   9   0.0000       0.099462         2.7065
  10   0.0000       0.123547         3.3619
  11   0.0000       0.152605         4.1526
  12   0.0000       0.187077         5.0906
  13   0.0000       0.206174         5.6103

MULLIKEN ATOMIC CHARGES
-----------------------
   0 C :    0.001245
   1 O :   -0.000063
   2 H :   -0.009227
   3 H :   -0.000136
   4 H :   -0.000603
   5 H :   -0.000895
   6 C :   -0.147398
   7 O :   -0.479227
   8 H :    0.313270
   9 H :    0.101575
  10 H :    0.119715
  11 H :    0.101744
Sum of atomic charges:    0.0000000

LOEWDIN ATOMIC CHARGES
----------------------
   0 C :   -0.002323
   1 O :   -0.007255
   2 H :   -0.050552
   3 H :   -0.000034
   4 H :   -0.000173
   5 H :   -0.000253
   6 C :   -0.364713
   7 O :   -0.039421
   8 H :    0.167968
   9 H :    0.090833
  10 H :    0.109573
  11 H :    0.096352

  Mayer bond orders larger than 0.1
B(  6-C ,  7-O ) :   0.9880 B(  6-C ,  9-H ) :   0.9740 B(  6-C , 10-H ) :   0.9772
B(  6-C , 11-H ) :   0.9779 B(  7-O ,  8-H ) :   0.8961

Dispersion correction           -0.000245193
FINAL SINGLE POINT ENERGY      -115.736454380338

DIPOLE MOMENT
-------------
                                X             Y             Z
Electronic contribution:      1.40684       0.67776       0.87252
Nuclear contribution   :     -1.48262      -0.77967      -1.56125
                        -----------------------------------------
Total Dipole Moment    :     -0.07578      -0.10192      -0.68873
                        -----------------------------------------
Magnitude (a.u.)       :      0.70034
Magnitude (Debye)      :      1.78012

Rotational constants in cm-1:     4.370247     0.816210     0.787313
Rotational constants in MHz : 131016.701014 24469.370069 23603.056698

                             ****ORCA TERMINATED NORMALLY****
TOTAL RUN TIME: 0 days 0 hours 1 minutes 13 seconds 644 msec
