                         Program Version 4.1.2  - RELEASE  -
|  1> #Run DFT-D3 single point of the dimer
|  2> ! wB97X-D3 def2-TZVP TIGHTSCF CHELPG PMODEL PAL8
|  3>
|  4> %base "10-50_DFT_AB"
|  5>
|  6> %scf
|  7> MaxIter 1000
|  8> end
|  9>
| 10> * xyz 0 1
| 11>   C                      6.640702             1.118679             1.001048
| 12>   O                      7.266035             -0.143782            1.123999
| 13>   H                      7.994274             -0.063849            0.473445
| 14>   H                      5.730766             1.058960             0.469523
| 15>   H                      6.333335             1.429739             2.003741
| 16>   H                      7.222567             1.942048             0.618447
| 17>   C                      3.203377             -1.217484            -0.749389
| 18>   O                      4.062555             -2.295601            -1.220130
| 19>   H                      4.458359             -2.035468            -2.092051
| 20>   H                      3.064216             -1.253554            0.326421
| 21>   H                      3.703060             -0.257656            -0.988872
| 22>   H                      2.241953             -1.193631            -1.159295
| 23> *
| 24>
| 25> #Run DFT-D3 single point of the molecule with dimer basis set
| 26> $new_job
| 27> %base "10-50_DFT_A"
| 28> ! wB97X-D3 def2-TZVP TIGHTSCF CHELPG PMODEL
| 29>
| 30> %scf
| 31> MaxIter 1000
| 32> end
| 33>
| 34> * xyz 0 1
| 35>   C                      6.640702             1.118679             1.001048
| 36>   O                      7.266035             -0.143782            1.123999
| 37>   H                      7.994274             -0.063849            0.473445
| 38>   H                      5.730766             1.058960             0.469523
| 39>   H                      6.333335             1.429739             2.003741
| 40>   H                      7.222567             1.942048             0.618447
| 41>   C                    : 3.203377             -1.217484            -0.749389
| 42>   O                    : 4.062555             -2.295601            -1.220130
| 43>   H                    : 4.458359             -2.035468            -2.092051
| 44>   H                    : 3.064216             -1.253554            0.326421
| 45>   H                    : 3.703060             -0.257656            -0.988872
| 46>   H                    : 2.241953             -1.193631            -1.159295
| 47> *
| 48>
| 49> #Run DFT-D3 single point of the particle with dimer basis set
| 50> $new_job
| 51> %base "10-50_DFT_B"
| 52> ! wB97X-D3 def2-TZVP TIGHTSCF CHELPG PMODEL
| 53>
| 54> %scf
| 55> MaxIter 1000
| 56> end
| 57>
| 58> * xyz 0 1
| 59>   C                    : 6.640702             1.118679             1.001048
| 60>   O                    : 7.266035             -0.143782            1.123999
| 61>   H                    : 7.994274             -0.063849            0.473445
| 62>   H                    : 5.730766             1.058960             0.469523
| 63>   H                    : 6.333335             1.429739             2.003741
| 64>   H                    : 7.222567             1.942048             0.618447
| 65>   C                      3.203377             -1.217484            -0.749389
| 66>   O                      4.062555             -2.295601            -1.220130
| 67>   H                      4.458359             -2.035468            -2.092051
| 68>   H                      3.064216             -1.253554            0.326421
| 69>   H                      3.703060             -0.257656            -0.988872
| 70>   H                      2.241953             -1.193631            -1.159295
| 71> *
| 72>
| 73>                          ****END OF INPUT****
 Total Charge           Charge          ....    0
 Multiplicity           Mult            ....    1
 Number of Electrons    NEL             ....   36
Dispersion correction           -0.001173730
FINAL SINGLE POINT ENERGY      -231.462280473416
Dispersion correction           -0.000239590
FINAL SINGLE POINT ENERGY      -115.731341972987

CARTESIAN COORDINATES (ANGSTROEM)
---------------------------------
  C      6.640702    1.118679    1.001048
  O      7.266035   -0.143782    1.123999
  H      7.994274   -0.063849    0.473445
  H      5.730766    1.058960    0.469523
  H      6.333335    1.429739    2.003741
  H      7.222567    1.942048    0.618447
  C      3.203377   -1.217484   -0.749389
  O      4.062555   -2.295601   -1.220130
  H      4.458359   -2.035468   -2.092051
  H      3.064216   -1.253554    0.326421
  H      3.703060   -0.257656   -0.988872
  H      2.241953   -1.193631   -1.159295

 Multiplicity           Mult            ....    1
 Number of Electrons    NEL             ....   18
 Basis Dimension        Dim             ....  172

ORBITAL ENERGIES
----------------

  NO   OCC          E(Eh)            E(eV)
   0   2.0000     -19.231987      -523.3290
   1   2.0000     -10.312300      -280.6119
   2   2.0000      -1.116188       -30.3730
   3   2.0000      -0.799669       -21.7601
   4   2.0000      -0.599128       -16.3031
   5   2.0000      -0.540483       -14.7073
   6   2.0000      -0.525311       -14.2944
   7   2.0000      -0.431175       -11.7329
   8   2.0000      -0.375232       -10.2106
   9   0.0000       0.085764         2.3337
  10   0.0000       0.114562         3.1174
  11   0.0000       0.147568         4.0155
  12   0.0000       0.171951         4.6790
  13   0.0000       0.187346         5.0980

MULLIKEN ATOMIC CHARGES
-----------------------
   0 C :    0.000036
   1 O :   -0.000053
   2 H :   -0.000011
   3 H :    0.000168
   4 H :   -0.000065
   5 H :    0.000006
   6 C :   -0.167566
   7 O :   -0.489712
   8 H :    0.318423
   9 H :    0.122789
  10 H :    0.102009
  11 H :    0.113978
Sum of atomic charges:   -0.0000000

LOEWDIN ATOMIC CHARGES
----------------------
   0 C :   -0.000496
   1 O :   -0.000070
   2 H :   -0.000028
   3 H :   -0.001376
   4 H :   -0.000007
   5 H :   -0.000001
   6 C :   -0.350933
   7 O :   -0.123550
   8 H :    0.184271
   9 H :    0.106868
  10 H :    0.100931
  11 H :    0.084390

  Mayer bond orders larger than 0.1
B(  6-C ,  7-O ) :   0.9973 B(  6-C ,  9-H ) :   0.9755 B(  6-C , 10-H ) :   0.9880
B(  6-C , 11-H ) :   0.9668 B(  7-O ,  8-H ) :   0.8943

Dispersion correction           -0.000260943
FINAL SINGLE POINT ENERGY      -115.731253336277

DIPOLE MOMENT
-------------
                                X             Y             Z
Electronic contribution:      0.94068      -1.49234      -0.46816
Nuclear contribution   :     -1.06742       2.11842       0.12758
                        -----------------------------------------
Total Dipole Moment    :     -0.12674       0.62608      -0.34059
                        -----------------------------------------
Magnitude (a.u.)       :      0.72391
Magnitude (Debye)      :      1.84002

Rotational constants in cm-1:     4.387057     0.789963     0.758357
Rotational constants in MHz : 131520.672559 23682.488285 22734.982682

                             ****ORCA TERMINATED NORMALLY****
TOTAL RUN TIME: 0 days 0 hours 1 minutes 4 seconds 733 msec
