                         Program Version 4.1.2  - RELEASE  -
|  1> #Run DFT-D3 single point of the dimer
|  2> ! wB97X-D3 def2-TZVP TIGHTSCF CHELPG PMODEL PAL8
|  3>
|  4> %base "2-178_DFT_AB"
|  5>
|  6> %scf
|  7> MaxIter 1000
|  8> end
|  9>
| 10> * xyz 0 1
| 11>   C                      1.478229             4.723334             1.853045
| 12>   O                      2.137860             3.740740             0.987973
| 13>   H                      1.603205             2.908610             1.102617
| 14>   H                      2.125817             5.126152             2.564378
| 15>   H                      1.034596             5.532654             1.227298
| 16>   H                      0.771103             4.272160             2.550989
| 17>   C                      -2.197106            2.999726             0.244676
| 18>   O                      -2.077694            3.934402             -0.773243
| 19>   H                      -1.174624            4.272420             -0.698068
| 20>   H                      -2.433682            3.459096             1.167180
| 21>   H                      -2.846017            2.155096             0.044249
| 22>   H                      -1.193848            2.548132             0.440142
| 23> *
| 24>
| 25> #Run DFT-D3 single point of the molecule with dimer basis set
| 26> $new_job
| 27> %base "2-178_DFT_A"
| 28> ! wB97X-D3 def2-TZVP TIGHTSCF CHELPG PMODEL
| 29>
| 30> %scf
| 31> MaxIter 1000
| 32> end
| 33>
| 34> * xyz 0 1
| 35>   C                      1.478229             4.723334             1.853045
| 36>   O                      2.137860             3.740740             0.987973
| 37>   H                      1.603205             2.908610             1.102617
| 38>   H                      2.125817             5.126152             2.564378
| 39>   H                      1.034596             5.532654             1.227298
| 40>   H                      0.771103             4.272160             2.550989
| 41>   C                    : -2.197106            2.999726             0.244676
| 42>   O                    : -2.077694            3.934402             -0.773243
| 43>   H                    : -1.174624            4.272420             -0.698068
| 44>   H                    : -2.433682            3.459096             1.167180
| 45>   H                    : -2.846017            2.155096             0.044249
| 46>   H                    : -1.193848            2.548132             0.440142
| 47> *
| 48>
| 49> #Run DFT-D3 single point of the particle with dimer basis set
| 50> $new_job
| 51> %base "2-178_DFT_B"
| 52> ! wB97X-D3 def2-TZVP TIGHTSCF CHELPG PMODEL
| 53>
| 54> %scf
| 55> MaxIter 1000
| 56> end
| 57>
| 58> * xyz 0 1
| 59>   C                    : 1.478229             4.723334             1.853045
| 60>   O                    : 2.137860             3.740740             0.987973
| 61>   H                    : 1.603205             2.908610             1.102617
| 62>   H                    : 2.125817             5.126152             2.564378
| 63>   H                    : 1.034596             5.532654             1.227298
| 64>   H                    : 0.771103             4.272160             2.550989
| 65>   C                      -2.197106            2.999726             0.244676
| 66>   O                      -2.077694            3.934402             -0.773243
| 67>   H                      -1.174624            4.272420             -0.698068
| 68>   H                      -2.433682            3.459096             1.167180
| 69>   H                      -2.846017            2.155096             0.044249
| 70>   H                      -1.193848            2.548132             0.440142
| 71> *
| 72>
| 73>                          ****END OF INPUT****
 Total Charge           Charge          ....    0
 Multiplicity           Mult            ....    1
 Number of Electrons    NEL             ....   36
Dispersion correction           -0.001565781
FINAL SINGLE POINT ENERGY      -231.459874485121
Dispersion correction           -0.000268035
FINAL SINGLE POINT ENERGY      -115.727405871284

CARTESIAN COORDINATES (ANGSTROEM)
---------------------------------
  C      1.478229    4.723334    1.853045
  O      2.137860    3.740740    0.987973
  H      1.603205    2.908610    1.102617
  H      2.125817    5.126152    2.564378
  H      1.034596    5.532654    1.227298
  H      0.771103    4.272160    2.550989
  C     -2.197106    2.999726    0.244676
  O     -2.077694    3.934402   -0.773243
  H     -1.174624    4.272420   -0.698068
  H     -2.433682    3.459096    1.167180
  H     -2.846017    2.155096    0.044249
  H     -1.193848    2.548132    0.440142

 Multiplicity           Mult            ....    1
 Number of Electrons    NEL             ....   18
 Basis Dimension        Dim             ....  172

ORBITAL ENERGIES
----------------

  NO   OCC          E(Eh)            E(eV)
   0   2.0000     -19.231313      -523.3106
   1   2.0000     -10.308118      -280.4981
   2   2.0000      -1.145833       -31.1797
   3   2.0000      -0.794672       -21.6241
   4   2.0000      -0.616744       -16.7825
   5   2.0000      -0.549810       -14.9611
   6   2.0000      -0.531810       -14.4713
   7   2.0000      -0.430384       -11.7114
   8   2.0000      -0.372616       -10.1394
   9   0.0000       0.068132         1.8540
  10   0.0000       0.128152         3.4872
  11   0.0000       0.146939         3.9984
  12   0.0000       0.157761         4.2929
  13   0.0000       0.196224         5.3395

MULLIKEN ATOMIC CHARGES
-----------------------
   0 C :    0.000794
   1 O :   -0.000033
   2 H :   -0.000263
   3 H :   -0.000011
   4 H :   -0.000551
   5 H :   -0.000636
   6 C :   -0.169742
   7 O :   -0.463441
   8 H :    0.320649
   9 H :    0.101665
  10 H :    0.120662
  11 H :    0.090907
Sum of atomic charges:   -0.0000000

LOEWDIN ATOMIC CHARGES
----------------------
   0 C :   -0.000970
   1 O :   -0.000082
   2 H :   -0.001336
   3 H :   -0.000020
   4 H :   -0.000399
   5 H :   -0.000286
   6 C :   -0.405802
   7 O :   -0.060409
   8 H :    0.179562
   9 H :    0.086603
  10 H :    0.103915
  11 H :    0.099224

  Mayer bond orders larger than 0.1
B(  6-C ,  7-O ) :   1.0053 B(  6-C ,  9-H ) :   0.9761 B(  6-C , 10-H ) :   0.9706
B(  6-C , 11-H ) :   0.9935 B(  7-O ,  8-H ) :   0.8983

Dispersion correction           -0.000217076
FINAL SINGLE POINT ENERGY      -115.731217402340

DIPOLE MOMENT
-------------
                                X             Y             Z
Electronic contribution:     -0.17665       1.23852      -1.44537
Nuclear contribution   :      0.71175      -1.38721       1.87916
                        -----------------------------------------
Total Dipole Moment    :      0.53510      -0.14870       0.43379
                        -----------------------------------------
Magnitude (a.u.)       :      0.70471
Magnitude (Debye)      :      1.79122

Rotational constants in cm-1:     4.369207     0.860383     0.824851
Rotational constants in MHz : 130985.539299 25793.638173 24728.416844

                             ****ORCA TERMINATED NORMALLY****
TOTAL RUN TIME: 0 days 0 hours 5 minutes 42 seconds 89 msec
