                         Program Version 4.1.2  - RELEASE  -
|  1> #Run DFT-D3 single point of the dimer
|  2> ! wB97X-D3 def2-TZVP TIGHTSCF CHELPG PMODEL PAL8
|  3>
|  4> %base "11-15_DFT_AB"
|  5>
|  6> %scf
|  7> MaxIter 1000
|  8> end
|  9>
| 10> * xyz 0 1
| 11>   C                      -9.588072            -1.444471            5.461368
| 12>   O                      -10.403230           -2.633637            5.367968
| 13>   H                      -11.278415           -2.425012            5.028035
| 14>   H                      -9.139766            -1.218325            4.490122
| 15>   H                      -10.162974           -0.559693            5.727943
| 16>   H                      -8.740249            -1.545357            6.116138
| 17>   C                      -7.659629            -4.472034            5.252038
| 18>   O                      -8.518829            -4.748822            4.136675
| 19>   H                      -9.275437            -4.126430            4.062496
| 20>   H                      -6.893624            -5.275388            5.267629
| 21>   H                      -7.228614            -3.404280            5.310936
| 22>   H                      -8.259196            -4.497080            6.162074
| 23> *
| 24>
| 25> #Run DFT-D3 single point of the molecule with dimer basis set
| 26> $new_job
| 27> %base "11-15_DFT_A"
| 28> ! wB97X-D3 def2-TZVP TIGHTSCF CHELPG PMODEL
| 29>
| 30> %scf
| 31> MaxIter 1000
| 32> end
| 33>
| 34> * xyz 0 1
| 35>   C                      -9.588072            -1.444471            5.461368
| 36>   O                      -10.403230           -2.633637            5.367968
| 37>   H                      -11.278415           -2.425012            5.028035
| 38>   H                      -9.139766            -1.218325            4.490122
| 39>   H                      -10.162974           -0.559693            5.727943
| 40>   H                      -8.740249            -1.545357            6.116138
| 41>   C                    : -7.659629            -4.472034            5.252038
| 42>   O                    : -8.518829            -4.748822            4.136675
| 43>   H                    : -9.275437            -4.126430            4.062496
| 44>   H                    : -6.893624            -5.275388            5.267629
| 45>   H                    : -7.228614            -3.404280            5.310936
| 46>   H                    : -8.259196            -4.497080            6.162074
| 47> *
| 48>
| 49> #Run DFT-D3 single point of the particle with dimer basis set
| 50> $new_job
| 51> %base "11-15_DFT_B"
| 52> ! wB97X-D3 def2-TZVP TIGHTSCF CHELPG PMODEL
| 53>
| 54> %scf
| 55> MaxIter 1000
| 56> end
| 57>
| 58> * xyz 0 1
| 59>   C                    : -9.588072            -1.444471            5.461368
| 60>   O                    : -10.403230           -2.633637            5.367968
| 61>   H                    : -11.278415           -2.425012            5.028035
| 62>   H                    : -9.139766            -1.218325            4.490122
| 63>   H                    : -10.162974           -0.559693            5.727943
| 64>   H                    : -8.740249            -1.545357            6.116138
| 65>   C                      -7.659629            -4.472034            5.252038
| 66>   O                      -8.518829            -4.748822            4.136675
| 67>   H                      -9.275437            -4.126430            4.062496
| 68>   H                      -6.893624            -5.275388            5.267629
| 69>   H                      -7.228614            -3.404280            5.310936
| 70>   H                      -8.259196            -4.497080            6.162074
| 71> *
| 72>
| 73>                          ****END OF INPUT****
 Total Charge           Charge          ....    0
 Multiplicity           Mult            ....    1
 Number of Electrons    NEL             ....   36
Dispersion correction           -0.002415791
FINAL SINGLE POINT ENERGY      -231.471532892101
Dispersion correction           -0.000263343
FINAL SINGLE POINT ENERGY      -115.734090486233

CARTESIAN COORDINATES (ANGSTROEM)
---------------------------------
  C     -9.588072   -1.444471    5.461368
  O    -10.403230   -2.633637    5.367968
  H    -11.278415   -2.425012    5.028035
  H     -9.139766   -1.218325    4.490122
  H    -10.162974   -0.559693    5.727943
  H     -8.740249   -1.545357    6.116138
  C     -7.659629   -4.472034    5.252038
  O     -8.518829   -4.748822    4.136675
  H     -9.275437   -4.126430    4.062496
  H     -6.893624   -5.275388    5.267629
  H     -7.228614   -3.404280    5.310936
  H     -8.259196   -4.497080    6.162074

 Multiplicity           Mult            ....    1
 Number of Electrons    NEL             ....   18
 Basis Dimension        Dim             ....  172

ORBITAL ENERGIES
----------------

  NO   OCC          E(Eh)            E(eV)
   0   2.0000     -19.231372      -523.3122
   1   2.0000     -10.323602      -280.9195
   2   2.0000      -1.123226       -30.5645
   3   2.0000      -0.791542       -21.5389
   4   2.0000      -0.609218       -16.5777
   5   2.0000      -0.526408       -14.3243
   6   2.0000      -0.523502       -14.2452
   7   2.0000      -0.434054       -11.8112
   8   2.0000      -0.369285       -10.0487
   9   0.0000       0.068049         1.8517
  10   0.0000       0.131166         3.5692
  11   0.0000       0.143515         3.9052
  12   0.0000       0.165663         4.5079
  13   0.0000       0.192272         5.2320

MULLIKEN ATOMIC CHARGES
-----------------------
   0 C :    0.001188
   1 O :   -0.002487
   2 H :   -0.000369
   3 H :   -0.000387
   4 H :    0.000069
   5 H :   -0.002365
   6 C :   -0.171348
   7 O :   -0.488016
   8 H :    0.318403
   9 H :    0.135447
  10 H :    0.101376
  11 H :    0.108489
Sum of atomic charges:    0.0000000

LOEWDIN ATOMIC CHARGES
----------------------
   0 C :   -0.007742
   1 O :   -0.009340
   2 H :   -0.000806
   3 H :   -0.000753
   4 H :   -0.000059
   5 H :   -0.002731
   6 C :   -0.375324
   7 O :   -0.097607
   8 H :    0.179568
   9 H :    0.114355
  10 H :    0.106309
  11 H :    0.094133

  Mayer bond orders larger than 0.1
B(  6-C ,  7-O ) :   0.9878 B(  6-C ,  9-H ) :   0.9704 B(  6-C , 10-H ) :   0.9665
B(  6-C , 11-H ) :   0.9803 B(  7-O ,  8-H ) :   0.8965

Dispersion correction           -0.000274713
FINAL SINGLE POINT ENERGY      -115.730941000663

DIPOLE MOMENT
-------------
                                X             Y             Z
Electronic contribution:     -0.92064      -0.50803      -1.49077
Nuclear contribution   :      0.76889       0.99605       1.91364
                        -----------------------------------------
Total Dipole Moment    :     -0.15176       0.48802       0.42287
                        -----------------------------------------
Magnitude (a.u.)       :      0.66333
Magnitude (Debye)      :      1.68606

Rotational constants in cm-1:     4.160759     0.806943     0.767176
Rotational constants in MHz : 124736.415357 24191.549897 22999.366388

                             ****ORCA TERMINATED NORMALLY****
TOTAL RUN TIME: 0 days 0 hours 1 minutes 13 seconds 346 msec
