                         Program Version 4.1.2  - RELEASE  -
|  1> #Run DFT-D3 single point of the dimer
|  2> ! wB97X-D3 def2-TZVP TIGHTSCF CHELPG PMODEL PAL8
|  3>
|  4> %base "12-77_DFT_AB"
|  5>
|  6> %scf
|  7> MaxIter 1000
|  8> end
|  9>
| 10> * xyz 0 1
| 11>   C                      7.095750             3.934989             5.712976
| 12>   O                      8.233398             3.019336             5.783510
| 13>   H                      8.730311             3.165655             4.956165
| 14>   H                      6.340234             3.723684             6.452433
| 15>   H                      7.425371             4.894638             6.015371
| 16>   H                      6.636750             3.988568             4.765022
| 17>   C                      8.878527             2.589100             1.430638
| 18>   O                      8.758311             2.417038             2.792968
| 19>   H                      8.306362             1.577243             2.950855
| 20>   H                      9.159782             1.641444             0.939002
| 21>   H                      8.037784             3.001873             0.954655
| 22>   H                      9.620857             3.345827             1.223302
| 23> *
| 24>
| 25> #Run DFT-D3 single point of the molecule with dimer basis set
| 26> $new_job
| 27> %base "12-77_DFT_A"
| 28> ! wB97X-D3 def2-TZVP TIGHTSCF CHELPG PMODEL
| 29>
| 30> %scf
| 31> MaxIter 1000
| 32> end
| 33>
| 34> * xyz 0 1
| 35>   C                      7.095750             3.934989             5.712976
| 36>   O                      8.233398             3.019336             5.783510
| 37>   H                      8.730311             3.165655             4.956165
| 38>   H                      6.340234             3.723684             6.452433
| 39>   H                      7.425371             4.894638             6.015371
| 40>   H                      6.636750             3.988568             4.765022
| 41>   C                    : 8.878527             2.589100             1.430638
| 42>   O                    : 8.758311             2.417038             2.792968
| 43>   H                    : 8.306362             1.577243             2.950855
| 44>   H                    : 9.159782             1.641444             0.939002
| 45>   H                    : 8.037784             3.001873             0.954655
| 46>   H                    : 9.620857             3.345827             1.223302
| 47> *
| 48>
| 49> #Run DFT-D3 single point of the particle with dimer basis set
| 50> $new_job
| 51> %base "12-77_DFT_B"
| 52> ! wB97X-D3 def2-TZVP TIGHTSCF CHELPG PMODEL
| 53>
| 54> %scf
| 55> MaxIter 1000
| 56> end
| 57>
| 58> * xyz 0 1
| 59>   C                    : 7.095750             3.934989             5.712976
| 60>   O                    : 8.233398             3.019336             5.783510
| 61>   H                    : 8.730311             3.165655             4.956165
| 62>   H                    : 6.340234             3.723684             6.452433
| 63>   H                    : 7.425371             4.894638             6.015371
| 64>   H                    : 6.636750             3.988568             4.765022
| 65>   C                      8.878527             2.589100             1.430638
| 66>   O                      8.758311             2.417038             2.792968
| 67>   H                      8.306362             1.577243             2.950855
| 68>   H                      9.159782             1.641444             0.939002
| 69>   H                      8.037784             3.001873             0.954655
| 70>   H                      9.620857             3.345827             1.223302
| 71> *
| 72>
| 73>                          ****END OF INPUT****
 Total Charge           Charge          ....    0
 Multiplicity           Mult            ....    1
 Number of Electrons    NEL             ....   36
Dispersion correction           -0.001531639
FINAL SINGLE POINT ENERGY      -231.471571124754
Dispersion correction           -0.000247378
FINAL SINGLE POINT ENERGY      -115.731431101039

CARTESIAN COORDINATES (ANGSTROEM)
---------------------------------
  C      7.095750    3.934989    5.712976
  O      8.233398    3.019336    5.783510
  H      8.730311    3.165655    4.956165
  H      6.340234    3.723684    6.452433
  H      7.425371    4.894638    6.015371
  H      6.636750    3.988568    4.765022
  C      8.878527    2.589100    1.430638
  O      8.758311    2.417038    2.792968
  H      8.306362    1.577243    2.950855
  H      9.159782    1.641444    0.939002
  H      8.037784    3.001873    0.954655
  H      9.620857    3.345827    1.223302

 Multiplicity           Mult            ....    1
 Number of Electrons    NEL             ....   18
 Basis Dimension        Dim             ....  172

ORBITAL ENERGIES
----------------

  NO   OCC          E(Eh)            E(eV)
   0   2.0000     -19.231831      -523.3247
   1   2.0000     -10.304336      -280.3952
   2   2.0000      -1.146980       -31.2109
   3   2.0000      -0.798947       -21.7404
   4   2.0000      -0.617892       -16.8137
   5   2.0000      -0.551683       -15.0121
   6   2.0000      -0.531718       -14.4688
   7   2.0000      -0.431143       -11.7320
   8   2.0000      -0.372688       -10.1414
   9   0.0000       0.096637         2.6296
  10   0.0000       0.123215         3.3529
  11   0.0000       0.156155         4.2492
  12   0.0000       0.191246         5.2041
  13   0.0000       0.198498         5.4014

MULLIKEN ATOMIC CHARGES
-----------------------
   0 C :    0.001777
   1 O :    0.000311
   2 H :   -0.007471
   3 H :   -0.000187
   4 H :   -0.000328
   5 H :   -0.004451
   6 C :   -0.151301
   7 O :   -0.459945
   8 H :    0.317696
   9 H :    0.093444
  10 H :    0.098123
  11 H :    0.112332
Sum of atomic charges:    0.0000000

LOEWDIN ATOMIC CHARGES
----------------------
   0 C :   -0.003453
   1 O :   -0.002421
   2 H :   -0.019187
   3 H :   -0.000034
   4 H :   -0.000041
   5 H :   -0.002073
   6 C :   -0.408230
   7 O :   -0.031974
   8 H :    0.178693
   9 H :    0.098224
  10 H :    0.084222
  11 H :    0.106273

  Mayer bond orders larger than 0.1
B(  6-C ,  7-O ) :   1.0054 B(  6-C ,  9-H ) :   0.9834 B(  6-C , 10-H ) :   0.9721
B(  6-C , 11-H ) :   0.9797 B(  7-O ,  8-H ) :   0.8941

Dispersion correction           -0.000225957
FINAL SINGLE POINT ENERGY      -115.733442219791

DIPOLE MOMENT
-------------
                                X             Y             Z
Electronic contribution:     -0.14081      -0.13384       1.82869
Nuclear contribution   :     -0.09474      -0.32641      -2.25962
                        -----------------------------------------
Total Dipole Moment    :     -0.23555      -0.46025      -0.43093
                        -----------------------------------------
Magnitude (a.u.)       :      0.67306
Magnitude (Debye)      :      1.71078

Rotational constants in cm-1:     4.443858     0.869568     0.830172
Rotational constants in MHz : 133223.523385 26068.979612 24887.926232

                             ****ORCA TERMINATED NORMALLY****
TOTAL RUN TIME: 0 days 0 hours 1 minutes 8 seconds 429 msec
