                         Program Version 4.1.2  - RELEASE  -
|  1> #Run DFT-D3 single point of the dimer
|  2> ! wB97X-D3 def2-TZVP TIGHTSCF CHELPG PMODEL PAL8
|  3>
|  4> %base "14-120_DFT_AB"
|  5>
|  6> %scf
|  7> MaxIter 1000
|  8> end
|  9>
| 10> * xyz 0 1
| 11>   C                      -3.307224            -8.265760            -8.116430
| 12>   O                      -2.245746            -8.230731            -7.104452
| 13>   H                      -2.675553            -8.615451            -6.387941
| 14>   H                      -3.365377            -9.278434            -8.597574
| 15>   H                      -4.354667            -8.109546            -7.761746
| 16>   H                      -3.089242            -7.494867            -8.978860
| 17>   C                      1.012450             -8.087145            -8.966099
| 18>   O                      0.468687             -7.235408            -8.032488
| 19>   H                      -0.158623            -7.797549            -7.577769
| 20>   H                      0.352099             -8.187709            -9.837773
| 21>   H                      1.985978             -7.762888            -9.296149
| 22>   H                      1.128138             -9.072692            -8.465791
| 23> *
| 24>
| 25> #Run DFT-D3 single point of the molecule with dimer basis set
| 26> $new_job
| 27> %base "14-120_DFT_A"
| 28> ! wB97X-D3 def2-TZVP TIGHTSCF CHELPG PMODEL
| 29>
| 30> %scf
| 31> MaxIter 1000
| 32> end
| 33>
| 34> * xyz 0 1
| 35>   C                      -3.307224            -8.265760            -8.116430
| 36>   O                      -2.245746            -8.230731            -7.104452
| 37>   H                      -2.675553            -8.615451            -6.387941
| 38>   H                      -3.365377            -9.278434            -8.597574
| 39>   H                      -4.354667            -8.109546            -7.761746
| 40>   H                      -3.089242            -7.494867            -8.978860
| 41>   C                    : 1.012450             -8.087145            -8.966099
| 42>   O                    : 0.468687             -7.235408            -8.032488
| 43>   H                    : -0.158623            -7.797549            -7.577769
| 44>   H                    : 0.352099             -8.187709            -9.837773
| 45>   H                    : 1.985978             -7.762888            -9.296149
| 46>   H                    : 1.128138             -9.072692            -8.465791
| 47> *
| 48>
| 49> #Run DFT-D3 single point of the particle with dimer basis set
| 50> $new_job
| 51> %base "14-120_DFT_B"
| 52> ! wB97X-D3 def2-TZVP TIGHTSCF CHELPG PMODEL
| 53>
| 54> %scf
| 55> MaxIter 1000
| 56> end
| 57>
| 58> * xyz 0 1
| 59>   C                    : -3.307224            -8.265760            -8.116430
| 60>   O                    : -2.245746            -8.230731            -7.104452
| 61>   H                    : -2.675553            -8.615451            -6.387941
| 62>   H                    : -3.365377            -9.278434            -8.597574
| 63>   H                    : -4.354667            -8.109546            -7.761746
| 64>   H                    : -3.089242            -7.494867            -8.978860
| 65>   C                      1.012450             -8.087145            -8.966099
| 66>   O                      0.468687             -7.235408            -8.032488
| 67>   H                      -0.158623            -7.797549            -7.577769
| 68>   H                      0.352099             -8.187709            -9.837773
| 69>   H                      1.985978             -7.762888            -9.296149
| 70>   H                      1.128138             -9.072692            -8.465791
| 71> *
| 72>
| 73>                          ****END OF INPUT****
 Total Charge           Charge          ....    0
 Multiplicity           Mult            ....    1
 Number of Electrons    NEL             ....   36
Dispersion correction           -0.001659750
FINAL SINGLE POINT ENERGY      -231.465307538080
Dispersion correction           -0.000281296
FINAL SINGLE POINT ENERGY      -115.725623310550

CARTESIAN COORDINATES (ANGSTROEM)
---------------------------------
  C     -3.307224   -8.265760   -8.116430
  O     -2.245746   -8.230731   -7.104452
  H     -2.675553   -8.615451   -6.387941
  H     -3.365377   -9.278434   -8.597574
  H     -4.354667   -8.109546   -7.761746
  H     -3.089242   -7.494867   -8.978860
  C      1.012450   -8.087145   -8.966099
  O      0.468687   -7.235408   -8.032488
  H     -0.158623   -7.797549   -7.577769
  H      0.352099   -8.187709   -9.837773
  H      1.985978   -7.762888   -9.296149
  H      1.128138   -9.072692   -8.465791

 Multiplicity           Mult            ....    1
 Number of Electrons    NEL             ....   18
 Basis Dimension        Dim             ....  172

ORBITAL ENERGIES
----------------

  NO   OCC          E(Eh)            E(eV)
   0   2.0000     -19.230227      -523.2811
   1   2.0000     -10.310994      -280.5764
   2   2.0000      -1.153799       -31.3965
   3   2.0000      -0.790053       -21.4984
   4   2.0000      -0.616510       -16.7761
   5   2.0000      -0.549685       -14.9577
   6   2.0000      -0.536944       -14.6110
   7   2.0000      -0.433620       -11.7994
   8   2.0000      -0.371351       -10.1050
   9   0.0000       0.071059         1.9336
  10   0.0000       0.127271         3.4632
  11   0.0000       0.146545         3.9877
  12   0.0000       0.171347         4.6626
  13   0.0000       0.196156         5.3377

MULLIKEN ATOMIC CHARGES
-----------------------
   0 C :   -0.002203
   1 O :   -0.002012
   2 H :   -0.000217
   3 H :    0.000065
   4 H :   -0.000085
   5 H :   -0.000697
   6 C :   -0.156619
   7 O :   -0.450859
   8 H :    0.314422
   9 H :    0.094069
  10 H :    0.111643
  11 H :    0.092492
Sum of atomic charges:   -0.0000000

LOEWDIN ATOMIC CHARGES
----------------------
   0 C :   -0.002523
   1 O :   -0.011522
   2 H :   -0.000614
   3 H :   -0.000037
   4 H :   -0.000054
   5 H :   -0.000517
   6 C :   -0.413574
   7 O :   -0.041301
   8 H :    0.177044
   9 H :    0.093296
  10 H :    0.101114
  11 H :    0.098689

  Mayer bond orders larger than 0.1
B(  6-C ,  7-O ) :   1.0075 B(  6-C ,  9-H ) :   0.9707 B(  6-C , 10-H ) :   0.9748
B(  6-C , 11-H ) :   0.9954 B(  7-O ,  8-H ) :   0.9040

Dispersion correction           -0.000202183
FINAL SINGLE POINT ENERGY      -115.733148778071

DIPOLE MOMENT
-------------
                                X             Y             Z
Electronic contribution:     -0.57357       1.32297       1.12765
Nuclear contribution   :      0.40651      -1.97675      -1.17943
                        -----------------------------------------
Total Dipole Moment    :     -0.16706      -0.65378      -0.05179
                        -----------------------------------------
Magnitude (a.u.)       :      0.67677
Magnitude (Debye)      :      1.72022

Rotational constants in cm-1:     4.204114     0.880673     0.847868
Rotational constants in MHz : 126036.159692 26401.919588 25418.431626

                             ****ORCA TERMINATED NORMALLY****
TOTAL RUN TIME: 0 days 0 hours 1 minutes 8 seconds 113 msec
