                         Program Version 4.1.2  - RELEASE  -
|  1> #Run DFT-D3 single point of the dimer
|  2> ! wB97X-D3 def2-TZVP TIGHTSCF CHELPG PMODEL PAL8
|  3>
|  4> %base "8-9_DFT_AB"
|  5>
|  6> %scf
|  7> MaxIter 1000
|  8> end
|  9>
| 10> * xyz 0 1
| 11>   C                      3.233414             -3.571402            3.480505
| 12>   O                      2.255676             -2.570167            3.219103
| 13>   H                      1.566001             -2.787145            3.844910
| 14>   H                      2.766447             -4.558397            3.518261
| 15>   H                      4.083400             -3.498807            2.869667
| 16>   H                      3.649298             -3.340378            4.517966
| 17>   C                      1.148353             -5.134750            1.359061
| 18>   O                      0.677754             -3.844119            1.665310
| 19>   H                      1.365600             -3.185171            1.347727
| 20>   H                      2.072571             -5.434069            1.815294
| 21>   H                      0.388310             -5.865048            1.713499
| 22>   H                      1.217598             -5.345474            0.267756
| 23> *
| 24>
| 25> #Run DFT-D3 single point of the molecule with dimer basis set
| 26> $new_job
| 27> %base "8-9_DFT_A"
| 28> ! wB97X-D3 def2-TZVP TIGHTSCF CHELPG PMODEL
| 29>
| 30> %scf
| 31> MaxIter 1000
| 32> end
| 33>
| 34> * xyz 0 1
| 35>   C                      3.233414             -3.571402            3.480505
| 36>   O                      2.255676             -2.570167            3.219103
| 37>   H                      1.566001             -2.787145            3.844910
| 38>   H                      2.766447             -4.558397            3.518261
| 39>   H                      4.083400             -3.498807            2.869667
| 40>   H                      3.649298             -3.340378            4.517966
| 41>   C                    : 1.148353             -5.134750            1.359061
| 42>   O                    : 0.677754             -3.844119            1.665310
| 43>   H                    : 1.365600             -3.185171            1.347727
| 44>   H                    : 2.072571             -5.434069            1.815294
| 45>   H                    : 0.388310             -5.865048            1.713499
| 46>   H                    : 1.217598             -5.345474            0.267756
| 47> *
| 48>
| 49> #Run DFT-D3 single point of the particle with dimer basis set
| 50> $new_job
| 51> %base "8-9_DFT_B"
| 52> ! wB97X-D3 def2-TZVP TIGHTSCF CHELPG PMODEL
| 53>
| 54> %scf
| 55> MaxIter 1000
| 56> end
| 57>
| 58> * xyz 0 1
| 59>   C                    : 3.233414             -3.571402            3.480505
| 60>   O                    : 2.255676             -2.570167            3.219103
| 61>   H                    : 1.566001             -2.787145            3.844910
| 62>   H                    : 2.766447             -4.558397            3.518261
| 63>   H                    : 4.083400             -3.498807            2.869667
| 64>   H                    : 3.649298             -3.340378            4.517966
| 65>   C                      1.148353             -5.134750            1.359061
| 66>   O                      0.677754             -3.844119            1.665310
| 67>   H                      1.365600             -3.185171            1.347727
| 68>   H                      2.072571             -5.434069            1.815294
| 69>   H                      0.388310             -5.865048            1.713499
| 70>   H                      1.217598             -5.345474            0.267756
| 71> *
| 72>
| 73>                          ****END OF INPUT****
 Total Charge           Charge          ....    0
 Multiplicity           Mult            ....    1
 Number of Electrons    NEL             ....   36
Dispersion correction           -0.002330667
FINAL SINGLE POINT ENERGY      -231.463440400908
Dispersion correction           -0.000215901
FINAL SINGLE POINT ENERGY      -115.731192211727

CARTESIAN COORDINATES (ANGSTROEM)
---------------------------------
  C      3.233414   -3.571402    3.480505
  O      2.255676   -2.570167    3.219103
  H      1.566001   -2.787145    3.844910
  H      2.766447   -4.558397    3.518261
  H      4.083400   -3.498807    2.869667
  H      3.649298   -3.340378    4.517966
  C      1.148353   -5.134750    1.359061
  O      0.677754   -3.844119    1.665310
  H      1.365600   -3.185171    1.347727
  H      2.072571   -5.434069    1.815294
  H      0.388310   -5.865048    1.713499
  H      1.217598   -5.345474    0.267756

 Multiplicity           Mult            ....    1
 Number of Electrons    NEL             ....   18
 Basis Dimension        Dim             ....  172

ORBITAL ENERGIES
----------------

  NO   OCC          E(Eh)            E(eV)
   0   2.0000     -19.240011      -523.5473
   1   2.0000     -10.313481      -280.6441
   2   2.0000      -1.133176       -30.8353
   3   2.0000      -0.792388       -21.5620
   4   2.0000      -0.610207       -16.6046
   5   2.0000      -0.541331       -14.7304
   6   2.0000      -0.523561       -14.2468
   7   2.0000      -0.431822       -11.7505
   8   2.0000      -0.376763       -10.2522
   9   0.0000       0.082556         2.2465
  10   0.0000       0.133576         3.6348
  11   0.0000       0.146481         3.9860
  12   0.0000       0.175267         4.7693
  13   0.0000       0.198105         5.3907

MULLIKEN ATOMIC CHARGES
-----------------------
   0 C :   -0.009458
   1 O :   -0.007737
   2 H :   -0.004247
   3 H :    0.005255
   4 H :    0.000562
   5 H :   -0.000133
   6 C :   -0.181580
   7 O :   -0.450775
   8 H :    0.319460
   9 H :    0.102732
  10 H :    0.118982
  11 H :    0.106940
Sum of atomic charges:   -0.0000000

LOEWDIN ATOMIC CHARGES
----------------------
   0 C :   -0.018794
   1 O :   -0.026598
   2 H :   -0.009646
   3 H :   -0.008031
   4 H :   -0.000464
   5 H :   -0.000174
   6 C :   -0.395502
   7 O :   -0.050318
   8 H :    0.202712
   9 H :    0.094685
  10 H :    0.114284
  11 H :    0.097848

  Mayer bond orders larger than 0.1
B(  6-C ,  7-O ) :   1.0180 B(  6-C ,  9-H ) :   0.9666 B(  6-C , 10-H ) :   0.9767
B(  6-C , 11-H ) :   0.9775 B(  7-O ,  8-H ) :   0.8905

Dispersion correction           -0.000260212
FINAL SINGLE POINT ENERGY      -115.734615538001

DIPOLE MOMENT
-------------
                                X             Y             Z
Electronic contribution:     -0.66148       1.71986       0.50066
Nuclear contribution   :      1.24770      -1.82747      -0.81089
                        -----------------------------------------
Total Dipole Moment    :      0.58622      -0.10760      -0.31022
                        -----------------------------------------
Magnitude (a.u.)       :      0.67192
Magnitude (Debye)      :      1.70788

Rotational constants in cm-1:     4.284000     0.826012     0.795883
Rotational constants in MHz : 128431.100120 24763.215473 23859.969349

                             ****ORCA TERMINATED NORMALLY****
TOTAL RUN TIME: 0 days 0 hours 0 minutes 49 seconds 182 msec
