                         Program Version 4.1.2  - RELEASE  -
|  1> #Run DFT-D3 single point of the dimer
|  2> ! wB97X-D3 def2-TZVP TIGHTSCF CHELPG PMODEL PAL8
|  3>
|  4> %base "13-213_DFT_AB"
|  5>
|  6> %scf
|  7> MaxIter 1000
|  8> end
|  9>
| 10> * xyz 0 1
| 11>   C                      4.697885             2.676830             -3.820010
| 12>   O                      3.845238             1.593184             -3.666598
| 13>   H                      3.877542             1.067309             -4.520169
| 14>   H                      4.446421             3.201020             -4.783931
| 15>   H                      4.667096             3.453700             -3.069882
| 16>   H                      5.759132             2.426030             -3.948488
| 17>   C                      0.922069             2.397543             -2.403654
| 18>   O                      1.090850             1.893788             -3.723139
| 19>   H                      2.030726             1.818473             -3.731177
| 20>   H                      -0.032940            3.018168             -2.168044
| 21>   H                      1.074150             1.541091             -1.683846
| 22>   H                      1.780223             3.123276             -2.281301
| 23> *
| 24>
| 25> #Run DFT-D3 single point of the molecule with dimer basis set
| 26> $new_job
| 27> %base "13-213_DFT_A"
| 28> ! wB97X-D3 def2-TZVP TIGHTSCF CHELPG PMODEL
| 29>
| 30> %scf
| 31> MaxIter 1000
| 32> end
| 33>
| 34> * xyz 0 1
| 35>   C                      4.697885             2.676830             -3.820010
| 36>   O                      3.845238             1.593184             -3.666598
| 37>   H                      3.877542             1.067309             -4.520169
| 38>   H                      4.446421             3.201020             -4.783931
| 39>   H                      4.667096             3.453700             -3.069882
| 40>   H                      5.759132             2.426030             -3.948488
| 41>   C                    : 0.922069             2.397543             -2.403654
| 42>   O                    : 1.090850             1.893788             -3.723139
| 43>   H                    : 2.030726             1.818473             -3.731177
| 44>   H                    : -0.032940            3.018168             -2.168044
| 45>   H                    : 1.074150             1.541091             -1.683846
| 46>   H                    : 1.780223             3.123276             -2.281301
| 47> *
| 48>
| 49> #Run DFT-D3 single point of the particle with dimer basis set
| 50> $new_job
| 51> %base "13-213_DFT_B"
| 52> ! wB97X-D3 def2-TZVP TIGHTSCF CHELPG PMODEL
| 53>
| 54> %scf
| 55> MaxIter 1000
| 56> end
| 57>
| 58> * xyz 0 1
| 59>   C                    : 4.697885             2.676830             -3.820010
| 60>   O                    : 3.845238             1.593184             -3.666598
| 61>   H                    : 3.877542             1.067309             -4.520169
| 62>   H                    : 4.446421             3.201020             -4.783931
| 63>   H                    : 4.667096             3.453700             -3.069882
| 64>   H                    : 5.759132             2.426030             -3.948488
| 65>   C                      0.922069             2.397543             -2.403654
| 66>   O                      1.090850             1.893788             -3.723139
| 67>   H                      2.030726             1.818473             -3.731177
| 68>   H                      -0.032940            3.018168             -2.168044
| 69>   H                      1.074150             1.541091             -1.683846
| 70>   H                      1.780223             3.123276             -2.281301
| 71> *
| 72>
| 73>                          ****END OF INPUT****
 Total Charge           Charge          ....    0
 Multiplicity           Mult            ....    1
 Number of Electrons    NEL             ....   36
Dispersion correction           -0.002013022
FINAL SINGLE POINT ENERGY      -231.463080655924
Dispersion correction           -0.000238572
FINAL SINGLE POINT ENERGY      -115.730780902664

CARTESIAN COORDINATES (ANGSTROEM)
---------------------------------
  C      4.697885    2.676830   -3.820010
  O      3.845238    1.593184   -3.666598
  H      3.877542    1.067309   -4.520169
  H      4.446421    3.201020   -4.783931
  H      4.667096    3.453700   -3.069882
  H      5.759132    2.426030   -3.948488
  C      0.922069    2.397543   -2.403654
  O      1.090850    1.893788   -3.723139
  H      2.030726    1.818473   -3.731177
  H     -0.032940    3.018168   -2.168044
  H      1.074150    1.541091   -1.683846
  H      1.780223    3.123276   -2.281301

 Multiplicity           Mult            ....    1
 Number of Electrons    NEL             ....   18
 Basis Dimension        Dim             ....  172

ORBITAL ENERGIES
----------------

  NO   OCC          E(Eh)            E(eV)
   0   2.0000     -19.231647      -523.3197
   1   2.0000     -10.330905      -281.1182
   2   2.0000      -1.145881       -31.1810
   3   2.0000      -0.781338       -21.2613
   4   2.0000      -0.607742       -16.5375
   5   2.0000      -0.543512       -14.7897
   6   2.0000      -0.526232       -14.3195
   7   2.0000      -0.433478       -11.7955
   8   2.0000      -0.373432       -10.1616
   9   0.0000       0.067592         1.8393
  10   0.0000       0.133639         3.6365
  11   0.0000       0.141777         3.8580
  12   0.0000       0.165367         4.4999
  13   0.0000       0.190381         5.1805

MULLIKEN ATOMIC CHARGES
-----------------------
   0 C :   -0.001836
   1 O :   -0.004479
   2 H :   -0.000698
   3 H :    0.000097
   4 H :   -0.000352
   5 H :   -0.000052
   6 C :   -0.191865
   7 O :   -0.448387
   8 H :    0.312494
   9 H :    0.128043
  10 H :    0.107628
  11 H :    0.099406
Sum of atomic charges:   -0.0000000

LOEWDIN ATOMIC CHARGES
----------------------
   0 C :   -0.005277
   1 O :   -0.024665
   2 H :   -0.003203
   3 H :   -0.000352
   4 H :   -0.000683
   5 H :   -0.000093
   6 C :   -0.397310
   7 O :   -0.063981
   8 H :    0.172907
   9 H :    0.119663
  10 H :    0.101599
  11 H :    0.101396

  Mayer bond orders larger than 0.1
B(  6-C ,  7-O ) :   0.9826 B(  6-C ,  9-H ) :   0.9623 B(  6-C , 10-H ) :   0.9737
B(  6-C , 11-H ) :   0.9891 B(  7-O ,  8-H ) :   0.9154

Dispersion correction           -0.000228027
FINAL SINGLE POINT ENERGY      -115.724108845651

DIPOLE MOMENT
-------------
                                X             Y             Z
Electronic contribution:     -0.12314      -0.70485      -1.76949
Nuclear contribution   :      0.63898       0.86711       2.25794
                        -----------------------------------------
Total Dipole Moment    :      0.51584       0.16226       0.48845
                        -----------------------------------------
Magnitude (a.u.)       :      0.72870
Magnitude (Debye)      :      1.85221

Rotational constants in cm-1:     3.989532     0.826052     0.798075
Rotational constants in MHz : 119603.169848 24764.420173 23925.679005

                             ****ORCA TERMINATED NORMALLY****
TOTAL RUN TIME: 0 days 0 hours 1 minutes 10 seconds 941 msec
