                         Program Version 4.1.2  - RELEASE  -
|  1> #Run DFT-D3 single point of the dimer
|  2> ! wB97X-D3 def2-TZVP TIGHTSCF CHELPG PMODEL PAL8
|  3>
|  4> %base "3-66_DFT_AB"
|  5>
|  6> %scf
|  7> MaxIter 1000
|  8> end
|  9>
| 10> * xyz 0 1
| 11>   C                      -8.550756            3.122368             3.230009
| 12>   O                      -8.562572            2.964860             1.793958
| 13>   H                      -8.190921            3.761981             1.375839
| 14>   H                      -9.274297            2.452273             3.762807
| 15>   H                      -7.574168            2.767367             3.602449
| 16>   H                      -8.847867            4.108928             3.617314
| 17>   C                      -6.109098            5.798957             -1.356587
| 18>   O                      -5.839941            5.208146             -0.056839
| 19>   H                      -5.876347            4.282277             -0.112974
| 20>   H                      -5.253015            5.539223             -2.030722
| 21>   H                      -7.153177            5.459560             -1.803829
| 22>   H                      -6.228646            6.942563             -1.342165
| 23> *
| 24>
| 25> #Run DFT-D3 single point of the molecule with dimer basis set
| 26> $new_job
| 27> %base "3-66_DFT_A"
| 28> ! wB97X-D3 def2-TZVP TIGHTSCF CHELPG PMODEL
| 29>
| 30> %scf
| 31> MaxIter 1000
| 32> end
| 33>
| 34> * xyz 0 1
| 35>   C                      -8.550756            3.122368             3.230009
| 36>   O                      -8.562572            2.964860             1.793958
| 37>   H                      -8.190921            3.761981             1.375839
| 38>   H                      -9.274297            2.452273             3.762807
| 39>   H                      -7.574168            2.767367             3.602449
| 40>   H                      -8.847867            4.108928             3.617314
| 41>   C                    : -6.109098            5.798957             -1.356587
| 42>   O                    : -5.839941            5.208146             -0.056839
| 43>   H                    : -5.876347            4.282277             -0.112974
| 44>   H                    : -5.253015            5.539223             -2.030722
| 45>   H                    : -7.153177            5.459560             -1.803829
| 46>   H                    : -6.228646            6.942563             -1.342165
| 47> *
| 48>
| 49> #Run DFT-D3 single point of the particle with dimer basis set
| 50> $new_job
| 51> %base "3-66_DFT_B"
| 52> ! wB97X-D3 def2-TZVP TIGHTSCF CHELPG PMODEL
| 53>
| 54> %scf
| 55> MaxIter 1000
| 56> end
| 57>
| 58> * xyz 0 1
| 59>   C                    : -8.550756            3.122368             3.230009
| 60>   O                    : -8.562572            2.964860             1.793958
| 61>   H                    : -8.190921            3.761981             1.375839
| 62>   H                    : -9.274297            2.452273             3.762807
| 63>   H                    : -7.574168            2.767367             3.602449
| 64>   H                    : -8.847867            4.108928             3.617314
| 65>   C                      -6.109098            5.798957             -1.356587
| 66>   O                      -5.839941            5.208146             -0.056839
| 67>   H                      -5.876347            4.282277             -0.112974
| 68>   H                      -5.253015            5.539223             -2.030722
| 69>   H                      -7.153177            5.459560             -1.803829
| 70>   H                      -6.228646            6.942563             -1.342165
| 71> *
| 72>
| 73>                          ****END OF INPUT****
 Total Charge           Charge          ....    0
 Multiplicity           Mult            ....    1
 Number of Electrons    NEL             ....   36
Dispersion correction           -0.001171608
FINAL SINGLE POINT ENERGY      -231.459863548865
Dispersion correction           -0.000281362
FINAL SINGLE POINT ENERGY      -115.731388450194

CARTESIAN COORDINATES (ANGSTROEM)
---------------------------------
  C     -8.550756    3.122368    3.230009
  O     -8.562572    2.964860    1.793958
  H     -8.190921    3.761981    1.375839
  H     -9.274297    2.452273    3.762807
  H     -7.574168    2.767367    3.602449
  H     -8.847867    4.108928    3.617314
  C     -6.109098    5.798957   -1.356587
  O     -5.839941    5.208146   -0.056839
  H     -5.876347    4.282277   -0.112974
  H     -5.253015    5.539223   -2.030722
  H     -7.153177    5.459560   -1.803829
  H     -6.228646    6.942563   -1.342165

 Multiplicity           Mult            ....    1
 Number of Electrons    NEL             ....   18
 Basis Dimension        Dim             ....  172

ORBITAL ENERGIES
----------------

  NO   OCC          E(Eh)            E(eV)
   0   2.0000     -19.229907      -523.2724
   1   2.0000     -10.337139      -281.2879
   2   2.0000      -1.132327       -30.8122
   3   2.0000      -0.789212       -21.4755
   4   2.0000      -0.603294       -16.4165
   5   2.0000      -0.538659       -14.6576
   6   2.0000      -0.517975       -14.0948
   7   2.0000      -0.426200       -11.5975
   8   2.0000      -0.377046       -10.2600
   9   0.0000       0.087714         2.3868
  10   0.0000       0.118704         3.2301
  11   0.0000       0.143464         3.9039
  12   0.0000       0.177470         4.8292
  13   0.0000       0.193777         5.2729

MULLIKEN ATOMIC CHARGES
-----------------------
   0 C :    0.000722
   1 O :    0.000856
   2 H :   -0.007837
   3 H :   -0.000014
   4 H :   -0.000075
   5 H :   -0.000022
   6 C :   -0.185436
   7 O :   -0.469271
   8 H :    0.313018
   9 H :    0.118206
  10 H :    0.101623
  11 H :    0.128230
Sum of atomic charges:    0.0000000

LOEWDIN ATOMIC CHARGES
----------------------
   0 C :   -0.000130
   1 O :   -0.000211
   2 H :   -0.005041
   3 H :   -0.000003
   4 H :   -0.000007
   5 H :   -0.000005
   6 C :   -0.378062
   7 O :   -0.087639
   8 H :    0.144227
   9 H :    0.100948
  10 H :    0.107762
  11 H :    0.118159

  Mayer bond orders larger than 0.1
B(  6-C ,  7-O ) :   0.9917 B(  6-C ,  9-H ) :   0.9736 B(  6-C , 10-H ) :   0.9675
B(  6-C , 11-H ) :   0.9676 B(  7-O ,  8-H ) :   0.9025

Dispersion correction           -0.000291425
FINAL SINGLE POINT ENERGY      -115.725993360782

DIPOLE MOMENT
-------------
                                X             Y             Z
Electronic contribution:      0.44786      -0.63757       1.74094
Nuclear contribution   :     -0.56365       0.30580      -2.31380
                        -----------------------------------------
Total Dipole Moment    :     -0.11579      -0.33177      -0.57286
                        -----------------------------------------
Magnitude (a.u.)       :      0.67205
Magnitude (Debye)      :      1.70821

Rotational constants in cm-1:     4.066700     0.773698     0.757906
Rotational constants in MHz : 121916.612738 23194.890682 22721.461484

                             ****ORCA TERMINATED NORMALLY****
TOTAL RUN TIME: 0 days 0 hours 5 minutes 59 seconds 232 msec
