                         Program Version 4.1.2  - RELEASE  -
|  1> #Run DFT-D3 single point of the dimer
|  2> ! wB97X-D3 def2-TZVP TIGHTSCF CHELPG PMODEL PAL8
|  3>
|  4> %base "1-46_DFT_AB"
|  5>
|  6> %scf
|  7> MaxIter 1000
|  8> end
|  9>
| 10> * xyz 0 1
| 11>   C                      -5.018804            -11.394211           4.335101
| 12>   O                      -4.125954            -10.858784           5.383765
| 13>   H                      -3.702437            -10.083851           5.035189
| 14>   H                      -5.527582            -10.505104           3.828122
| 15>   H                      -4.441818            -11.900742           3.519998
| 16>   H                      -5.719270            -12.198359           4.600835
| 17>   C                      -2.564663            -10.829491           0.819036
| 18>   O                      -1.332082            -11.025152           1.444712
| 19>   H                      -1.579110            -11.609815           2.161669
| 20>   H                      -2.334350            -10.176657           -0.055430
| 21>   H                      -2.996839            -11.752730           0.453297
| 22>   H                      -3.253794            -10.236978           1.399588
| 23> *
| 24>
| 25> #Run DFT-D3 single point of the molecule with dimer basis set
| 26> $new_job
| 27> %base "1-46_DFT_A"
| 28> ! wB97X-D3 def2-TZVP TIGHTSCF CHELPG PMODEL
| 29>
| 30> %scf
| 31> MaxIter 1000
| 32> end
| 33>
| 34> * xyz 0 1
| 35>   C                      -5.018804            -11.394211           4.335101
| 36>   O                      -4.125954            -10.858784           5.383765
| 37>   H                      -3.702437            -10.083851           5.035189
| 38>   H                      -5.527582            -10.505104           3.828122
| 39>   H                      -4.441818            -11.900742           3.519998
| 40>   H                      -5.719270            -12.198359           4.600835
| 41>   C                    : -2.564663            -10.829491           0.819036
| 42>   O                    : -1.332082            -11.025152           1.444712
| 43>   H                    : -1.579110            -11.609815           2.161669
| 44>   H                    : -2.334350            -10.176657           -0.055430
| 45>   H                    : -2.996839            -11.752730           0.453297
| 46>   H                    : -3.253794            -10.236978           1.399588
| 47> *
| 48>
| 49> #Run DFT-D3 single point of the particle with dimer basis set
| 50> $new_job
| 51> %base "1-46_DFT_B"
| 52> ! wB97X-D3 def2-TZVP TIGHTSCF CHELPG PMODEL
| 53>
| 54> %scf
| 55> MaxIter 1000
| 56> end
| 57>
| 58> * xyz 0 1
| 59>   C                    : -5.018804            -11.394211           4.335101
| 60>   O                    : -4.125954            -10.858784           5.383765
| 61>   H                    : -3.702437            -10.083851           5.035189
| 62>   H                    : -5.527582            -10.505104           3.828122
| 63>   H                    : -4.441818            -11.900742           3.519998
| 64>   H                    : -5.719270            -12.198359           4.600835
| 65>   C                      -2.564663            -10.829491           0.819036
| 66>   O                      -1.332082            -11.025152           1.444712
| 67>   H                      -1.579110            -11.609815           2.161669
| 68>   H                      -2.334350            -10.176657           -0.055430
| 69>   H                      -2.996839            -11.752730           0.453297
| 70>   H                      -3.253794            -10.236978           1.399588
| 71> *
| 72>
| 73>                          ****END OF INPUT****
 Total Charge           Charge          ....    0
 Multiplicity           Mult            ....    1
 Number of Electrons    NEL             ....   36
Dispersion correction           -0.001418307
FINAL SINGLE POINT ENERGY      -231.460960233330
Dispersion correction           -0.000282966
FINAL SINGLE POINT ENERGY      -115.726235019231

CARTESIAN COORDINATES (ANGSTROEM)
---------------------------------
  C     -5.018804  -11.394211    4.335101
  O     -4.125954  -10.858784    5.383765
  H     -3.702437  -10.083851    5.035189
  H     -5.527582  -10.505104    3.828122
  H     -4.441818  -11.900742    3.519998
  H     -5.719270  -12.198359    4.600835
  C     -2.564663  -10.829491    0.819036
  O     -1.332082  -11.025152    1.444712
  H     -1.579110  -11.609815    2.161669
  H     -2.334350  -10.176657   -0.055430
  H     -2.996839  -11.752730    0.453297
  H     -3.253794  -10.236978    1.399588

 Multiplicity           Mult            ....    1
 Number of Electrons    NEL             ....   18
 Basis Dimension        Dim             ....  172

ORBITAL ENERGIES
----------------

  NO   OCC          E(Eh)            E(eV)
   0   2.0000     -19.231824      -523.3245
   1   2.0000     -10.309884      -280.5462
   2   2.0000      -1.147461       -31.2240
   3   2.0000      -0.791925       -21.5494
   4   2.0000      -0.613184       -16.6856
   5   2.0000      -0.553763       -15.0686
   6   2.0000      -0.521228       -14.1833
   7   2.0000      -0.435201       -11.8424
   8   2.0000      -0.376949       -10.2573
   9   0.0000       0.073064         1.9882
  10   0.0000       0.125125         3.4048
  11   0.0000       0.151651         4.1266
  12   0.0000       0.157371         4.2823
  13   0.0000       0.190249         5.1769

MULLIKEN ATOMIC CHARGES
-----------------------
   0 C :    0.000026
   1 O :   -0.000027
   2 H :   -0.000049
   3 H :   -0.000513
   4 H :    0.000773
   5 H :    0.000057
   6 C :   -0.171228
   7 O :   -0.455673
   8 H :    0.309941
   9 H :    0.114497
  10 H :    0.100054
  11 H :    0.102142
Sum of atomic charges:    0.0000000

LOEWDIN ATOMIC CHARGES
----------------------
   0 C :   -0.001154
   1 O :   -0.000013
   2 H :   -0.000076
   3 H :   -0.000365
   4 H :   -0.000849
   5 H :   -0.000003
   6 C :   -0.405006
   7 O :   -0.059878
   8 H :    0.170158
   9 H :    0.114681
  10 H :    0.092251
  11 H :    0.090254

  Mayer bond orders larger than 0.1
B(  6-C ,  7-O ) :   1.0065 B(  6-C ,  9-H ) :   0.9777 B(  6-C , 10-H ) :   0.9770
B(  6-C , 11-H ) :   0.9726 B(  7-O ,  8-H ) :   0.9068

Dispersion correction           -0.000214971
FINAL SINGLE POINT ENERGY      -115.733763933712

DIPOLE MOMENT
-------------
                                X             Y             Z
Electronic contribution:      1.61656      -0.26930       0.81079
Nuclear contribution   :     -2.22295      -0.01040      -0.60794
                        -----------------------------------------
Total Dipole Moment    :     -0.60639      -0.27970       0.20285
                        -----------------------------------------
Magnitude (a.u.)       :      0.69792
Magnitude (Debye)      :      1.77397

Rotational constants in cm-1:     4.231767     0.859447     0.828595
Rotational constants in MHz : 126865.179666 25765.568490 24840.640033

                             ****ORCA TERMINATED NORMALLY****
TOTAL RUN TIME: 0 days 0 hours 6 minutes 13 seconds 702 msec
