                         Program Version 4.1.2  - RELEASE  -
|  1> #Run DFT-D3 single point of the dimer
|  2> ! wB97X-D3 def2-TZVP TIGHTSCF CHELPG PMODEL PAL8
|  3>
|  4> %base "5-184_DFT_AB"
|  5>
|  6> %scf
|  7> MaxIter 1000
|  8> end
|  9>
| 10> * xyz 0 1
| 11>   C                      -8.262717            -6.866965            7.163468
| 12>   O                      -8.631724            -5.577603            7.600791
| 13>   H                      -7.791908            -5.073595            7.527748
| 14>   H                      -8.638029            -6.983062            6.132884
| 15>   H                      -7.178443            -7.052061            7.160548
| 16>   H                      -8.698456            -7.739669            7.746829
| 17>   C                      -6.843338            -4.081302            10.158316
| 18>   O                      -5.449572            -4.255858            10.294055
| 19>   H                      -5.281210            -5.211730            10.183339
| 20>   H                      -7.158552            -3.984919            9.136355
| 21>   H                      -7.367510            -4.825075            10.778631
| 22>   H                      -7.001628            -3.127122            10.538110
| 23> *
| 24>
| 25> #Run DFT-D3 single point of the molecule with dimer basis set
| 26> $new_job
| 27> %base "5-184_DFT_A"
| 28> ! wB97X-D3 def2-TZVP TIGHTSCF CHELPG PMODEL
| 29>
| 30> %scf
| 31> MaxIter 1000
| 32> end
| 33>
| 34> * xyz 0 1
| 35>   C                      -8.262717            -6.866965            7.163468
| 36>   O                      -8.631724            -5.577603            7.600791
| 37>   H                      -7.791908            -5.073595            7.527748
| 38>   H                      -8.638029            -6.983062            6.132884
| 39>   H                      -7.178443            -7.052061            7.160548
| 40>   H                      -8.698456            -7.739669            7.746829
| 41>   C                    : -6.843338            -4.081302            10.158316
| 42>   O                    : -5.449572            -4.255858            10.294055
| 43>   H                    : -5.281210            -5.211730            10.183339
| 44>   H                    : -7.158552            -3.984919            9.136355
| 45>   H                    : -7.367510            -4.825075            10.778631
| 46>   H                    : -7.001628            -3.127122            10.538110
| 47> *
| 48>
| 49> #Run DFT-D3 single point of the particle with dimer basis set
| 50> $new_job
| 51> %base "5-184_DFT_B"
| 52> ! wB97X-D3 def2-TZVP TIGHTSCF CHELPG PMODEL
| 53>
| 54> %scf
| 55> MaxIter 1000
| 56> end
| 57>
| 58> * xyz 0 1
| 59>   C                    : -8.262717            -6.866965            7.163468
| 60>   O                    : -8.631724            -5.577603            7.600791
| 61>   H                    : -7.791908            -5.073595            7.527748
| 62>   H                    : -8.638029            -6.983062            6.132884
| 63>   H                    : -7.178443            -7.052061            7.160548
| 64>   H                    : -8.698456            -7.739669            7.746829
| 65>   C                      -6.843338            -4.081302            10.158316
| 66>   O                      -5.449572            -4.255858            10.294055
| 67>   H                      -5.281210            -5.211730            10.183339
| 68>   H                      -7.158552            -3.984919            9.136355
| 69>   H                      -7.367510            -4.825075            10.778631
| 70>   H                      -7.001628            -3.127122            10.538110
| 71> *
| 72>
| 73>                          ****END OF INPUT****
 Total Charge           Charge          ....    0
 Multiplicity           Mult            ....    1
 Number of Electrons    NEL             ....   36
Dispersion correction           -0.001582193
FINAL SINGLE POINT ENERGY      -231.462961588174
Dispersion correction           -0.000250454
FINAL SINGLE POINT ENERGY      -115.731701496417

CARTESIAN COORDINATES (ANGSTROEM)
---------------------------------
  C     -8.262717   -6.866965    7.163468
  O     -8.631724   -5.577603    7.600791
  H     -7.791908   -5.073595    7.527748
  H     -8.638029   -6.983062    6.132884
  H     -7.178443   -7.052061    7.160548
  H     -8.698456   -7.739669    7.746829
  C     -6.843338   -4.081302   10.158316
  O     -5.449572   -4.255858   10.294055
  H     -5.281210   -5.211730   10.183339
  H     -7.158552   -3.984919    9.136355
  H     -7.367510   -4.825075   10.778631
  H     -7.001628   -3.127122   10.538110

 Multiplicity           Mult            ....    1
 Number of Electrons    NEL             ....   18
 Basis Dimension        Dim             ....  172

ORBITAL ENERGIES
----------------

  NO   OCC          E(Eh)            E(eV)
   0   2.0000     -19.228642      -523.2380
   1   2.0000     -10.303606      -280.3754
   2   2.0000      -1.133536       -30.8451
   3   2.0000      -0.798353       -21.7243
   4   2.0000      -0.605020       -16.4634
   5   2.0000      -0.552761       -15.0414
   6   2.0000      -0.525035       -14.2869
   7   2.0000      -0.433421       -11.7940
   8   2.0000      -0.373347       -10.1593
   9   0.0000       0.080421         2.1884
  10   0.0000       0.119246         3.2449
  11   0.0000       0.151232         4.1152
  12   0.0000       0.173538         4.7222
  13   0.0000       0.196735         5.3534

MULLIKEN ATOMIC CHARGES
-----------------------
   0 C :   -0.000557
   1 O :   -0.001491
   2 H :    0.001770
   3 H :    0.000090
   4 H :    0.000034
   5 H :   -0.000032
   6 C :   -0.156120
   7 O :   -0.473597
   8 H :    0.311128
   9 H :    0.101030
  10 H :    0.100660
  11 H :    0.117084
Sum of atomic charges:    0.0000000

LOEWDIN ATOMIC CHARGES
----------------------
   0 C :   -0.000549
   1 O :   -0.003479
   2 H :   -0.010274
   3 H :   -0.000003
   4 H :   -0.000050
   5 H :   -0.000016
   6 C :   -0.377452
   7 O :   -0.082301
   8 H :    0.176670
   9 H :    0.098254
  10 H :    0.101097
  11 H :    0.098102

  Mayer bond orders larger than 0.1
B(  6-C ,  7-O ) :   1.0107 B(  6-C ,  9-H ) :   0.9711 B(  6-C , 10-H ) :   0.9844
B(  6-C , 11-H ) :   0.9788 B(  7-O ,  8-H ) :   0.9021

Dispersion correction           -0.000225448
FINAL SINGLE POINT ENERGY      -115.731473716563

DIPOLE MOMENT
-------------
                                X             Y             Z
Electronic contribution:      1.69398      -0.14251       0.14205
Nuclear contribution   :     -2.13863      -0.34931      -0.25074
                        -----------------------------------------
Total Dipole Moment    :     -0.44465      -0.49183      -0.10869
                        -----------------------------------------
Magnitude (a.u.)       :      0.67188
Magnitude (Debye)      :      1.70777

Rotational constants in cm-1:     4.311873     0.847753     0.817674
Rotational constants in MHz : 129266.686109 25414.992055 24513.258085

                             ****ORCA TERMINATED NORMALLY****
TOTAL RUN TIME: 0 days 0 hours 0 minutes 53 seconds 951 msec
