                         Program Version 4.1.2  - RELEASE  -
|  1> #Run DFT-D3 single point of the dimer
|  2> ! wB97X-D3 def2-TZVP TIGHTSCF CHELPG PMODEL PAL8
|  3>
|  4> %base "10-89_DFT_AB"
|  5>
|  6> %scf
|  7> MaxIter 1000
|  8> end
|  9>
| 10> * xyz 0 1
| 11>   C                      0.325050             3.682876             4.670970
| 12>   O                      -0.846528            4.166738             4.035653
| 13>   H                      -1.548622            4.059657             4.702336
| 14>   H                      0.917244             3.089913             4.008710
| 15>   H                      1.078371             4.362851             4.962118
| 16>   H                      0.047949             3.124406             5.575140
| 17>   C                      0.385960             1.349603             7.814121
| 18>   O                      -0.814555            1.056607             8.403355
| 19>   H                      -1.465594            1.256166             7.692833
| 20>   H                      1.205564             1.115922             8.515013
| 21>   H                      0.511018             0.734252             6.885752
| 22>   H                      0.507898             2.408019             7.581483
| 23> *
| 24>
| 25> #Run DFT-D3 single point of the molecule with dimer basis set
| 26> $new_job
| 27> %base "10-89_DFT_A"
| 28> ! wB97X-D3 def2-TZVP TIGHTSCF CHELPG PMODEL
| 29>
| 30> %scf
| 31> MaxIter 1000
| 32> end
| 33>
| 34> * xyz 0 1
| 35>   C                      0.325050             3.682876             4.670970
| 36>   O                      -0.846528            4.166738             4.035653
| 37>   H                      -1.548622            4.059657             4.702336
| 38>   H                      0.917244             3.089913             4.008710
| 39>   H                      1.078371             4.362851             4.962118
| 40>   H                      0.047949             3.124406             5.575140
| 41>   C                    : 0.385960             1.349603             7.814121
| 42>   O                    : -0.814555            1.056607             8.403355
| 43>   H                    : -1.465594            1.256166             7.692833
| 44>   H                    : 1.205564             1.115922             8.515013
| 45>   H                    : 0.511018             0.734252             6.885752
| 46>   H                    : 0.507898             2.408019             7.581483
| 47> *
| 48>
| 49> #Run DFT-D3 single point of the particle with dimer basis set
| 50> $new_job
| 51> %base "10-89_DFT_B"
| 52> ! wB97X-D3 def2-TZVP TIGHTSCF CHELPG PMODEL
| 53>
| 54> %scf
| 55> MaxIter 1000
| 56> end
| 57>
| 58> * xyz 0 1
| 59>   C                    : 0.325050             3.682876             4.670970
| 60>   O                    : -0.846528            4.166738             4.035653
| 61>   H                    : -1.548622            4.059657             4.702336
| 62>   H                    : 0.917244             3.089913             4.008710
| 63>   H                    : 1.078371             4.362851             4.962118
| 64>   H                    : 0.047949             3.124406             5.575140
| 65>   C                      0.385960             1.349603             7.814121
| 66>   O                      -0.814555            1.056607             8.403355
| 67>   H                      -1.465594            1.256166             7.692833
| 68>   H                      1.205564             1.115922             8.515013
| 69>   H                      0.511018             0.734252             6.885752
| 70>   H                      0.507898             2.408019             7.581483
| 71> *
| 72>
| 73>                          ****END OF INPUT****
 Total Charge           Charge          ....    0
 Multiplicity           Mult            ....    1
 Number of Electrons    NEL             ....   36
Dispersion correction           -0.001492454
FINAL SINGLE POINT ENERGY      -231.461659845766
Dispersion correction           -0.000247701
FINAL SINGLE POINT ENERGY      -115.728511286686

CARTESIAN COORDINATES (ANGSTROEM)
---------------------------------
  C      0.325050    3.682876    4.670970
  O     -0.846528    4.166738    4.035653
  H     -1.548622    4.059657    4.702336
  H      0.917244    3.089913    4.008710
  H      1.078371    4.362851    4.962118
  H      0.047949    3.124406    5.575140
  C      0.385960    1.349603    7.814121
  O     -0.814555    1.056607    8.403355
  H     -1.465594    1.256166    7.692833
  H      1.205564    1.115922    8.515013
  H      0.511018    0.734252    6.885752
  H      0.507898    2.408019    7.581483

 Multiplicity           Mult            ....    1
 Number of Electrons    NEL             ....   18
 Basis Dimension        Dim             ....  172

ORBITAL ENERGIES
----------------

  NO   OCC          E(Eh)            E(eV)
   0   2.0000     -19.234107      -523.3867
   1   2.0000     -10.311646      -280.5942
   2   2.0000      -1.150972       -31.3195
   3   2.0000      -0.786056       -21.3897
   4   2.0000      -0.614923       -16.7329
   5   2.0000      -0.549480       -14.9521
   6   2.0000      -0.530520       -14.4362
   7   2.0000      -0.431995       -11.7552
   8   2.0000      -0.371361       -10.1052
   9   0.0000       0.076964         2.0943
  10   0.0000       0.119493         3.2516
  11   0.0000       0.148324         4.0361
  12   0.0000       0.173797         4.7293
  13   0.0000       0.181450         4.9375

MULLIKEN ATOMIC CHARGES
-----------------------
   0 C :   -0.002932
   1 O :   -0.000032
   2 H :   -0.000035
   3 H :    0.000194
   4 H :    0.000275
   5 H :    0.002112
   6 C :   -0.163575
   7 O :   -0.452659
   8 H :    0.316450
   9 H :    0.115775
  10 H :    0.088748
  11 H :    0.095679
Sum of atomic charges:    0.0000000

LOEWDIN ATOMIC CHARGES
----------------------
   0 C :   -0.003968
   1 O :   -0.000022
   2 H :   -0.000017
   3 H :   -0.000085
   4 H :   -0.000184
   5 H :   -0.007988
   6 C :   -0.427286
   7 O :   -0.051687
   8 H :    0.190160
   9 H :    0.109426
  10 H :    0.097896
  11 H :    0.093755

  Mayer bond orders larger than 0.1
B(  6-C ,  7-O ) :   1.0121 B(  6-C ,  9-H ) :   0.9706 B(  6-C , 10-H ) :   0.9822
B(  6-C , 11-H ) :   0.9732 B(  7-O ,  8-H ) :   0.8970

Dispersion correction           -0.000211844
FINAL SINGLE POINT ENERGY      -115.733595356385

DIPOLE MOMENT
-------------
                                X             Y             Z
Electronic contribution:     -1.56743      -0.41099       0.95011
Nuclear contribution   :      1.59721       0.64188      -1.57628
                        -----------------------------------------
Total Dipole Moment    :      0.02978       0.23088      -0.62617
                        -----------------------------------------
Magnitude (a.u.)       :      0.66804
Magnitude (Debye)      :      1.69803

Rotational constants in cm-1:     4.141636     0.880183     0.845086
Rotational constants in MHz : 124163.134596 26387.211984 25335.043829

                             ****ORCA TERMINATED NORMALLY****
TOTAL RUN TIME: 0 days 0 hours 0 minutes 59 seconds 896 msec
