                         Program Version 4.1.2  - RELEASE  -
|  1> #Run DFT-D3 single point of the dimer
|  2> ! wB97X-D3 def2-TZVP TIGHTSCF CHELPG PMODEL PAL8
|  3>
|  4> %base "14-106_DFT_AB"
|  5>
|  6> %scf
|  7> MaxIter 1000
|  8> end
|  9>
| 10> * xyz 0 1
| 11>   C                      -7.605909            2.443021             -5.622041
| 12>   O                      -8.394434            3.474753             -5.066151
| 13>   H                      -8.746984            3.268596             -4.163043
| 14>   H                      -6.908455            2.024404             -4.832031
| 15>   H                      -8.242513            1.688588             -6.000919
| 16>   H                      -7.027775            2.828739             -6.512241
| 17>   C                      -9.205169            6.910443             -3.179025
| 18>   O                      -8.021357            7.648472             -2.983924
| 19>   H                      -8.204361            8.311799             -2.278597
| 20>   H                      -9.929243            7.448107             -3.819191
| 21>   H                      -9.029607            5.992954             -3.755281
| 22>   H                      -9.681577            6.510457             -2.310331
| 23> *
| 24>
| 25> #Run DFT-D3 single point of the molecule with dimer basis set
| 26> $new_job
| 27> %base "14-106_DFT_A"
| 28> ! wB97X-D3 def2-TZVP TIGHTSCF CHELPG PMODEL
| 29>
| 30> %scf
| 31> MaxIter 1000
| 32> end
| 33>
| 34> * xyz 0 1
| 35>   C                      -7.605909            2.443021             -5.622041
| 36>   O                      -8.394434            3.474753             -5.066151
| 37>   H                      -8.746984            3.268596             -4.163043
| 38>   H                      -6.908455            2.024404             -4.832031
| 39>   H                      -8.242513            1.688588             -6.000919
| 40>   H                      -7.027775            2.828739             -6.512241
| 41>   C                    : -9.205169            6.910443             -3.179025
| 42>   O                    : -8.021357            7.648472             -2.983924
| 43>   H                    : -8.204361            8.311799             -2.278597
| 44>   H                    : -9.929243            7.448107             -3.819191
| 45>   H                    : -9.029607            5.992954             -3.755281
| 46>   H                    : -9.681577            6.510457             -2.310331
| 47> *
| 48>
| 49> #Run DFT-D3 single point of the particle with dimer basis set
| 50> $new_job
| 51> %base "14-106_DFT_B"
| 52> ! wB97X-D3 def2-TZVP TIGHTSCF CHELPG PMODEL
| 53>
| 54> %scf
| 55> MaxIter 1000
| 56> end
| 57>
| 58> * xyz 0 1
| 59>   C                    : -7.605909            2.443021             -5.622041
| 60>   O                    : -8.394434            3.474753             -5.066151
| 61>   H                    : -8.746984            3.268596             -4.163043
| 62>   H                    : -6.908455            2.024404             -4.832031
| 63>   H                    : -8.242513            1.688588             -6.000919
| 64>   H                    : -7.027775            2.828739             -6.512241
| 65>   C                      -9.205169            6.910443             -3.179025
| 66>   O                      -8.021357            7.648472             -2.983924
| 67>   H                      -8.204361            8.311799             -2.278597
| 68>   H                      -9.929243            7.448107             -3.819191
| 69>   H                      -9.029607            5.992954             -3.755281
| 70>   H                      -9.681577            6.510457             -2.310331
| 71> *
| 72>
| 73>                          ****END OF INPUT****
 Total Charge           Charge          ....    0
 Multiplicity           Mult            ....    1
 Number of Electrons    NEL             ....   36
Dispersion correction           -0.001096976
FINAL SINGLE POINT ENERGY      -231.464957608434
Dispersion correction           -0.000251405
FINAL SINGLE POINT ENERGY      -115.731654245248

CARTESIAN COORDINATES (ANGSTROEM)
---------------------------------
  C     -7.605909    2.443021   -5.622041
  O     -8.394434    3.474753   -5.066151
  H     -8.746984    3.268596   -4.163043
  H     -6.908455    2.024404   -4.832031
  H     -8.242513    1.688588   -6.000919
  H     -7.027775    2.828739   -6.512241
  C     -9.205169    6.910443   -3.179025
  O     -8.021357    7.648472   -2.983924
  H     -8.204361    8.311799   -2.278597
  H     -9.929243    7.448107   -3.819191
  H     -9.029607    5.992954   -3.755281
  H     -9.681577    6.510457   -2.310331

 Multiplicity           Mult            ....    1
 Number of Electrons    NEL             ....   18
 Basis Dimension        Dim             ....  172

ORBITAL ENERGIES
----------------

  NO   OCC          E(Eh)            E(eV)
   0   2.0000     -19.235932      -523.4363
   1   2.0000     -10.310561      -280.5646
   2   2.0000      -1.134536       -30.8723
   3   2.0000      -0.796517       -21.6743
   4   2.0000      -0.609927       -16.5970
   5   2.0000      -0.543579       -14.7915
   6   2.0000      -0.525771       -14.3070
   7   2.0000      -0.429291       -11.6816
   8   2.0000      -0.375963       -10.2305
   9   0.0000       0.087619         2.3842
  10   0.0000       0.115363         3.1392
  11   0.0000       0.141978         3.8634
  12   0.0000       0.177181         4.8213
  13   0.0000       0.192088         5.2270

MULLIKEN ATOMIC CHARGES
-----------------------
   0 C :    0.000134
   1 O :    0.000376
   2 H :   -0.000433
   3 H :   -0.000010
   4 H :   -0.000010
   5 H :   -0.000008
   6 C :   -0.169941
   7 O :   -0.469066
   8 H :    0.318231
   9 H :    0.099469
  10 H :    0.116010
  11 H :    0.105249
Sum of atomic charges:   -0.0000000

LOEWDIN ATOMIC CHARGES
----------------------
   0 C :   -0.000106
   1 O :   -0.001811
   2 H :   -0.001642
   3 H :   -0.000003
   4 H :   -0.000004
   5 H :   -0.000004
   6 C :   -0.401178
   7 O :   -0.079726
   8 H :    0.186030
   9 H :    0.097150
  10 H :    0.111020
  11 H :    0.090273

  Mayer bond orders larger than 0.1
B(  6-C ,  7-O ) :   1.0172 B(  6-C ,  9-H ) :   0.9795 B(  6-C , 10-H ) :   0.9736
B(  6-C , 11-H ) :   0.9739 B(  7-O ,  8-H ) :   0.8945

Dispersion correction           -0.000258001
FINAL SINGLE POINT ENERGY      -115.732868636393

DIPOLE MOMENT
-------------
                                X             Y             Z
Electronic contribution:      1.66310       0.96512       0.28381
Nuclear contribution   :     -2.22920      -0.86798       0.08889
                        -----------------------------------------
Total Dipole Moment    :     -0.56610       0.09713       0.37270
                        -----------------------------------------
Magnitude (a.u.)       :      0.68469
Magnitude (Debye)      :      1.74036

Rotational constants in cm-1:     4.423057     0.820409     0.798532
Rotational constants in MHz : 132599.921700 24595.255861 23939.398037

                             ****ORCA TERMINATED NORMALLY****
TOTAL RUN TIME: 0 days 0 hours 0 minutes 55 seconds 502 msec
