                         Program Version 4.1.2  - RELEASE  -
|  1> #Run DFT-D3 single point of the dimer
|  2> ! wB97X-D3 def2-TZVP TIGHTSCF CHELPG PMODEL PAL8
|  3>
|  4> %base "15-126_DFT_AB"
|  5>
|  6> %scf
|  7> MaxIter 1000
|  8> end
|  9>
| 10> * xyz 0 1
| 11>   C                      -9.214157            -0.697725            -0.310024
| 12>   O                      -8.796968            -0.094356            0.899646
| 13>   H                      -8.301824            0.652088             0.736307
| 14>   H                      -9.554524            -1.715221            -0.260434
| 15>   H                      -10.050928           -0.149997            -0.768847
| 16>   H                      -8.389909            -0.712610            -0.985198
| 17>   C                      -7.817568            -1.115206            3.700013
| 18>   O                      -9.136573            -1.456751            3.302146
| 19>   H                      -9.190506            -1.221461            2.379314
| 20>   H                      -7.877102            -0.056700            4.089856
| 21>   H                      -7.442192            -1.784982            4.507728
| 22>   H                      -7.121682            -1.192294            2.872349
| 23> *
| 24>
| 25> #Run DFT-D3 single point of the molecule with dimer basis set
| 26> $new_job
| 27> %base "15-126_DFT_A"
| 28> ! wB97X-D3 def2-TZVP TIGHTSCF CHELPG PMODEL
| 29>
| 30> %scf
| 31> MaxIter 1000
| 32> end
| 33>
| 34> * xyz 0 1
| 35>   C                      -9.214157            -0.697725            -0.310024
| 36>   O                      -8.796968            -0.094356            0.899646
| 37>   H                      -8.301824            0.652088             0.736307
| 38>   H                      -9.554524            -1.715221            -0.260434
| 39>   H                      -10.050928           -0.149997            -0.768847
| 40>   H                      -8.389909            -0.712610            -0.985198
| 41>   C                    : -7.817568            -1.115206            3.700013
| 42>   O                    : -9.136573            -1.456751            3.302146
| 43>   H                    : -9.190506            -1.221461            2.379314
| 44>   H                    : -7.877102            -0.056700            4.089856
| 45>   H                    : -7.442192            -1.784982            4.507728
| 46>   H                    : -7.121682            -1.192294            2.872349
| 47> *
| 48>
| 49> #Run DFT-D3 single point of the particle with dimer basis set
| 50> $new_job
| 51> %base "15-126_DFT_B"
| 52> ! wB97X-D3 def2-TZVP TIGHTSCF CHELPG PMODEL
| 53>
| 54> %scf
| 55> MaxIter 1000
| 56> end
| 57>
| 58> * xyz 0 1
| 59>   C                    : -9.214157            -0.697725            -0.310024
| 60>   O                    : -8.796968            -0.094356            0.899646
| 61>   H                    : -8.301824            0.652088             0.736307
| 62>   H                    : -9.554524            -1.715221            -0.260434
| 63>   H                    : -10.050928           -0.149997            -0.768847
| 64>   H                    : -8.389909            -0.712610            -0.985198
| 65>   C                      -7.817568            -1.115206            3.700013
| 66>   O                      -9.136573            -1.456751            3.302146
| 67>   H                      -9.190506            -1.221461            2.379314
| 68>   H                      -7.877102            -0.056700            4.089856
| 69>   H                      -7.442192            -1.784982            4.507728
| 70>   H                      -7.121682            -1.192294            2.872349
| 71> *
| 72>
| 73>                          ****END OF INPUT****
 Total Charge           Charge          ....    0
 Multiplicity           Mult            ....    1
 Number of Electrons    NEL             ....   36
Dispersion correction           -0.001965984
FINAL SINGLE POINT ENERGY      -231.471851297766
Dispersion correction           -0.000238599
FINAL SINGLE POINT ENERGY      -115.730936732528

CARTESIAN COORDINATES (ANGSTROEM)
---------------------------------
  C     -9.214157   -0.697725   -0.310024
  O     -8.796968   -0.094356    0.899646
  H     -8.301824    0.652088    0.736307
  H     -9.554524   -1.715221   -0.260434
  H    -10.050928   -0.149997   -0.768847
  H     -8.389909   -0.712610   -0.985198
  C     -7.817568   -1.115206    3.700013
  O     -9.136573   -1.456751    3.302146
  H     -9.190506   -1.221461    2.379314
  H     -7.877102   -0.056700    4.089856
  H     -7.442192   -1.784982    4.507728
  H     -7.121682   -1.192294    2.872349

 Multiplicity           Mult            ....    1
 Number of Electrons    NEL             ....   18
 Basis Dimension        Dim             ....  172

ORBITAL ENERGIES
----------------

  NO   OCC          E(Eh)            E(eV)
   0   2.0000     -19.229548      -523.2626
   1   2.0000     -10.318117      -280.7702
   2   2.0000      -1.137723       -30.9590
   3   2.0000      -0.790384       -21.5074
   4   2.0000      -0.610248       -16.6057
   5   2.0000      -0.540591       -14.7102
   6   2.0000      -0.525199       -14.2914
   7   2.0000      -0.436765       -11.8850
   8   2.0000      -0.371822       -10.1178
   9   0.0000       0.067244         1.8298
  10   0.0000       0.133444         3.6312
  11   0.0000       0.150290         4.0896
  12   0.0000       0.168564         4.5869
  13   0.0000       0.183403         4.9906

MULLIKEN ATOMIC CHARGES
-----------------------
   0 C :   -0.002072
   1 O :   -0.006404
   2 H :   -0.000173
   3 H :   -0.000746
   4 H :    0.000076
   5 H :    0.000128
   6 C :   -0.174151
   7 O :   -0.466471
   8 H :    0.315947
   9 H :    0.104838
  10 H :    0.121644
  11 H :    0.107384
Sum of atomic charges:   -0.0000000

LOEWDIN ATOMIC CHARGES
----------------------
   0 C :   -0.005311
   1 O :   -0.022998
   2 H :   -0.001305
   3 H :   -0.000854
   4 H :   -0.000086
   5 H :   -0.000079
   6 C :   -0.383370
   7 O :   -0.067745
   8 H :    0.174287
   9 H :    0.104636
  10 H :    0.109530
  11 H :    0.093297

  Mayer bond orders larger than 0.1
B(  6-C ,  7-O ) :   0.9824 B(  6-C ,  9-H ) :   0.9816 B(  6-C , 10-H ) :   0.9708
B(  6-C , 11-H ) :   0.9787 B(  7-O ,  8-H ) :   0.9103

Dispersion correction           -0.000235652
FINAL SINGLE POINT ENERGY      -115.734270903694

DIPOLE MOMENT
-------------
                                X             Y             Z
Electronic contribution:     -1.67328      -0.54592      -0.39900
Nuclear contribution   :      2.16569       0.80580      -0.03677
                        -----------------------------------------
Total Dipole Moment    :      0.49240       0.25987      -0.43576
                        -----------------------------------------
Magnitude (a.u.)       :      0.70703
Magnitude (Debye)      :      1.79712

Rotational constants in cm-1:     4.142170     0.828155     0.803161
Rotational constants in MHz : 124179.135877 24827.466333 24078.167892

                             ****ORCA TERMINATED NORMALLY****
TOTAL RUN TIME: 0 days 0 hours 1 minutes 1 seconds 835 msec
