                         Program Version 4.1.2  - RELEASE  -
|  1> #Run DFT-D3 single point of the dimer
|  2> ! wB97X-D3 def2-TZVP TIGHTSCF CHELPG PMODEL PAL8
|  3>
|  4> %base "17-53_DFT_AB"
|  5>
|  6> %scf
|  7> MaxIter 1000
|  8> end
|  9>
| 10> * xyz 0 1
| 11>   C                      -8.719428            -0.806688            2.256153
| 12>   O                      -10.041191           -1.234781            2.494380
| 13>   H                      -10.144787           -1.521010            3.361301
| 14>   H                      -8.220031            -0.383521            3.209562
| 15>   H                      -8.128405            -1.587988            1.732554
| 16>   H                      -8.726105            0.059084             1.528395
| 17>   C                      -10.287805           0.460740             -0.488593
| 18>   O                      -11.510170           0.414027             0.221996
| 19>   H                      -11.310408           -0.018879            1.079148
| 20>   H                      -10.624061           0.378563             -1.479180
| 21>   H                      -9.775466            1.366109             -0.329355
| 22>   H                      -9.688428            -0.433824            -0.202331
| 23> *
| 24>
| 25> #Run DFT-D3 single point of the molecule with dimer basis set
| 26> $new_job
| 27> %base "17-53_DFT_A"
| 28> ! wB97X-D3 def2-TZVP TIGHTSCF CHELPG PMODEL
| 29>
| 30> %scf
| 31> MaxIter 1000
| 32> end
| 33>
| 34> * xyz 0 1
| 35>   C                      -8.719428            -0.806688            2.256153
| 36>   O                      -10.041191           -1.234781            2.494380
| 37>   H                      -10.144787           -1.521010            3.361301
| 38>   H                      -8.220031            -0.383521            3.209562
| 39>   H                      -8.128405            -1.587988            1.732554
| 40>   H                      -8.726105            0.059084             1.528395
| 41>   C                    : -10.287805           0.460740             -0.488593
| 42>   O                    : -11.510170           0.414027             0.221996
| 43>   H                    : -11.310408           -0.018879            1.079148
| 44>   H                    : -10.624061           0.378563             -1.479180
| 45>   H                    : -9.775466            1.366109             -0.329355
| 46>   H                    : -9.688428            -0.433824            -0.202331
| 47> *
| 48>
| 49> #Run DFT-D3 single point of the particle with dimer basis set
| 50> $new_job
| 51> %base "17-53_DFT_B"
| 52> ! wB97X-D3 def2-TZVP TIGHTSCF CHELPG PMODEL
| 53>
| 54> %scf
| 55> MaxIter 1000
| 56> end
| 57>
| 58> * xyz 0 1
| 59>   C                    : -8.719428            -0.806688            2.256153
| 60>   O                    : -10.041191           -1.234781            2.494380
| 61>   H                    : -10.144787           -1.521010            3.361301
| 62>   H                    : -8.220031            -0.383521            3.209562
| 63>   H                    : -8.128405            -1.587988            1.732554
| 64>   H                    : -8.726105            0.059084             1.528395
| 65>   C                      -10.287805           0.460740             -0.488593
| 66>   O                      -11.510170           0.414027             0.221996
| 67>   H                      -11.310408           -0.018879            1.079148
| 68>   H                      -10.624061           0.378563             -1.479180
| 69>   H                      -9.775466            1.366109             -0.329355
| 70>   H                      -9.688428            -0.433824            -0.202331
| 71> *
| 72>
| 73>                          ****END OF INPUT****
 Total Charge           Charge          ....    0
 Multiplicity           Mult            ....    1
 Number of Electrons    NEL             ....   36
Dispersion correction           -0.002215384
FINAL SINGLE POINT ENERGY      -231.466919834450
Dispersion correction           -0.000267392
FINAL SINGLE POINT ENERGY      -115.730746568553

CARTESIAN COORDINATES (ANGSTROEM)
---------------------------------
  C     -8.719428   -0.806688    2.256153
  O    -10.041191   -1.234781    2.494380
  H    -10.144787   -1.521010    3.361301
  H     -8.220031   -0.383521    3.209562
  H     -8.128405   -1.587988    1.732554
  H     -8.726105    0.059084    1.528395
  C    -10.287805    0.460740   -0.488593
  O    -11.510170    0.414027    0.221996
  H    -11.310408   -0.018879    1.079148
  H    -10.624061    0.378563   -1.479180
  H     -9.775466    1.366109   -0.329355
  H     -9.688428   -0.433824   -0.202331

 Multiplicity           Mult            ....    1
 Number of Electrons    NEL             ....   18
 Basis Dimension        Dim             ....  172

ORBITAL ENERGIES
----------------

  NO   OCC          E(Eh)            E(eV)
   0   2.0000     -19.226914      -523.1909
   1   2.0000     -10.304395      -280.3968
   2   2.0000      -1.131648       -30.7937
   3   2.0000      -0.795522       -21.6472
   4   2.0000      -0.606925       -16.5153
   5   2.0000      -0.552492       -15.0341
   6   2.0000      -0.523617       -14.2483
   7   2.0000      -0.433938       -11.8081
   8   2.0000      -0.372371       -10.1327
   9   0.0000       0.069431         1.8893
  10   0.0000       0.134655         3.6642
  11   0.0000       0.147867         4.0237
  12   0.0000       0.171606         4.6696
  13   0.0000       0.186057         5.0629

MULLIKEN ATOMIC CHARGES
-----------------------
   0 C :   -0.000469
   1 O :   -0.001964
   2 H :   -0.000169
   3 H :    0.000003
   4 H :   -0.000917
   5 H :    0.000323
   6 C :   -0.161877
   7 O :   -0.476922
   8 H :    0.312516
   9 H :    0.124833
  10 H :    0.106421
  11 H :    0.098221
Sum of atomic charges:   -0.0000000

LOEWDIN ATOMIC CHARGES
----------------------
   0 C :   -0.015206
   1 O :   -0.008853
   2 H :   -0.000457
   3 H :   -0.000078
   4 H :   -0.000998
   5 H :   -0.010781
   6 C :   -0.361480
   7 O :   -0.084443
   8 H :    0.181206
   9 H :    0.099990
  10 H :    0.089404
  11 H :    0.111697

  Mayer bond orders larger than 0.1
B(  6-C ,  7-O ) :   0.9875 B(  6-C ,  9-H ) :   0.9797 B(  6-C , 10-H ) :   0.9707
B(  6-C , 11-H ) :   0.9882 B(  7-O ,  8-H ) :   0.9083

Dispersion correction           -0.000215992
FINAL SINGLE POINT ENERGY      -115.731097737637

DIPOLE MOMENT
-------------
                                X             Y             Z
Electronic contribution:     -1.48201       0.11135       0.72545
Nuclear contribution   :      2.07881      -0.36444      -0.48800
                        -----------------------------------------
Total Dipole Moment    :      0.59680      -0.25308       0.23745
                        -----------------------------------------
Magnitude (a.u.)       :      0.69036
Magnitude (Debye)      :      1.75477

Rotational constants in cm-1:     4.229172     0.853760     0.818284
Rotational constants in MHz : 126787.382351 25595.071400 24531.548632

                             ****ORCA TERMINATED NORMALLY****
TOTAL RUN TIME: 0 days 0 hours 1 minutes 12 seconds 86 msec
