                         Program Version 4.1.2  - RELEASE  -
|  1> #Run DFT-D3 single point of the dimer
|  2> ! wB97X-D3 def2-TZVP TIGHTSCF CHELPG PMODEL PAL8
|  3>
|  4> %base "1-15_DFT_AB"
|  5>
|  6> %scf
|  7> MaxIter 1000
|  8> end
|  9>
| 10> * xyz 0 1
| 11>   C                      9.259421             10.062301            8.811759
| 12>   O                      8.381720             10.141234            7.690191
| 13>   H                      7.835794             9.333430             7.697897
| 14>   H                      9.945951             9.205096             8.643888
| 15>   H                      9.913457             10.956592            8.943988
| 16>   H                      8.689230             10.048208            9.744641
| 17>   C                      9.630681             10.313985            2.765223
| 18>   O                      8.445673             10.494432            3.492279
| 19>   H                      8.506307             10.462638            4.457554
| 20>   H                      10.347231            11.146109            2.830860
| 21>   H                      10.175214            9.368767             2.986989
| 22>   H                      9.343847             10.194786            1.691725
| 23> *
| 24>
| 25> #Run DFT-D3 single point of the molecule with dimer basis set
| 26> $new_job
| 27> %base "1-15_DFT_A"
| 28> ! wB97X-D3 def2-TZVP TIGHTSCF CHELPG PMODEL
| 29>
| 30> %scf
| 31> MaxIter 1000
| 32> end
| 33>
| 34> * xyz 0 1
| 35>   C                      9.259421             10.062301            8.811759
| 36>   O                      8.381720             10.141234            7.690191
| 37>   H                      7.835794             9.333430             7.697897
| 38>   H                      9.945951             9.205096             8.643888
| 39>   H                      9.913457             10.956592            8.943988
| 40>   H                      8.689230             10.048208            9.744641
| 41>   C                    : 9.630681             10.313985            2.765223
| 42>   O                    : 8.445673             10.494432            3.492279
| 43>   H                    : 8.506307             10.462638            4.457554
| 44>   H                    : 10.347231            11.146109            2.830860
| 45>   H                    : 10.175214            9.368767             2.986989
| 46>   H                    : 9.343847             10.194786            1.691725
| 47> *
| 48>
| 49> #Run DFT-D3 single point of the particle with dimer basis set
| 50> $new_job
| 51> %base "1-15_DFT_B"
| 52> ! wB97X-D3 def2-TZVP TIGHTSCF CHELPG PMODEL
| 53>
| 54> %scf
| 55> MaxIter 1000
| 56> end
| 57>
| 58> * xyz 0 1
| 59>   C                    : 9.259421             10.062301            8.811759
| 60>   O                    : 8.381720             10.141234            7.690191
| 61>   H                    : 7.835794             9.333430             7.697897
| 62>   H                    : 9.945951             9.205096             8.643888
| 63>   H                    : 9.913457             10.956592            8.943988
| 64>   H                    : 8.689230             10.048208            9.744641
| 65>   C                      9.630681             10.313985            2.765223
| 66>   O                      8.445673             10.494432            3.492279
| 67>   H                      8.506307             10.462638            4.457554
| 68>   H                      10.347231            11.146109            2.830860
| 69>   H                      10.175214            9.368767             2.986989
| 70>   H                      9.343847             10.194786            1.691725
| 71> *
| 72>
| 73>                          ****END OF INPUT****
 Total Charge           Charge          ....    0
 Multiplicity           Mult            ....    1
 Number of Electrons    NEL             ....   36
Dispersion correction           -0.000894454
FINAL SINGLE POINT ENERGY      -231.469963286346
Dispersion correction           -0.000244237
FINAL SINGLE POINT ENERGY      -115.733101247546

CARTESIAN COORDINATES (ANGSTROEM)
---------------------------------
  C      9.259421   10.062301    8.811759
  O      8.381720   10.141234    7.690191
  H      7.835794    9.333430    7.697897
  H      9.945951    9.205096    8.643888
  H      9.913457   10.956592    8.943988
  H      8.689230   10.048208    9.744641
  C      9.630681   10.313985    2.765223
  O      8.445673   10.494432    3.492279
  H      8.506307   10.462638    4.457554
  H     10.347231   11.146109    2.830860
  H     10.175214    9.368767    2.986989
  H      9.343847   10.194786    1.691725

 Multiplicity           Mult            ....    1
 Number of Electrons    NEL             ....   18
 Basis Dimension        Dim             ....  172

ORBITAL ENERGIES
----------------

  NO   OCC          E(Eh)            E(eV)
   0   2.0000     -19.229584      -523.2636
   1   2.0000     -10.317902      -280.7644
   2   2.0000      -1.133141       -30.8343
   3   2.0000      -0.796019       -21.6608
   4   2.0000      -0.615000       -16.7350
   5   2.0000      -0.539410       -14.6781
   6   2.0000      -0.523448       -14.2438
   7   2.0000      -0.419694       -11.4204
   8   2.0000      -0.374218       -10.1830
   9   0.0000       0.075083         2.0431
  10   0.0000       0.116602         3.1729
  11   0.0000       0.145876         3.9695
  12   0.0000       0.171549         4.6681
  13   0.0000       0.194954         5.3050

MULLIKEN ATOMIC CHARGES
-----------------------
   0 C :   -0.000079
   1 O :   -0.000110
   2 H :   -0.000065
   3 H :    0.000006
   4 H :    0.000006
   5 H :    0.000000
   6 C :   -0.148466
   7 O :   -0.488636
   8 H :    0.319480
   9 H :    0.100932
  10 H :    0.098195
  11 H :    0.118737
Sum of atomic charges:   -0.0000000

LOEWDIN ATOMIC CHARGES
----------------------
   0 C :   -0.000070
   1 O :   -0.000495
   2 H :   -0.000150
   3 H :   -0.000001
   4 H :   -0.000001
   5 H :   -0.000003
   6 C :   -0.401170
   7 O :   -0.072623
   8 H :    0.170698
   9 H :    0.092912
  10 H :    0.095904
  11 H :    0.114999

  Mayer bond orders larger than 0.1
B(  6-C ,  7-O ) :   0.9998 B(  6-C ,  9-H ) :   0.9714 B(  6-C , 10-H ) :   0.9734
B(  6-C , 11-H ) :   0.9725 B(  7-O ,  8-H ) :   0.8903

Dispersion correction           -0.000280789
FINAL SINGLE POINT ENERGY      -115.734233966649

DIPOLE MOMENT
-------------
                                X             Y             Z
Electronic contribution:     -1.58359       0.30142       0.95028
Nuclear contribution   :      2.08861      -0.40534      -0.61415
                        -----------------------------------------
Total Dipole Moment    :      0.50503      -0.10392       0.33613
                        -----------------------------------------
Magnitude (a.u.)       :      0.61550
Magnitude (Debye)      :      1.56447

Rotational constants in cm-1:     4.382196     0.818932     0.796281
Rotational constants in MHz : 131374.922225 24550.973589 23871.917075

                             ****ORCA TERMINATED NORMALLY****
TOTAL RUN TIME: 0 days 0 hours 5 minutes 53 seconds 933 msec
