                         Program Version 4.1.2  - RELEASE  -
|  1> #Run DFT-D3 single point of the dimer
|  2> ! wB97X-D3 def2-TZVP TIGHTSCF CHELPG PMODEL PAL8
|  3>
|  4> %base "10-188_DFT_AB"
|  5>
|  6> %scf
|  7> MaxIter 1000
|  8> end
|  9>
| 10> * xyz 0 1
| 11>   C                      7.964297             -1.208832            -5.684021
| 12>   O                      7.279736             0.002685             -5.628934
| 13>   H                      7.762700             0.652931             -6.164516
| 14>   H                      7.817346             -1.887054            -4.851964
| 15>   H                      7.703481             -1.799210            -6.550149
| 16>   H                      9.066567             -1.048469            -5.764761
| 17>   C                      7.185362             3.446770             -6.598216
| 18>   O                      7.009860             2.183040             -7.240658
| 19>   H                      6.743349             2.394639             -8.134985
| 20>   H                      7.430673             3.367316             -5.553420
| 21>   H                      7.995459             4.065174             -7.037358
| 22>   H                      6.205640             4.036175             -6.768280
| 23> *
| 24>
| 25> #Run DFT-D3 single point of the molecule with dimer basis set
| 26> $new_job
| 27> %base "10-188_DFT_A"
| 28> ! wB97X-D3 def2-TZVP TIGHTSCF CHELPG PMODEL
| 29>
| 30> %scf
| 31> MaxIter 1000
| 32> end
| 33>
| 34> * xyz 0 1
| 35>   C                      7.964297             -1.208832            -5.684021
| 36>   O                      7.279736             0.002685             -5.628934
| 37>   H                      7.762700             0.652931             -6.164516
| 38>   H                      7.817346             -1.887054            -4.851964
| 39>   H                      7.703481             -1.799210            -6.550149
| 40>   H                      9.066567             -1.048469            -5.764761
| 41>   C                    : 7.185362             3.446770             -6.598216
| 42>   O                    : 7.009860             2.183040             -7.240658
| 43>   H                    : 6.743349             2.394639             -8.134985
| 44>   H                    : 7.430673             3.367316             -5.553420
| 45>   H                    : 7.995459             4.065174             -7.037358
| 46>   H                    : 6.205640             4.036175             -6.768280
| 47> *
| 48>
| 49> #Run DFT-D3 single point of the particle with dimer basis set
| 50> $new_job
| 51> %base "10-188_DFT_B"
| 52> ! wB97X-D3 def2-TZVP TIGHTSCF CHELPG PMODEL
| 53>
| 54> %scf
| 55> MaxIter 1000
| 56> end
| 57>
| 58> * xyz 0 1
| 59>   C                    : 7.964297             -1.208832            -5.684021
| 60>   O                    : 7.279736             0.002685             -5.628934
| 61>   H                    : 7.762700             0.652931             -6.164516
| 62>   H                    : 7.817346             -1.887054            -4.851964
| 63>   H                    : 7.703481             -1.799210            -6.550149
| 64>   H                    : 9.066567             -1.048469            -5.764761
| 65>   C                      7.185362             3.446770             -6.598216
| 66>   O                      7.009860             2.183040             -7.240658
| 67>   H                      6.743349             2.394639             -8.134985
| 68>   H                      7.430673             3.367316             -5.553420
| 69>   H                      7.995459             4.065174             -7.037358
| 70>   H                      6.205640             4.036175             -6.768280
| 71> *
| 72>
| 73>                          ****END OF INPUT****
 Total Charge           Charge          ....    0
 Multiplicity           Mult            ....    1
 Number of Electrons    NEL             ....   36
Dispersion correction           -0.001507853
FINAL SINGLE POINT ENERGY      -231.469625574960
Dispersion correction           -0.000242067
FINAL SINGLE POINT ENERGY      -115.733797347911

CARTESIAN COORDINATES (ANGSTROEM)
---------------------------------
  C      7.964297   -1.208832   -5.684021
  O      7.279736    0.002685   -5.628934
  H      7.762700    0.652931   -6.164516
  H      7.817346   -1.887054   -4.851964
  H      7.703481   -1.799210   -6.550149
  H      9.066567   -1.048469   -5.764761
  C      7.185362    3.446770   -6.598216
  O      7.009860    2.183040   -7.240658
  H      6.743349    2.394639   -8.134985
  H      7.430673    3.367316   -5.553420
  H      7.995459    4.065174   -7.037358
  H      6.205640    4.036175   -6.768280

 Multiplicity           Mult            ....    1
 Number of Electrons    NEL             ....   18
 Basis Dimension        Dim             ....  172

ORBITAL ENERGIES
----------------

  NO   OCC          E(Eh)            E(eV)
   0   2.0000     -19.232581      -523.3451
   1   2.0000     -10.321897      -280.8731
   2   2.0000      -1.135827       -30.9074
   3   2.0000      -0.792003       -21.5515
   4   2.0000      -0.607024       -16.5180
   5   2.0000      -0.539148       -14.6710
   6   2.0000      -0.526986       -14.3400
   7   2.0000      -0.438742       -11.9388
   8   2.0000      -0.371958       -10.1215
   9   0.0000       0.099638         2.7113
  10   0.0000       0.118071         3.2129
  11   0.0000       0.152076         4.1382
  12   0.0000       0.186957         5.0874
  13   0.0000       0.195594         5.3224

MULLIKEN ATOMIC CHARGES
-----------------------
   0 C :   -0.000765
   1 O :    0.002784
   2 H :   -0.011132
   3 H :   -0.000060
   4 H :   -0.000059
   5 H :   -0.000016
   6 C :   -0.182628
   7 O :   -0.459419
   8 H :    0.312338
   9 H :    0.130623
  10 H :    0.105610
  11 H :    0.102724
Sum of atomic charges:    0.0000000

LOEWDIN ATOMIC CHARGES
----------------------
   0 C :   -0.001173
   1 O :   -0.010038
   2 H :   -0.032084
   3 H :   -0.000026
   4 H :   -0.000050
   5 H :   -0.000031
   6 C :   -0.379551
   7 O :   -0.051525
   8 H :    0.167308
   9 H :    0.104212
  10 H :    0.095977
  11 H :    0.106982

  Mayer bond orders larger than 0.1
B(  6-C ,  7-O ) :   0.9881 B(  6-C ,  9-H ) :   0.9732 B(  6-C , 10-H ) :   0.9662
B(  6-C , 11-H ) :   0.9794 B(  7-O ,  8-H ) :   0.8995

Dispersion correction           -0.000242247
FINAL SINGLE POINT ENERGY      -115.732516454934

DIPOLE MOMENT
-------------
                                X             Y             Z
Electronic contribution:     -0.10765      -1.79371      -0.59168
Nuclear contribution   :      0.02729       2.42107       0.29645
                        -----------------------------------------
Total Dipole Moment    :     -0.08036       0.62736      -0.29523
                        -----------------------------------------
Magnitude (a.u.)       :      0.69799
Magnitude (Debye)      :      1.77415

Rotational constants in cm-1:     4.164716     0.817081     0.785371
Rotational constants in MHz : 124855.046403 24495.481406 23544.821522

                             ****ORCA TERMINATED NORMALLY****
TOTAL RUN TIME: 0 days 0 hours 1 minutes 7 seconds 929 msec
