                         Program Version 4.1.2  - RELEASE  -
|  1> #Run DFT-D3 single point of the dimer
|  2> ! wB97X-D3 def2-TZVP TIGHTSCF CHELPG PMODEL PAL8
|  3>
|  4> %base "15-176_DFT_AB"
|  5>
|  6> %scf
|  7> MaxIter 1000
|  8> end
|  9>
| 10> * xyz 0 1
| 11>   C                      0.239107             -9.725760            3.563550
| 12>   O                      -0.325960            -9.806708            2.226705
| 13>   H                      0.314450             -10.098638           1.586949
| 14>   H                      1.249586             -9.222974            3.675815
| 15>   H                      -0.403865            -9.285869            4.365776
| 16>   H                      0.587013             -10.629534           3.927197
| 17>   C                      2.607713             -11.322512           0.925257
| 18>   O                      1.613506             -10.587888           0.240427
| 19>   H                      2.014895             -10.026225           -0.402110
| 20>   H                      2.159400             -12.240957           1.350017
| 21>   H                      3.421534             -11.486196           0.223314
| 22>   H                      3.034540             -10.758273           1.763379
| 23> *
| 24>
| 25> #Run DFT-D3 single point of the molecule with dimer basis set
| 26> $new_job
| 27> %base "15-176_DFT_A"
| 28> ! wB97X-D3 def2-TZVP TIGHTSCF CHELPG PMODEL
| 29>
| 30> %scf
| 31> MaxIter 1000
| 32> end
| 33>
| 34> * xyz 0 1
| 35>   C                      0.239107             -9.725760            3.563550
| 36>   O                      -0.325960            -9.806708            2.226705
| 37>   H                      0.314450             -10.098638           1.586949
| 38>   H                      1.249586             -9.222974            3.675815
| 39>   H                      -0.403865            -9.285869            4.365776
| 40>   H                      0.587013             -10.629534           3.927197
| 41>   C                    : 2.607713             -11.322512           0.925257
| 42>   O                    : 1.613506             -10.587888           0.240427
| 43>   H                    : 2.014895             -10.026225           -0.402110
| 44>   H                    : 2.159400             -12.240957           1.350017
| 45>   H                    : 3.421534             -11.486196           0.223314
| 46>   H                    : 3.034540             -10.758273           1.763379
| 47> *
| 48>
| 49> #Run DFT-D3 single point of the particle with dimer basis set
| 50> $new_job
| 51> %base "15-176_DFT_B"
| 52> ! wB97X-D3 def2-TZVP TIGHTSCF CHELPG PMODEL
| 53>
| 54> %scf
| 55> MaxIter 1000
| 56> end
| 57>
| 58> * xyz 0 1
| 59>   C                    : 0.239107             -9.725760            3.563550
| 60>   O                    : -0.325960            -9.806708            2.226705
| 61>   H                    : 0.314450             -10.098638           1.586949
| 62>   H                    : 1.249586             -9.222974            3.675815
| 63>   H                    : -0.403865            -9.285869            4.365776
| 64>   H                    : 0.587013             -10.629534           3.927197
| 65>   C                      2.607713             -11.322512           0.925257
| 66>   O                      1.613506             -10.587888           0.240427
| 67>   H                      2.014895             -10.026225           -0.402110
| 68>   H                      2.159400             -12.240957           1.350017
| 69>   H                      3.421534             -11.486196           0.223314
| 70>   H                      3.034540             -10.758273           1.763379
| 71> *
| 72>
| 73>                          ****END OF INPUT****
 Total Charge           Charge          ....    0
 Multiplicity           Mult            ....    1
 Number of Electrons    NEL             ....   36
Dispersion correction           -0.002098612
FINAL SINGLE POINT ENERGY      -231.464859781417
Dispersion correction           -0.000295480
FINAL SINGLE POINT ENERGY      -115.721782399047

CARTESIAN COORDINATES (ANGSTROEM)
---------------------------------
  C      0.239107   -9.725760    3.563550
  O     -0.325960   -9.806708    2.226705
  H      0.314450  -10.098638    1.586949
  H      1.249586   -9.222974    3.675815
  H     -0.403865   -9.285869    4.365776
  H      0.587013  -10.629534    3.927197
  C      2.607713  -11.322512    0.925257
  O      1.613506  -10.587888    0.240427
  H      2.014895  -10.026225   -0.402110
  H      2.159400  -12.240957    1.350017
  H      3.421534  -11.486196    0.223314
  H      3.034540  -10.758273    1.763379

 Multiplicity           Mult            ....    1
 Number of Electrons    NEL             ....   18
 Basis Dimension        Dim             ....  172

ORBITAL ENERGIES
----------------

  NO   OCC          E(Eh)            E(eV)
   0   2.0000     -19.226177      -523.1709
   1   2.0000     -10.314617      -280.6750
   2   2.0000      -1.138425       -30.9781
   3   2.0000      -0.796115       -21.6634
   4   2.0000      -0.614562       -16.7231
   5   2.0000      -0.540529       -14.7085
   6   2.0000      -0.530197       -14.4274
   7   2.0000      -0.433669       -11.8007
   8   2.0000      -0.370623       -10.0852
   9   0.0000       0.092757         2.5240
  10   0.0000       0.124023         3.3748
  11   0.0000       0.154712         4.2099
  12   0.0000       0.184358         5.0166
  13   0.0000       0.190869         5.1938

MULLIKEN ATOMIC CHARGES
-----------------------
   0 C :    0.001640
   1 O :   -0.002829
   2 H :   -0.004367
   3 H :   -0.000622
   4 H :    0.000035
   5 H :   -0.000560
   6 C :   -0.153885
   7 O :   -0.476999
   8 H :    0.310862
   9 H :    0.117402
  10 H :    0.106944
  11 H :    0.102378
Sum of atomic charges:   -0.0000000

LOEWDIN ATOMIC CHARGES
----------------------
   0 C :   -0.002096
   1 O :   -0.005481
   2 H :   -0.043199
   3 H :   -0.000483
   4 H :   -0.000016
   5 H :   -0.000257
   6 C :   -0.376166
   7 O :   -0.032461
   8 H :    0.156317
   9 H :    0.111793
  10 H :    0.096990
  11 H :    0.095058

  Mayer bond orders larger than 0.1
B(  6-C ,  7-O ) :   0.9822 B(  6-C ,  9-H ) :   0.9768 B(  6-C , 10-H ) :   0.9810
B(  6-C , 11-H ) :   0.9729 B(  7-O ,  8-H ) :   0.9016

Dispersion correction           -0.000234027
FINAL SINGLE POINT ENERGY      -115.734893834721

DIPOLE MOMENT
-------------
                                X             Y             Z
Electronic contribution:     -1.34846       0.79672      -0.80234
Nuclear contribution   :      2.01909      -0.73306       0.64994
                        -----------------------------------------
Total Dipole Moment    :      0.67064       0.06365      -0.15240
                        -----------------------------------------
Magnitude (a.u.)       :      0.69067
Magnitude (Debye)      :      1.75556

Rotational constants in cm-1:     4.277046     0.839881     0.801929
Rotational constants in MHz : 128222.628202 25178.989351 24041.218010

                             ****ORCA TERMINATED NORMALLY****
TOTAL RUN TIME: 0 days 0 hours 1 minutes 5 seconds 970 msec
