                         Program Version 4.1.2  - RELEASE  -
|  1> #Run DFT-D3 single point of the dimer
|  2> ! wB97X-D3 def2-TZVP TIGHTSCF CHELPG PMODEL PAL8
|  3>
|  4> %base "10-168_DFT_AB"
|  5>
|  6> %scf
|  7> MaxIter 1000
|  8> end
|  9>
| 10> * xyz 0 1
| 11>   C                      -5.550638            -1.771051            -1.060697
| 12>   O                      -4.211625            -1.399807            -0.899603
| 13>   H                      -4.270984            -0.495730            -0.560299
| 14>   H                      -6.043490            -1.981702            -0.062435
| 15>   H                      -6.039602            -0.992687            -1.678579
| 16>   H                      -5.596667            -2.756360            -1.464270
| 17>   C                      -0.719550            -0.314772            0.157178
| 18>   O                      -1.584965            0.433955             1.002050
| 19>   H                      -2.224186            0.908863             0.534995
| 20>   H                      -0.599613            0.064661             -0.823681
| 21>   H                      0.291541             -0.318473            0.630816
| 22>   H                      -1.079026            -1.378477            0.075071
| 23> *
| 24>
| 25> #Run DFT-D3 single point of the molecule with dimer basis set
| 26> $new_job
| 27> %base "10-168_DFT_A"
| 28> ! wB97X-D3 def2-TZVP TIGHTSCF CHELPG PMODEL
| 29>
| 30> %scf
| 31> MaxIter 1000
| 32> end
| 33>
| 34> * xyz 0 1
| 35>   C                      -5.550638            -1.771051            -1.060697
| 36>   O                      -4.211625            -1.399807            -0.899603
| 37>   H                      -4.270984            -0.495730            -0.560299
| 38>   H                      -6.043490            -1.981702            -0.062435
| 39>   H                      -6.039602            -0.992687            -1.678579
| 40>   H                      -5.596667            -2.756360            -1.464270
| 41>   C                    : -0.719550            -0.314772            0.157178
| 42>   O                    : -1.584965            0.433955             1.002050
| 43>   H                    : -2.224186            0.908863             0.534995
| 44>   H                    : -0.599613            0.064661             -0.823681
| 45>   H                    : 0.291541             -0.318473            0.630816
| 46>   H                    : -1.079026            -1.378477            0.075071
| 47> *
| 48>
| 49> #Run DFT-D3 single point of the particle with dimer basis set
| 50> $new_job
| 51> %base "10-168_DFT_B"
| 52> ! wB97X-D3 def2-TZVP TIGHTSCF CHELPG PMODEL
| 53>
| 54> %scf
| 55> MaxIter 1000
| 56> end
| 57>
| 58> * xyz 0 1
| 59>   C                    : -5.550638            -1.771051            -1.060697
| 60>   O                    : -4.211625            -1.399807            -0.899603
| 61>   H                    : -4.270984            -0.495730            -0.560299
| 62>   H                    : -6.043490            -1.981702            -0.062435
| 63>   H                    : -6.039602            -0.992687            -1.678579
| 64>   H                    : -5.596667            -2.756360            -1.464270
| 65>   C                      -0.719550            -0.314772            0.157178
| 66>   O                      -1.584965            0.433955             1.002050
| 67>   H                      -2.224186            0.908863             0.534995
| 68>   H                      -0.599613            0.064661             -0.823681
| 69>   H                      0.291541             -0.318473            0.630816
| 70>   H                      -1.079026            -1.378477            0.075071
| 71> *
| 72>
| 73>                          ****END OF INPUT****
 Total Charge           Charge          ....    0
 Multiplicity           Mult            ....    1
 Number of Electrons    NEL             ....   36
Dispersion correction           -0.001391669
FINAL SINGLE POINT ENERGY      -231.464313447590
Dispersion correction           -0.000219690
FINAL SINGLE POINT ENERGY      -115.730980405518

CARTESIAN COORDINATES (ANGSTROEM)
---------------------------------
  C     -5.550638   -1.771051   -1.060697
  O     -4.211625   -1.399807   -0.899603
  H     -4.270984   -0.495730   -0.560299
  H     -6.043490   -1.981702   -0.062435
  H     -6.039602   -0.992687   -1.678579
  H     -5.596667   -2.756360   -1.464270
  C     -0.719550   -0.314772    0.157178
  O     -1.584965    0.433955    1.002050
  H     -2.224186    0.908863    0.534995
  H     -0.599613    0.064661   -0.823681
  H      0.291541   -0.318473    0.630816
  H     -1.079026   -1.378477    0.075071

 Multiplicity           Mult            ....    1
 Number of Electrons    NEL             ....   18
 Basis Dimension        Dim             ....  172

ORBITAL ENERGIES
----------------

  NO   OCC          E(Eh)            E(eV)
   0   2.0000     -19.225805      -523.1608
   1   2.0000     -10.315775      -280.7065
   2   2.0000      -1.138053       -30.9680
   3   2.0000      -0.800552       -21.7841
   4   2.0000      -0.619088       -16.8463
   5   2.0000      -0.536030       -14.5861
   6   2.0000      -0.523649       -14.2492
   7   2.0000      -0.433785       -11.8039
   8   2.0000      -0.373633       -10.1671
   9   0.0000       0.082146         2.2353
  10   0.0000       0.120184         3.2704
  11   0.0000       0.151194         4.1142
  12   0.0000       0.185319         5.0428
  13   0.0000       0.188855         5.1390

MULLIKEN ATOMIC CHARGES
-----------------------
   0 C :    0.000584
   1 O :    0.000461
   2 H :   -0.004614
   3 H :   -0.000050
   4 H :   -0.000018
   5 H :    0.000001
   6 C :   -0.172552
   7 O :   -0.472343
   8 H :    0.308834
   9 H :    0.113002
  10 H :    0.122285
  11 H :    0.104408
Sum of atomic charges:    0.0000000

LOEWDIN ATOMIC CHARGES
----------------------
   0 C :   -0.000044
   1 O :   -0.000724
   2 H :   -0.003045
   3 H :   -0.000003
   4 H :   -0.000002
   5 H :   -0.000005
   6 C :   -0.376801
   7 O :   -0.062518
   8 H :    0.140155
   9 H :    0.087709
  10 H :    0.112750
  11 H :    0.102528

  Mayer bond orders larger than 0.1
B(  6-C ,  7-O ) :   0.9958 B(  6-C ,  9-H ) :   0.9737 B(  6-C , 10-H ) :   0.9760
B(  6-C , 11-H ) :   0.9754 B(  7-O ,  8-H ) :   0.9069

Dispersion correction           -0.000262726
FINAL SINGLE POINT ENERGY      -115.733288513271

DIPOLE MOMENT
-------------
                                X             Y             Z
Electronic contribution:     -1.07124       0.99596       1.07249
Nuclear contribution   :      1.01431      -0.95834      -1.75021
                        -----------------------------------------
Total Dipole Moment    :     -0.05693       0.03762      -0.67772
                        -----------------------------------------
Magnitude (a.u.)       :      0.68114
Magnitude (Debye)      :      1.73133

Rotational constants in cm-1:     4.385008     0.813427     0.792746
Rotational constants in MHz : 131459.229716 24385.925554 23765.931087

                             ****ORCA TERMINATED NORMALLY****
TOTAL RUN TIME: 0 days 0 hours 1 minutes 1 seconds 25 msec
