                         Program Version 4.1.2  - RELEASE  -
|  1> #Run DFT-D3 single point of the dimer
|  2> ! wB97X-D3 def2-TZVP TIGHTSCF CHELPG PMODEL PAL8
|  3>
|  4> %base "8-194_DFT_AB"
|  5>
|  6> %scf
|  7> MaxIter 1000
|  8> end
|  9>
| 10> * xyz 0 1
| 11>   C                      -1.523092            -3.085054            -4.626806
| 12>   O                      -0.408437            -2.272487            -4.951602
| 13>   H                      -0.333065            -2.187968            -5.897498
| 14>   H                      -1.220030            -4.200989            -4.574410
| 15>   H                      -1.929081            -2.720365            -3.656074
| 16>   H                      -2.337389            -2.885458            -5.353517
| 17>   C                      1.869562             -4.630558            -4.013611
| 18>   O                      1.998488             -3.268372            -4.385028
| 19>   H                      1.149634             -2.862455            -4.349117
| 20>   H                      2.789057             -5.156412            -4.388063
| 21>   H                      1.701036             -4.752790            -2.961769
| 22>   H                      1.020098             -5.155330            -4.497702
| 23> *
| 24>
| 25> #Run DFT-D3 single point of the molecule with dimer basis set
| 26> $new_job
| 27> %base "8-194_DFT_A"
| 28> ! wB97X-D3 def2-TZVP TIGHTSCF CHELPG PMODEL
| 29>
| 30> %scf
| 31> MaxIter 1000
| 32> end
| 33>
| 34> * xyz 0 1
| 35>   C                      -1.523092            -3.085054            -4.626806
| 36>   O                      -0.408437            -2.272487            -4.951602
| 37>   H                      -0.333065            -2.187968            -5.897498
| 38>   H                      -1.220030            -4.200989            -4.574410
| 39>   H                      -1.929081            -2.720365            -3.656074
| 40>   H                      -2.337389            -2.885458            -5.353517
| 41>   C                    : 1.869562             -4.630558            -4.013611
| 42>   O                    : 1.998488             -3.268372            -4.385028
| 43>   H                    : 1.149634             -2.862455            -4.349117
| 44>   H                    : 2.789057             -5.156412            -4.388063
| 45>   H                    : 1.701036             -4.752790            -2.961769
| 46>   H                    : 1.020098             -5.155330            -4.497702
| 47> *
| 48>
| 49> #Run DFT-D3 single point of the particle with dimer basis set
| 50> $new_job
| 51> %base "8-194_DFT_B"
| 52> ! wB97X-D3 def2-TZVP TIGHTSCF CHELPG PMODEL
| 53>
| 54> %scf
| 55> MaxIter 1000
| 56> end
| 57>
| 58> * xyz 0 1
| 59>   C                    : -1.523092            -3.085054            -4.626806
| 60>   O                    : -0.408437            -2.272487            -4.951602
| 61>   H                    : -0.333065            -2.187968            -5.897498
| 62>   H                    : -1.220030            -4.200989            -4.574410
| 63>   H                    : -1.929081            -2.720365            -3.656074
| 64>   H                    : -2.337389            -2.885458            -5.353517
| 65>   C                      1.869562             -4.630558            -4.013611
| 66>   O                      1.998488             -3.268372            -4.385028
| 67>   H                      1.149634             -2.862455            -4.349117
| 68>   H                      2.789057             -5.156412            -4.388063
| 69>   H                      1.701036             -4.752790            -2.961769
| 70>   H                      1.020098             -5.155330            -4.497702
| 71> *
| 72>
| 73>                          ****END OF INPUT****
 Total Charge           Charge          ....    0
 Multiplicity           Mult            ....    1
 Number of Electrons    NEL             ....   36
Dispersion correction           -0.002131438
FINAL SINGLE POINT ENERGY      -231.475060144493
Dispersion correction           -0.000255312
FINAL SINGLE POINT ENERGY      -115.733464356471

CARTESIAN COORDINATES (ANGSTROEM)
---------------------------------
  C     -1.523092   -3.085054   -4.626806
  O     -0.408437   -2.272487   -4.951602
  H     -0.333065   -2.187968   -5.897498
  H     -1.220030   -4.200989   -4.574410
  H     -1.929081   -2.720365   -3.656074
  H     -2.337389   -2.885458   -5.353517
  C      1.869562   -4.630558   -4.013611
  O      1.998488   -3.268372   -4.385028
  H      1.149634   -2.862455   -4.349117
  H      2.789057   -5.156412   -4.388063
  H      1.701036   -4.752790   -2.961769
  H      1.020098   -5.155330   -4.497702

 Multiplicity           Mult            ....    1
 Number of Electrons    NEL             ....   18
 Basis Dimension        Dim             ....  172

ORBITAL ENERGIES
----------------

  NO   OCC          E(Eh)            E(eV)
   0   2.0000     -19.230303      -523.2832
   1   2.0000     -10.316267      -280.7199
   2   2.0000      -1.139240       -31.0003
   3   2.0000      -0.796476       -21.6732
   4   2.0000      -0.616418       -16.7736
   5   2.0000      -0.543524       -14.7900
   6   2.0000      -0.519222       -14.1287
   7   2.0000      -0.435248       -11.8437
   8   2.0000      -0.376121       -10.2348
   9   0.0000       0.071063         1.9337
  10   0.0000       0.141867         3.8604
  11   0.0000       0.146023         3.9735
  12   0.0000       0.167357         4.5540
  13   0.0000       0.189448         5.1552

MULLIKEN ATOMIC CHARGES
-----------------------
   0 C :   -0.002509
   1 O :   -0.007185
   2 H :   -0.001745
   3 H :    0.000281
   4 H :    0.000130
   5 H :    0.000010
   6 C :   -0.172127
   7 O :   -0.464283
   8 H :    0.312476
   9 H :    0.124114
  10 H :    0.109689
  11 H :    0.101150
Sum of atomic charges:    0.0000000

LOEWDIN ATOMIC CHARGES
----------------------
   0 C :   -0.007443
   1 O :   -0.030616
   2 H :   -0.003799
   3 H :   -0.003704
   4 H :   -0.000159
   5 H :   -0.000129
   6 C :   -0.380771
   7 O :   -0.049477
   8 H :    0.169767
   9 H :    0.116963
  10 H :    0.090606
  11 H :    0.098761

  Mayer bond orders larger than 0.1
B(  6-C ,  7-O ) :   0.9955 B(  6-C ,  9-H ) :   0.9733 B(  6-C , 10-H ) :   0.9767
B(  6-C , 11-H ) :   0.9720 B(  7-O ,  8-H ) :   0.9077

Dispersion correction           -0.000247286
FINAL SINGLE POINT ENERGY      -115.735429759790

DIPOLE MOMENT
-------------
                                X             Y             Z
Electronic contribution:      0.31603       1.76443      -0.41163
Nuclear contribution   :     -0.91145      -2.05445       0.57664
                        -----------------------------------------
Total Dipole Moment    :     -0.59542      -0.29002       0.16501
                        -----------------------------------------
Magnitude (a.u.)       :      0.68254
Magnitude (Debye)      :      1.73489

Rotational constants in cm-1:     4.293421     0.827103     0.794324
Rotational constants in MHz : 128713.518248 24795.928203 23813.240094

                             ****ORCA TERMINATED NORMALLY****
TOTAL RUN TIME: 0 days 0 hours 0 minutes 48 seconds 741 msec
