                         Program Version 4.1.2  - RELEASE  -
|  1> #Run DFT-D3 single point of the dimer
|  2> ! wB97X-D3 def2-TZVP TIGHTSCF CHELPG PMODEL PAL8
|  3>
|  4> %base "18-65_DFT_AB"
|  5>
|  6> %scf
|  7> MaxIter 1000
|  8> end
|  9>
| 10> * xyz 0 1
| 11>   C                      1.360282             -4.777872            -0.154041
| 12>   O                      0.112124             -4.454516            0.466890
| 13>   H                      0.255263             -3.645348            0.929075
| 14>   H                      1.579164             -4.006664            -0.829384
| 15>   H                      2.089112             -4.804114            0.602860
| 16>   H                      1.466500             -5.741228            -0.685839
| 17>   C                      3.003348             -9.879863            1.825211
| 18>   O                      3.065224             -11.211353           1.365067
| 19>   H                      2.954183             -11.783072           2.133000
| 20>   H                      2.000786             -9.611904            2.186784
| 21>   H                      3.662918             -9.671749            2.682948
| 22>   H                      3.254311             -9.203607            1.003556
| 23> *
| 24>
| 25> #Run DFT-D3 single point of the molecule with dimer basis set
| 26> $new_job
| 27> %base "18-65_DFT_A"
| 28> ! wB97X-D3 def2-TZVP TIGHTSCF CHELPG PMODEL
| 29>
| 30> %scf
| 31> MaxIter 1000
| 32> end
| 33>
| 34> * xyz 0 1
| 35>   C                      1.360282             -4.777872            -0.154041
| 36>   O                      0.112124             -4.454516            0.466890
| 37>   H                      0.255263             -3.645348            0.929075
| 38>   H                      1.579164             -4.006664            -0.829384
| 39>   H                      2.089112             -4.804114            0.602860
| 40>   H                      1.466500             -5.741228            -0.685839
| 41>   C                    : 3.003348             -9.879863            1.825211
| 42>   O                    : 3.065224             -11.211353           1.365067
| 43>   H                    : 2.954183             -11.783072           2.133000
| 44>   H                    : 2.000786             -9.611904            2.186784
| 45>   H                    : 3.662918             -9.671749            2.682948
| 46>   H                    : 3.254311             -9.203607            1.003556
| 47> *
| 48>
| 49> #Run DFT-D3 single point of the particle with dimer basis set
| 50> $new_job
| 51> %base "18-65_DFT_B"
| 52> ! wB97X-D3 def2-TZVP TIGHTSCF CHELPG PMODEL
| 53>
| 54> %scf
| 55> MaxIter 1000
| 56> end
| 57>
| 58> * xyz 0 1
| 59>   C                    : 1.360282             -4.777872            -0.154041
| 60>   O                    : 0.112124             -4.454516            0.466890
| 61>   H                    : 0.255263             -3.645348            0.929075
| 62>   H                    : 1.579164             -4.006664            -0.829384
| 63>   H                    : 2.089112             -4.804114            0.602860
| 64>   H                    : 1.466500             -5.741228            -0.685839
| 65>   C                      3.003348             -9.879863            1.825211
| 66>   O                      3.065224             -11.211353           1.365067
| 67>   H                      2.954183             -11.783072           2.133000
| 68>   H                      2.000786             -9.611904            2.186784
| 69>   H                      3.662918             -9.671749            2.682948
| 70>   H                      3.254311             -9.203607            1.003556
| 71> *
| 72>
| 73>                          ****END OF INPUT****
 Total Charge           Charge          ....    0
 Multiplicity           Mult            ....    1
 Number of Electrons    NEL             ....   36
Dispersion correction           -0.000594390
FINAL SINGLE POINT ENERGY      -231.465362239871
Dispersion correction           -0.000217386
FINAL SINGLE POINT ENERGY      -115.728410679588

CARTESIAN COORDINATES (ANGSTROEM)
---------------------------------
  C      1.360282   -4.777872   -0.154041
  O      0.112124   -4.454516    0.466890
  H      0.255263   -3.645348    0.929075
  H      1.579164   -4.006664   -0.829384
  H      2.089112   -4.804114    0.602860
  H      1.466500   -5.741228   -0.685839
  C      3.003348   -9.879863    1.825211
  O      3.065224  -11.211353    1.365067
  H      2.954183  -11.783072    2.133000
  H      2.000786   -9.611904    2.186784
  H      3.662918   -9.671749    2.682948
  H      3.254311   -9.203607    1.003556

 Multiplicity           Mult            ....    1
 Number of Electrons    NEL             ....   18
 Basis Dimension        Dim             ....  172

ORBITAL ENERGIES
----------------

  NO   OCC          E(Eh)            E(eV)
   0   2.0000     -19.231949      -523.3279
   1   2.0000     -10.314052      -280.6596
   2   2.0000      -1.137745       -30.9596
   3   2.0000      -0.794132       -21.6094
   4   2.0000      -0.613990       -16.7075
   5   2.0000      -0.535509       -14.5719
   6   2.0000      -0.528071       -14.3695
   7   2.0000      -0.438371       -11.9287
   8   2.0000      -0.372390       -10.1332
   9   0.0000       0.085149         2.3170
  10   0.0000       0.114961         3.1282
  11   0.0000       0.145451         3.9579
  12   0.0000       0.168750         4.5919
  13   0.0000       0.195811         5.3283

MULLIKEN ATOMIC CHARGES
-----------------------
   0 C :    0.000014
   1 O :    0.000001
   2 H :    0.000000
   3 H :   -0.000002
   4 H :   -0.000008
   5 H :   -0.000052
   6 C :   -0.163102
   7 O :   -0.469632
   8 H :    0.314348
   9 H :    0.095673
  10 H :    0.100276
  11 H :    0.122484
Sum of atomic charges:    0.0000000

LOEWDIN ATOMIC CHARGES
----------------------
   0 C :   -0.000021
   1 O :   -0.000001
   2 H :   -0.000000
   3 H :   -0.000000
   4 H :   -0.000006
   5 H :   -0.000024
   6 C :   -0.392950
   7 O :   -0.074854
   8 H :    0.171716
   9 H :    0.092546
  10 H :    0.094359
  11 H :    0.109235

  Mayer bond orders larger than 0.1
B(  6-C ,  7-O ) :   1.0025 B(  6-C ,  9-H ) :   0.9753 B(  6-C , 10-H ) :   0.9748
B(  6-C , 11-H ) :   0.9736 B(  7-O ,  8-H ) :   0.8993

Dispersion correction           -0.000241472
FINAL SINGLE POINT ENERGY      -115.736807267382

DIPOLE MOMENT
-------------
                                X             Y             Z
Electronic contribution:      0.14118      -1.70941      -0.77574
Nuclear contribution   :     -0.23121       1.86959       1.43702
                        -----------------------------------------
Total Dipole Moment    :     -0.09004       0.16018       0.66128
                        -----------------------------------------
Magnitude (a.u.)       :      0.68633
Magnitude (Debye)      :      1.74452

Rotational constants in cm-1:     4.293370     0.834252     0.798816
Rotational constants in MHz : 128711.998194 25010.258788 23947.896427

                             ****ORCA TERMINATED NORMALLY****
TOTAL RUN TIME: 0 days 0 hours 0 minutes 50 seconds 770 msec
