                         Program Version 4.1.2  - RELEASE  -
|  1> #Run DFT-D3 single point of the dimer
|  2> ! wB97X-D3 def2-TZVP TIGHTSCF CHELPG PMODEL PAL8
|  3>
|  4> %base "16-116_DFT_AB"
|  5>
|  6> %scf
|  7> MaxIter 1000
|  8> end
|  9>
| 10> * xyz 0 1
| 11>   C                      8.171341             -2.866437            10.761363
| 12>   O                      8.768509             -1.730404            10.103269
| 13>   H                      8.833722             -1.952855            9.157692
| 14>   H                      8.945572             -3.510816            11.283020
| 15>   H                      7.487965             -2.440184            11.449650
| 16>   H                      7.546740             -3.462336            10.028059
| 17>   C                      3.782099             -1.689490            9.960566
| 18>   O                      4.097755             -0.392329            10.347687
| 19>   H                      4.260584             -0.359440            11.272077
| 20>   H                      4.633895             -2.380026            10.094149
| 21>   H                      3.013281             -2.018610            10.629541
| 22>   H                      3.443816             -1.794672            8.939361
| 23> *
| 24>
| 25> #Run DFT-D3 single point of the molecule with dimer basis set
| 26> $new_job
| 27> %base "16-116_DFT_A"
| 28> ! wB97X-D3 def2-TZVP TIGHTSCF CHELPG PMODEL
| 29>
| 30> %scf
| 31> MaxIter 1000
| 32> end
| 33>
| 34> * xyz 0 1
| 35>   C                      8.171341             -2.866437            10.761363
| 36>   O                      8.768509             -1.730404            10.103269
| 37>   H                      8.833722             -1.952855            9.157692
| 38>   H                      8.945572             -3.510816            11.283020
| 39>   H                      7.487965             -2.440184            11.449650
| 40>   H                      7.546740             -3.462336            10.028059
| 41>   C                    : 3.782099             -1.689490            9.960566
| 42>   O                    : 4.097755             -0.392329            10.347687
| 43>   H                    : 4.260584             -0.359440            11.272077
| 44>   H                    : 4.633895             -2.380026            10.094149
| 45>   H                    : 3.013281             -2.018610            10.629541
| 46>   H                    : 3.443816             -1.794672            8.939361
| 47> *
| 48>
| 49> #Run DFT-D3 single point of the particle with dimer basis set
| 50> $new_job
| 51> %base "16-116_DFT_B"
| 52> ! wB97X-D3 def2-TZVP TIGHTSCF CHELPG PMODEL
| 53>
| 54> %scf
| 55> MaxIter 1000
| 56> end
| 57>
| 58> * xyz 0 1
| 59>   C                    : 8.171341             -2.866437            10.761363
| 60>   O                    : 8.768509             -1.730404            10.103269
| 61>   H                    : 8.833722             -1.952855            9.157692
| 62>   H                    : 8.945572             -3.510816            11.283020
| 63>   H                    : 7.487965             -2.440184            11.449650
| 64>   H                    : 7.546740             -3.462336            10.028059
| 65>   C                      3.782099             -1.689490            9.960566
| 66>   O                      4.097755             -0.392329            10.347687
| 67>   H                      4.260584             -0.359440            11.272077
| 68>   H                      4.633895             -2.380026            10.094149
| 69>   H                      3.013281             -2.018610            10.629541
| 70>   H                      3.443816             -1.794672            8.939361
| 71> *
| 72>
| 73>                          ****END OF INPUT****
 Total Charge           Charge          ....    0
 Multiplicity           Mult            ....    1
 Number of Electrons    NEL             ....   36
Dispersion correction           -0.001114962
FINAL SINGLE POINT ENERGY      -231.465497267210
Dispersion correction           -0.000258477
FINAL SINGLE POINT ENERGY      -115.732139981773

CARTESIAN COORDINATES (ANGSTROEM)
---------------------------------
  C      8.171341   -2.866437   10.761363
  O      8.768509   -1.730404   10.103269
  H      8.833722   -1.952855    9.157692
  H      8.945572   -3.510816   11.283020
  H      7.487965   -2.440184   11.449650
  H      7.546740   -3.462336   10.028059
  C      3.782099   -1.689490    9.960566
  O      4.097755   -0.392329   10.347687
  H      4.260584   -0.359440   11.272077
  H      4.633895   -2.380026   10.094149
  H      3.013281   -2.018610   10.629541
  H      3.443816   -1.794672    8.939361

 Multiplicity           Mult            ....    1
 Number of Electrons    NEL             ....   18
 Basis Dimension        Dim             ....  172

ORBITAL ENERGIES
----------------

  NO   OCC          E(Eh)            E(eV)
   0   2.0000     -19.225370      -523.1489
   1   2.0000     -10.308235      -280.5013
   2   2.0000      -1.145857       -31.1804
   3   2.0000      -0.798852       -21.7379
   4   2.0000      -0.617694       -16.8083
   5   2.0000      -0.545889       -14.8544
   6   2.0000      -0.537263       -14.6197
   7   2.0000      -0.429169       -11.6783
   8   2.0000      -0.369511       -10.0549
   9   0.0000       0.082892         2.2556
  10   0.0000       0.121053         3.2940
  11   0.0000       0.154232         4.1969
  12   0.0000       0.167547         4.5592
  13   0.0000       0.186235         5.0677

MULLIKEN ATOMIC CHARGES
-----------------------
   0 C :    0.001384
   1 O :   -0.000100
   2 H :   -0.000036
   3 H :    0.000108
   4 H :   -0.000058
   5 H :   -0.000924
   6 C :   -0.158353
   7 O :   -0.471783
   8 H :    0.313691
   9 H :    0.091678
  10 H :    0.102859
  11 H :    0.121534
Sum of atomic charges:    0.0000000

LOEWDIN ATOMIC CHARGES
----------------------
   0 C :   -0.000934
   1 O :   -0.000015
   2 H :   -0.000005
   3 H :   -0.000004
   4 H :   -0.000317
   5 H :   -0.000812
   6 C :   -0.395470
   7 O :   -0.052066
   8 H :    0.157691
   9 H :    0.094313
  10 H :    0.091452
  11 H :    0.106167

  Mayer bond orders larger than 0.1
B(  6-C ,  7-O ) :   0.9960 B(  6-C ,  9-H ) :   0.9728 B(  6-C , 10-H ) :   0.9929
B(  6-C , 11-H ) :   0.9703 B(  7-O ,  8-H ) :   0.9010

Dispersion correction           -0.000219134
FINAL SINGLE POINT ENERGY      -115.733128263262

DIPOLE MOMENT
-------------
                                X             Y             Z
Electronic contribution:      0.36838       1.76679       0.27392
Nuclear contribution   :     -0.40620      -2.25278       0.17326
                        -----------------------------------------
Total Dipole Moment    :     -0.03782      -0.48599       0.44718
                        -----------------------------------------
Magnitude (a.u.)       :      0.66150
Magnitude (Debye)      :      1.68140

Rotational constants in cm-1:     4.445734     0.854842     0.824147
Rotational constants in MHz : 133279.751844 25627.523093 24707.308621

                             ****ORCA TERMINATED NORMALLY****
TOTAL RUN TIME: 0 days 0 hours 0 minutes 49 seconds 961 msec
