                         Program Version 4.1.2  - RELEASE  -
|  1> #Run DFT-D3 single point of the dimer
|  2> ! wB97X-D3 def2-TZVP TIGHTSCF CHELPG PMODEL PAL8
|  3>
|  4> %base "19-101_DFT_AB"
|  5>
|  6> %scf
|  7> MaxIter 1000
|  8> end
|  9>
| 10> * xyz 0 1
| 11>   C                      6.919625             2.237632             2.945838
| 12>   O                      7.105568             3.614791             3.004067
| 13>   H                      7.927648             3.903414             2.617584
| 14>   H                      7.422164             1.719098             3.729250
| 15>   H                      5.841692             1.966989             3.041488
| 16>   H                      7.318918             1.785904             1.953686
| 17>   C                      3.339506             -0.048470            6.275912
| 18>   O                      3.366161             0.429073             4.976725
| 19>   H                      3.378025             1.429729             4.990858
| 20>   H                      4.290189             -0.002235            6.806620
| 21>   H                      2.625669             0.565007             6.872106
| 22>   H                      2.973593             -1.060330            6.342800
| 23> *
| 24>
| 25> #Run DFT-D3 single point of the molecule with dimer basis set
| 26> $new_job
| 27> %base "19-101_DFT_A"
| 28> ! wB97X-D3 def2-TZVP TIGHTSCF CHELPG PMODEL
| 29>
| 30> %scf
| 31> MaxIter 1000
| 32> end
| 33>
| 34> * xyz 0 1
| 35>   C                      6.919625             2.237632             2.945838
| 36>   O                      7.105568             3.614791             3.004067
| 37>   H                      7.927648             3.903414             2.617584
| 38>   H                      7.422164             1.719098             3.729250
| 39>   H                      5.841692             1.966989             3.041488
| 40>   H                      7.318918             1.785904             1.953686
| 41>   C                    : 3.339506             -0.048470            6.275912
| 42>   O                    : 3.366161             0.429073             4.976725
| 43>   H                    : 3.378025             1.429729             4.990858
| 44>   H                    : 4.290189             -0.002235            6.806620
| 45>   H                    : 2.625669             0.565007             6.872106
| 46>   H                    : 2.973593             -1.060330            6.342800
| 47> *
| 48>
| 49> #Run DFT-D3 single point of the particle with dimer basis set
| 50> $new_job
| 51> %base "19-101_DFT_B"
| 52> ! wB97X-D3 def2-TZVP TIGHTSCF CHELPG PMODEL
| 53>
| 54> %scf
| 55> MaxIter 1000
| 56> end
| 57>
| 58> * xyz 0 1
| 59>   C                    : 6.919625             2.237632             2.945838
| 60>   O                    : 7.105568             3.614791             3.004067
| 61>   H                    : 7.927648             3.903414             2.617584
| 62>   H                    : 7.422164             1.719098             3.729250
| 63>   H                    : 5.841692             1.966989             3.041488
| 64>   H                    : 7.318918             1.785904             1.953686
| 65>   C                      3.339506             -0.048470            6.275912
| 66>   O                      3.366161             0.429073             4.976725
| 67>   H                      3.378025             1.429729             4.990858
| 68>   H                      4.290189             -0.002235            6.806620
| 69>   H                      2.625669             0.565007             6.872106
| 70>   H                      2.973593             -1.060330            6.342800
| 71> *
| 72>
| 73>                          ****END OF INPUT****
 Total Charge           Charge          ....    0
 Multiplicity           Mult            ....    1
 Number of Electrons    NEL             ....   36
Dispersion correction           -0.000900390
FINAL SINGLE POINT ENERGY      -231.467077844466
Dispersion correction           -0.000256335
FINAL SINGLE POINT ENERGY      -115.732647620194

CARTESIAN COORDINATES (ANGSTROEM)
---------------------------------
  C      6.919625    2.237632    2.945838
  O      7.105568    3.614791    3.004067
  H      7.927648    3.903414    2.617584
  H      7.422164    1.719098    3.729250
  H      5.841692    1.966989    3.041488
  H      7.318918    1.785904    1.953686
  C      3.339506   -0.048470    6.275912
  O      3.366161    0.429073    4.976725
  H      3.378025    1.429729    4.990858
  H      4.290189   -0.002235    6.806620
  H      2.625669    0.565007    6.872106
  H      2.973593   -1.060330    6.342800

 Multiplicity           Mult            ....    1
 Number of Electrons    NEL             ....   18
 Basis Dimension        Dim             ....  172

ORBITAL ENERGIES
----------------

  NO   OCC          E(Eh)            E(eV)
   0   2.0000     -19.234281      -523.3914
   1   2.0000     -10.310514      -280.5634
   2   2.0000      -1.138341       -30.9758
   3   2.0000      -0.792090       -21.5539
   4   2.0000      -0.612833       -16.6760
   5   2.0000      -0.541939       -14.7469
   6   2.0000      -0.534929       -14.5562
   7   2.0000      -0.427014       -11.6197
   8   2.0000      -0.371049       -10.0968
   9   0.0000       0.085773         2.3340
  10   0.0000       0.112060         3.0493
  11   0.0000       0.151419         4.1203
  12   0.0000       0.171026         4.6539
  13   0.0000       0.196740         5.3536

MULLIKEN ATOMIC CHARGES
-----------------------
   0 C :    0.001427
   1 O :   -0.000009
   2 H :   -0.000001
   3 H :   -0.000073
   4 H :   -0.004443
   5 H :   -0.000149
   6 C :   -0.157994
   7 O :   -0.469530
   8 H :    0.322883
   9 H :    0.097253
  10 H :    0.091877
  11 H :    0.118759
Sum of atomic charges:   -0.0000000

LOEWDIN ATOMIC CHARGES
----------------------
   0 C :   -0.000650
   1 O :   -0.000013
   2 H :   -0.000001
   3 H :   -0.000040
   4 H :   -0.001785
   5 H :   -0.000007
   6 C :   -0.412802
   7 O :   -0.072252
   8 H :    0.196451
   9 H :    0.090817
  10 H :    0.096423
  11 H :    0.103859

  Mayer bond orders larger than 0.1
B(  6-C ,  7-O ) :   1.0095 B(  6-C ,  9-H ) :   0.9696 B(  6-C , 10-H ) :   0.9891
B(  6-C , 11-H ) :   0.9717 B(  7-O ,  8-H ) :   0.8874

Dispersion correction           -0.000237689
FINAL SINGLE POINT ENERGY      -115.733351321521

DIPOLE MOMENT
-------------
                                X             Y             Z
Electronic contribution:      0.09941       0.40391      -1.84357
Nuclear contribution   :     -0.12397       0.03170       2.34996
                        -----------------------------------------
Total Dipole Moment    :     -0.02456       0.43562       0.50639
                        -----------------------------------------
Magnitude (a.u.)       :      0.66843
Magnitude (Debye)      :      1.69901

Rotational constants in cm-1:     4.314128     0.851549     0.819061
Rotational constants in MHz : 129334.310159 25528.798140 24554.828090

                             ****ORCA TERMINATED NORMALLY****
TOTAL RUN TIME: 0 days 0 hours 0 minutes 47 seconds 773 msec
