                         Program Version 4.1.2  - RELEASE  -
|  1> #Run DFT-D3 single point of the dimer
|  2> ! wB97X-D3 def2-TZVP TIGHTSCF CHELPG PMODEL PAL8
|  3>
|  4> %base "5-173_DFT_AB"
|  5>
|  6> %scf
|  7> MaxIter 1000
|  8> end
|  9>
| 10> * xyz 0 1
| 11>   C                      -3.990557            2.539850             -3.509310
| 12>   O                      -2.734901            3.263843             -3.827585
| 13>   H                      -2.021103            2.943012             -3.267228
| 14>   H                      -4.692561            2.625681             -4.328184
| 15>   H                      -3.867786            1.490067             -3.387130
| 16>   H                      -4.497912            2.792353             -2.572181
| 17>   C                      -3.821677            6.233248             -5.358591
| 18>   O                      -2.479751            6.079981             -5.019133
| 19>   H                      -2.364337            5.272735             -4.519408
| 20>   H                      -4.066445            5.743584             -6.270756
| 21>   H                      -4.452980            5.822695             -4.568064
| 22>   H                      -3.995111            7.286955             -5.595354
| 23> *
| 24>
| 25> #Run DFT-D3 single point of the molecule with dimer basis set
| 26> $new_job
| 27> %base "5-173_DFT_A"
| 28> ! wB97X-D3 def2-TZVP TIGHTSCF CHELPG PMODEL
| 29>
| 30> %scf
| 31> MaxIter 1000
| 32> end
| 33>
| 34> * xyz 0 1
| 35>   C                      -3.990557            2.539850             -3.509310
| 36>   O                      -2.734901            3.263843             -3.827585
| 37>   H                      -2.021103            2.943012             -3.267228
| 38>   H                      -4.692561            2.625681             -4.328184
| 39>   H                      -3.867786            1.490067             -3.387130
| 40>   H                      -4.497912            2.792353             -2.572181
| 41>   C                    : -3.821677            6.233248             -5.358591
| 42>   O                    : -2.479751            6.079981             -5.019133
| 43>   H                    : -2.364337            5.272735             -4.519408
| 44>   H                    : -4.066445            5.743584             -6.270756
| 45>   H                    : -4.452980            5.822695             -4.568064
| 46>   H                    : -3.995111            7.286955             -5.595354
| 47> *
| 48>
| 49> #Run DFT-D3 single point of the particle with dimer basis set
| 50> $new_job
| 51> %base "5-173_DFT_B"
| 52> ! wB97X-D3 def2-TZVP TIGHTSCF CHELPG PMODEL
| 53>
| 54> %scf
| 55> MaxIter 1000
| 56> end
| 57>
| 58> * xyz 0 1
| 59>   C                    : -3.990557            2.539850             -3.509310
| 60>   O                    : -2.734901            3.263843             -3.827585
| 61>   H                    : -2.021103            2.943012             -3.267228
| 62>   H                    : -4.692561            2.625681             -4.328184
| 63>   H                    : -3.867786            1.490067             -3.387130
| 64>   H                    : -4.497912            2.792353             -2.572181
| 65>   C                      -3.821677            6.233248             -5.358591
| 66>   O                      -2.479751            6.079981             -5.019133
| 67>   H                      -2.364337            5.272735             -4.519408
| 68>   H                      -4.066445            5.743584             -6.270756
| 69>   H                      -4.452980            5.822695             -4.568064
| 70>   H                      -3.995111            7.286955             -5.595354
| 71> *
| 72>
| 73>                          ****END OF INPUT****
 Total Charge           Charge          ....    0
 Multiplicity           Mult            ....    1
 Number of Electrons    NEL             ....   36
Dispersion correction           -0.001869129
FINAL SINGLE POINT ENERGY      -231.471826137479
Dispersion correction           -0.000296156
FINAL SINGLE POINT ENERGY      -115.729691139382

CARTESIAN COORDINATES (ANGSTROEM)
---------------------------------
  C     -3.990557    2.539850   -3.509310
  O     -2.734901    3.263843   -3.827585
  H     -2.021103    2.943012   -3.267228
  H     -4.692561    2.625681   -4.328184
  H     -3.867786    1.490067   -3.387130
  H     -4.497912    2.792353   -2.572181
  C     -3.821677    6.233248   -5.358591
  O     -2.479751    6.079981   -5.019133
  H     -2.364337    5.272735   -4.519408
  H     -4.066445    5.743584   -6.270756
  H     -4.452980    5.822695   -4.568064
  H     -3.995111    7.286955   -5.595354

 Multiplicity           Mult            ....    1
 Number of Electrons    NEL             ....   18
 Basis Dimension        Dim             ....  172

ORBITAL ENERGIES
----------------

  NO   OCC          E(Eh)            E(eV)
   0   2.0000     -19.227316      -523.2019
   1   2.0000     -10.307169      -280.4723
   2   2.0000      -1.141824       -31.0706
   3   2.0000      -0.797734       -21.7074
   4   2.0000      -0.616503       -16.7759
   5   2.0000      -0.547232       -14.8909
   6   2.0000      -0.529391       -14.4055
   7   2.0000      -0.433307       -11.7909
   8   2.0000      -0.369565       -10.0564
   9   0.0000       0.066854         1.8192
  10   0.0000       0.130870         3.5612
  11   0.0000       0.141446         3.8489
  12   0.0000       0.179282         4.8785
  13   0.0000       0.186059         5.0629

MULLIKEN ATOMIC CHARGES
-----------------------
   0 C :   -0.000340
   1 O :   -0.003108
   2 H :   -0.000460
   3 H :   -0.000151
   4 H :    0.000028
   5 H :   -0.000066
   6 C :   -0.150267
   7 O :   -0.473739
   8 H :    0.313085
   9 H :    0.096743
  10 H :    0.100828
  11 H :    0.117444
Sum of atomic charges:    0.0000000

LOEWDIN ATOMIC CHARGES
----------------------
   0 C :   -0.002129
   1 O :   -0.012042
   2 H :   -0.001055
   3 H :   -0.000284
   4 H :   -0.000027
   5 H :   -0.000069
   6 C :   -0.393497
   7 O :   -0.055126
   8 H :    0.170355
   9 H :    0.087726
  10 H :    0.096900
  11 H :    0.109249

  Mayer bond orders larger than 0.1
B(  6-C ,  7-O ) :   0.9933 B(  6-C ,  9-H ) :   0.9748 B(  6-C , 10-H ) :   0.9850
B(  6-C , 11-H ) :   0.9774 B(  7-O ,  8-H ) :   0.9075

Dispersion correction           -0.000226225
FINAL SINGLE POINT ENERGY      -115.734281604460

DIPOLE MOMENT
-------------
                                X             Y             Z
Electronic contribution:      1.71958      -0.08304       0.41617
Nuclear contribution   :     -2.17025      -0.37543      -0.23948
                        -----------------------------------------
Total Dipole Moment    :     -0.45067      -0.45847       0.17669
                        -----------------------------------------
Magnitude (a.u.)       :      0.66672
Magnitude (Debye)      :      1.69467

Rotational constants in cm-1:     4.362127     0.862609     0.819230
Rotational constants in MHz : 130773.289270 25860.372295 24559.903109

                             ****ORCA TERMINATED NORMALLY****
TOTAL RUN TIME: 0 days 0 hours 0 minutes 56 seconds 351 msec
