                         Program Version 4.1.2  - RELEASE  -
|  1> #Run DFT-D3 single point of the dimer
|  2> ! wB97X-D3 def2-TZVP TIGHTSCF CHELPG PMODEL PAL8
|  3>
|  4> %base "3-118_DFT_AB"
|  5>
|  6> %scf
|  7> MaxIter 1000
|  8> end
|  9>
| 10> * xyz 0 1
| 11>   C                      3.223815             -1.120758            5.515775
| 12>   O                      2.667111             -0.042912            6.132013
| 13>   H                      1.858254             0.090101             5.682670
| 14>   H                      3.470362             -1.950153            6.248320
| 15>   H                      2.540332             -1.571278            4.775863
| 16>   H                      4.135189             -0.855422            5.051932
| 17>   C                      0.950948             -3.319941            8.340230
| 18>   O                      1.689084             -4.526680            8.530754
| 19>   H                      1.756726             -4.672052            9.437307
| 20>   H                      0.546774             -3.197701            7.363918
| 21>   H                      0.064719             -3.277361            8.944016
| 22>   H                      1.442575             -2.422004            8.557518
| 23> *
| 24>
| 25> #Run DFT-D3 single point of the molecule with dimer basis set
| 26> $new_job
| 27> %base "3-118_DFT_A"
| 28> ! wB97X-D3 def2-TZVP TIGHTSCF CHELPG PMODEL
| 29>
| 30> %scf
| 31> MaxIter 1000
| 32> end
| 33>
| 34> * xyz 0 1
| 35>   C                      3.223815             -1.120758            5.515775
| 36>   O                      2.667111             -0.042912            6.132013
| 37>   H                      1.858254             0.090101             5.682670
| 38>   H                      3.470362             -1.950153            6.248320
| 39>   H                      2.540332             -1.571278            4.775863
| 40>   H                      4.135189             -0.855422            5.051932
| 41>   C                    : 0.950948             -3.319941            8.340230
| 42>   O                    : 1.689084             -4.526680            8.530754
| 43>   H                    : 1.756726             -4.672052            9.437307
| 44>   H                    : 0.546774             -3.197701            7.363918
| 45>   H                    : 0.064719             -3.277361            8.944016
| 46>   H                    : 1.442575             -2.422004            8.557518
| 47> *
| 48>
| 49> #Run DFT-D3 single point of the particle with dimer basis set
| 50> $new_job
| 51> %base "3-118_DFT_B"
| 52> ! wB97X-D3 def2-TZVP TIGHTSCF CHELPG PMODEL
| 53>
| 54> %scf
| 55> MaxIter 1000
| 56> end
| 57>
| 58> * xyz 0 1
| 59>   C                    : 3.223815             -1.120758            5.515775
| 60>   O                    : 2.667111             -0.042912            6.132013
| 61>   H                    : 1.858254             0.090101             5.682670
| 62>   H                    : 3.470362             -1.950153            6.248320
| 63>   H                    : 2.540332             -1.571278            4.775863
| 64>   H                    : 4.135189             -0.855422            5.051932
| 65>   C                      0.950948             -3.319941            8.340230
| 66>   O                      1.689084             -4.526680            8.530754
| 67>   H                      1.756726             -4.672052            9.437307
| 68>   H                      0.546774             -3.197701            7.363918
| 69>   H                      0.064719             -3.277361            8.944016
| 70>   H                      1.442575             -2.422004            8.557518
| 71> *
| 72>
| 73>                          ****END OF INPUT****
 Total Charge           Charge          ....    0
 Multiplicity           Mult            ....    1
 Number of Electrons    NEL             ....   36
Dispersion correction           -0.001330185
FINAL SINGLE POINT ENERGY      -231.461311072082
Dispersion correction           -0.000219620
FINAL SINGLE POINT ENERGY      -115.730543261384

CARTESIAN COORDINATES (ANGSTROEM)
---------------------------------
  C      3.223815   -1.120758    5.515775
  O      2.667111   -0.042912    6.132013
  H      1.858254    0.090101    5.682670
  H      3.470362   -1.950153    6.248320
  H      2.540332   -1.571278    4.775863
  H      4.135189   -0.855422    5.051932
  C      0.950948   -3.319941    8.340230
  O      1.689084   -4.526680    8.530754
  H      1.756726   -4.672052    9.437307
  H      0.546774   -3.197701    7.363918
  H      0.064719   -3.277361    8.944016
  H      1.442575   -2.422004    8.557518

 Multiplicity           Mult            ....    1
 Number of Electrons    NEL             ....   18
 Basis Dimension        Dim             ....  172

ORBITAL ENERGIES
----------------

  NO   OCC          E(Eh)            E(eV)
   0   2.0000     -19.229588      -523.2637
   1   2.0000     -10.303836      -280.3816
   2   2.0000      -1.141184       -31.0532
   3   2.0000      -0.811012       -22.0688
   4   2.0000      -0.618836       -16.8394
   5   2.0000      -0.542039       -14.7496
   6   2.0000      -0.530388       -14.4326
   7   2.0000      -0.437203       -11.8969
   8   2.0000      -0.378858       -10.3092
   9   0.0000       0.086337         2.3494
  10   0.0000       0.123167         3.3516
  11   0.0000       0.152100         4.1389
  12   0.0000       0.174031         4.7356
  13   0.0000       0.183921         5.0047

MULLIKEN ATOMIC CHARGES
-----------------------
   0 C :   -0.001726
   1 O :    0.000176
   2 H :   -0.000039
   3 H :    0.001429
   4 H :    0.000012
   5 H :    0.000058
   6 C :   -0.170990
   7 O :   -0.469061
   8 H :    0.307618
   9 H :    0.119501
  10 H :    0.105704
  11 H :    0.107318
Sum of atomic charges:    0.0000000

LOEWDIN ATOMIC CHARGES
----------------------
   0 C :   -0.001025
   1 O :   -0.000154
   2 H :   -0.000082
   3 H :   -0.000421
   4 H :   -0.000103
   5 H :   -0.000006
   6 C :   -0.366518
   7 O :   -0.060077
   8 H :    0.143340
   9 H :    0.104401
  10 H :    0.094423
  11 H :    0.086221

  Mayer bond orders larger than 0.1
B(  6-C ,  7-O ) :   0.9985 B(  6-C ,  9-H ) :   0.9761 B(  6-C , 10-H ) :   0.9816
B(  6-C , 11-H ) :   0.9743 B(  7-O ,  8-H ) :   0.9096

Dispersion correction           -0.000246817
FINAL SINGLE POINT ENERGY      -115.729450273926

DIPOLE MOMENT
-------------
                                X             Y             Z
Electronic contribution:      1.08992      -1.60445       0.09618
Nuclear contribution   :     -1.37190       2.01505       0.41640
                        -----------------------------------------
Total Dipole Moment    :     -0.28197       0.41060       0.51257
                        -----------------------------------------
Magnitude (a.u.)       :      0.71473
Magnitude (Debye)      :      1.81669

Rotational constants in cm-1:     4.796923     0.811627     0.785836
Rotational constants in MHz : 143808.135773 24331.952481 23558.774740

                             ****ORCA TERMINATED NORMALLY****
TOTAL RUN TIME: 0 days 0 hours 6 minutes 24 seconds 982 msec
