                         Program Version 4.1.2  - RELEASE  -
|  1> #Run DFT-D3 single point of the dimer
|  2> ! wB97X-D3 def2-TZVP TIGHTSCF CHELPG PMODEL PAL8
|  3>
|  4> %base "8-93_DFT_AB"
|  5>
|  6> %scf
|  7> MaxIter 1000
|  8> end
|  9>
| 10> * xyz 0 1
| 11>   C                      -4.288569            -3.454093            4.046615
| 12>   O                      -4.072984            -3.445141            5.450072
| 13>   H                      -3.608082            -2.611545            5.566733
| 14>   H                      -3.328369            -3.735090            3.527382
| 15>   H                      -4.996269            -4.232074            3.685555
| 16>   H                      -4.566862            -2.490800            3.649591
| 17>   C                      -7.273872            -3.024680            6.553169
| 18>   O                      -6.239401            -2.883706            7.473917
| 19>   H                      -5.431454            -2.715947            6.931784
| 20>   H                      -6.984350            -2.619578            5.576046
| 21>   H                      -7.474771            -4.030879            6.468822
| 22>   H                      -8.111445            -2.440006            6.788739
| 23> *
| 24>
| 25> #Run DFT-D3 single point of the molecule with dimer basis set
| 26> $new_job
| 27> %base "8-93_DFT_A"
| 28> ! wB97X-D3 def2-TZVP TIGHTSCF CHELPG PMODEL
| 29>
| 30> %scf
| 31> MaxIter 1000
| 32> end
| 33>
| 34> * xyz 0 1
| 35>   C                      -4.288569            -3.454093            4.046615
| 36>   O                      -4.072984            -3.445141            5.450072
| 37>   H                      -3.608082            -2.611545            5.566733
| 38>   H                      -3.328369            -3.735090            3.527382
| 39>   H                      -4.996269            -4.232074            3.685555
| 40>   H                      -4.566862            -2.490800            3.649591
| 41>   C                    : -7.273872            -3.024680            6.553169
| 42>   O                    : -6.239401            -2.883706            7.473917
| 43>   H                    : -5.431454            -2.715947            6.931784
| 44>   H                    : -6.984350            -2.619578            5.576046
| 45>   H                    : -7.474771            -4.030879            6.468822
| 46>   H                    : -8.111445            -2.440006            6.788739
| 47> *
| 48>
| 49> #Run DFT-D3 single point of the particle with dimer basis set
| 50> $new_job
| 51> %base "8-93_DFT_B"
| 52> ! wB97X-D3 def2-TZVP TIGHTSCF CHELPG PMODEL
| 53>
| 54> %scf
| 55> MaxIter 1000
| 56> end
| 57>
| 58> * xyz 0 1
| 59>   C                    : -4.288569            -3.454093            4.046615
| 60>   O                    : -4.072984            -3.445141            5.450072
| 61>   H                    : -3.608082            -2.611545            5.566733
| 62>   H                    : -3.328369            -3.735090            3.527382
| 63>   H                    : -4.996269            -4.232074            3.685555
| 64>   H                    : -4.566862            -2.490800            3.649591
| 65>   C                      -7.273872            -3.024680            6.553169
| 66>   O                      -6.239401            -2.883706            7.473917
| 67>   H                      -5.431454            -2.715947            6.931784
| 68>   H                      -6.984350            -2.619578            5.576046
| 69>   H                      -7.474771            -4.030879            6.468822
| 70>   H                      -8.111445            -2.440006            6.788739
| 71> *
| 72>
| 73>                          ****END OF INPUT****
 Total Charge           Charge          ....    0
 Multiplicity           Mult            ....    1
 Number of Electrons    NEL             ....   36
Dispersion correction           -0.002023653
FINAL SINGLE POINT ENERGY      -231.465913696215
Dispersion correction           -0.000235322
FINAL SINGLE POINT ENERGY      -115.732903979708

CARTESIAN COORDINATES (ANGSTROEM)
---------------------------------
  C     -4.288569   -3.454093    4.046615
  O     -4.072984   -3.445141    5.450072
  H     -3.608082   -2.611545    5.566733
  H     -3.328369   -3.735090    3.527382
  H     -4.996269   -4.232074    3.685555
  H     -4.566862   -2.490800    3.649591
  C     -7.273872   -3.024680    6.553169
  O     -6.239401   -2.883706    7.473917
  H     -5.431454   -2.715947    6.931784
  H     -6.984350   -2.619578    5.576046
  H     -7.474771   -4.030879    6.468822
  H     -8.111445   -2.440006    6.788739

 Multiplicity           Mult            ....    1
 Number of Electrons    NEL             ....   18
 Basis Dimension        Dim             ....  172

ORBITAL ENERGIES
----------------

  NO   OCC          E(Eh)            E(eV)
   0   2.0000     -19.229664      -523.2658
   1   2.0000     -10.298099      -280.2255
   2   2.0000      -1.138657       -30.9844
   3   2.0000      -0.798591       -21.7308
   4   2.0000      -0.611251       -16.6330
   5   2.0000      -0.562307       -15.3012
   6   2.0000      -0.526734       -14.3332
   7   2.0000      -0.428481       -11.6596
   8   2.0000      -0.374450       -10.1893
   9   0.0000       0.066318         1.8046
  10   0.0000       0.129507         3.5241
  11   0.0000       0.147940         4.0257
  12   0.0000       0.174463         4.7474
  13   0.0000       0.192134         5.2282

MULLIKEN ATOMIC CHARGES
-----------------------
   0 C :    0.000333
   1 O :   -0.003991
   2 H :   -0.000691
   3 H :    0.000045
   4 H :   -0.000338
   5 H :   -0.000361
   6 C :   -0.154084
   7 O :   -0.472779
   8 H :    0.319520
   9 H :    0.090239
  10 H :    0.108630
  11 H :    0.113478
Sum of atomic charges:    0.0000000

LOEWDIN ATOMIC CHARGES
----------------------
   0 C :   -0.004409
   1 O :   -0.013017
   2 H :   -0.002706
   3 H :   -0.000039
   4 H :   -0.000355
   5 H :   -0.000454
   6 C :   -0.386160
   7 O :   -0.066586
   8 H :    0.193542
   9 H :    0.099533
  10 H :    0.086505
  11 H :    0.094146

  Mayer bond orders larger than 0.1
B(  6-C ,  7-O ) :   0.9986 B(  6-C ,  9-H ) :   0.9922 B(  6-C , 10-H ) :   0.9833
B(  6-C , 11-H ) :   0.9738 B(  7-O ,  8-H ) :   0.9026

Dispersion correction           -0.000210709
FINAL SINGLE POINT ENERGY      -115.728289703625

DIPOLE MOMENT
-------------
                                X             Y             Z
Electronic contribution:      1.12975       0.08818       1.37850
Nuclear contribution   :     -1.03444      -0.02352      -2.08508
                        -----------------------------------------
Total Dipole Moment    :      0.09531       0.06466      -0.70658
                        -----------------------------------------
Magnitude (a.u.)       :      0.71590
Magnitude (Debye)      :      1.81968

Rotational constants in cm-1:     4.421507     0.864433     0.834238
Rotational constants in MHz : 132553.460041 25915.062518 25009.818999

                             ****ORCA TERMINATED NORMALLY****
TOTAL RUN TIME: 0 days 0 hours 0 minutes 38 seconds 596 msec
