                         Program Version 4.1.2  - RELEASE  -
|  1> #Run DFT-D3 single point of the dimer
|  2> ! wB97X-D3 def2-TZVP TIGHTSCF CHELPG PMODEL PAL8
|  3>
|  4> %base "7-128_DFT_AB"
|  5>
|  6> %scf
|  7> MaxIter 1000
|  8> end
|  9>
| 10> * xyz 0 1
| 11>   C                      -4.463582            -1.354472            0.559463
| 12>   O                      -5.340438            -2.213762            -0.128602
| 13>   H                      -6.211150            -1.951602            -0.000589
| 14>   H                      -4.627158            -1.465617            1.596524
| 15>   H                      -3.468846            -1.728514            0.454134
| 16>   H                      -4.436178            -0.307758            0.291256
| 17>   C                      -3.442066            -5.748472            -1.650043
| 18>   O                      -4.309298            -6.326566            -2.533591
| 19>   H                      -3.866864            -7.032628            -2.977934
| 20>   H                      -3.811814            -4.730813            -1.380673
| 21>   H                      -3.443193            -6.277069            -0.667152
| 22>   H                      -2.442657            -5.646653            -2.059387
| 23> *
| 24>
| 25> #Run DFT-D3 single point of the molecule with dimer basis set
| 26> $new_job
| 27> %base "7-128_DFT_A"
| 28> ! wB97X-D3 def2-TZVP TIGHTSCF CHELPG PMODEL
| 29>
| 30> %scf
| 31> MaxIter 1000
| 32> end
| 33>
| 34> * xyz 0 1
| 35>   C                      -4.463582            -1.354472            0.559463
| 36>   O                      -5.340438            -2.213762            -0.128602
| 37>   H                      -6.211150            -1.951602            -0.000589
| 38>   H                      -4.627158            -1.465617            1.596524
| 39>   H                      -3.468846            -1.728514            0.454134
| 40>   H                      -4.436178            -0.307758            0.291256
| 41>   C                    : -3.442066            -5.748472            -1.650043
| 42>   O                    : -4.309298            -6.326566            -2.533591
| 43>   H                    : -3.866864            -7.032628            -2.977934
| 44>   H                    : -3.811814            -4.730813            -1.380673
| 45>   H                    : -3.443193            -6.277069            -0.667152
| 46>   H                    : -2.442657            -5.646653            -2.059387
| 47> *
| 48>
| 49> #Run DFT-D3 single point of the particle with dimer basis set
| 50> $new_job
| 51> %base "7-128_DFT_B"
| 52> ! wB97X-D3 def2-TZVP TIGHTSCF CHELPG PMODEL
| 53>
| 54> %scf
| 55> MaxIter 1000
| 56> end
| 57>
| 58> * xyz 0 1
| 59>   C                    : -4.463582            -1.354472            0.559463
| 60>   O                    : -5.340438            -2.213762            -0.128602
| 61>   H                    : -6.211150            -1.951602            -0.000589
| 62>   H                    : -4.627158            -1.465617            1.596524
| 63>   H                    : -3.468846            -1.728514            0.454134
| 64>   H                    : -4.436178            -0.307758            0.291256
| 65>   C                      -3.442066            -5.748472            -1.650043
| 66>   O                      -4.309298            -6.326566            -2.533591
| 67>   H                      -3.866864            -7.032628            -2.977934
| 68>   H                      -3.811814            -4.730813            -1.380673
| 69>   H                      -3.443193            -6.277069            -0.667152
| 70>   H                      -2.442657            -5.646653            -2.059387
| 71> *
| 72>
| 73>                          ****END OF INPUT****
 Total Charge           Charge          ....    0
 Multiplicity           Mult            ....    1
 Number of Electrons    NEL             ....   36
Dispersion correction           -0.000960013
FINAL SINGLE POINT ENERGY      -231.466605916419
Dispersion correction           -0.000239403
FINAL SINGLE POINT ENERGY      -115.731728370077

CARTESIAN COORDINATES (ANGSTROEM)
---------------------------------
  C     -4.463582   -1.354472    0.559463
  O     -5.340438   -2.213762   -0.128602
  H     -6.211150   -1.951602   -0.000589
  H     -4.627158   -1.465617    1.596524
  H     -3.468846   -1.728514    0.454134
  H     -4.436178   -0.307758    0.291256
  C     -3.442066   -5.748472   -1.650043
  O     -4.309298   -6.326566   -2.533591
  H     -3.866864   -7.032628   -2.977934
  H     -3.811814   -4.730813   -1.380673
  H     -3.443193   -6.277069   -0.667152
  H     -2.442657   -5.646653   -2.059387

 Multiplicity           Mult            ....    1
 Number of Electrons    NEL             ....   18
 Basis Dimension        Dim             ....  172

ORBITAL ENERGIES
----------------

  NO   OCC          E(Eh)            E(eV)
   0   2.0000     -19.228664      -523.2385
   1   2.0000     -10.312072      -280.6058
   2   2.0000      -1.154798       -31.4237
   3   2.0000      -0.793156       -21.5829
   4   2.0000      -0.621182       -16.9032
   5   2.0000      -0.548338       -14.9210
   6   2.0000      -0.531843       -14.4722
   7   2.0000      -0.428340       -11.6557
   8   2.0000      -0.370540       -10.0829
   9   0.0000       0.084973         2.3122
  10   0.0000       0.117878         3.2076
  11   0.0000       0.152288         4.1440
  12   0.0000       0.164152         4.4668
  13   0.0000       0.188681         5.1343

MULLIKEN ATOMIC CHARGES
-----------------------
   0 C :    0.000009
   1 O :    0.000032
   2 H :   -0.000002
   3 H :   -0.000021
   4 H :   -0.000098
   5 H :   -0.000003
   6 C :   -0.156229
   7 O :   -0.457628
   8 H :    0.314707
   9 H :    0.108329
  10 H :    0.090672
  11 H :    0.100234
Sum of atomic charges:   -0.0000000

LOEWDIN ATOMIC CHARGES
----------------------
   0 C :   -0.000454
   1 O :   -0.000722
   2 H :   -0.000054
   3 H :   -0.000007
   4 H :   -0.000187
   5 H :   -0.000005
   6 C :   -0.426240
   7 O :   -0.033841
   8 H :    0.163081
   9 H :    0.110542
  10 H :    0.095933
  11 H :    0.091954

  Mayer bond orders larger than 0.1
B(  6-C ,  7-O ) :   1.0163 B(  6-C ,  9-H ) :   0.9743 B(  6-C , 10-H ) :   0.9749
B(  6-C , 11-H ) :   0.9809 B(  7-O ,  8-H ) :   0.9001

Dispersion correction           -0.000228804
FINAL SINGLE POINT ENERGY      -115.734198137435

DIPOLE MOMENT
-------------
                                X             Y             Z
Electronic contribution:     -1.18044      -0.74184      -1.23472
Nuclear contribution   :      1.78557       0.51069       1.25152
                        -----------------------------------------
Total Dipole Moment    :      0.60513      -0.23115       0.01680
                        -----------------------------------------
Magnitude (a.u.)       :      0.64800
Magnitude (Debye)      :      1.64707

Rotational constants in cm-1:     4.283026     0.874366     0.844206
Rotational constants in MHz : 128401.883350 26212.833591 25308.650512

                             ****ORCA TERMINATED NORMALLY****
TOTAL RUN TIME: 0 days 0 hours 1 minutes 1 seconds 250 msec
