                         Program Version 4.1.2  - RELEASE  -
|  1> #Run DFT-D3 single point of the dimer
|  2> ! wB97X-D3 def2-TZVP TIGHTSCF CHELPG PMODEL PAL8
|  3>
|  4> %base "20-151_DFT_AB"
|  5>
|  6> %scf
|  7> MaxIter 1000
|  8> end
|  9>
| 10> * xyz 0 1
| 11>   C                      -4.752948            5.591868             -4.181413
| 12>   O                      -5.139830            4.777113             -3.073725
| 13>   H                      -5.629639            5.350930             -2.456730
| 14>   H                      -5.593928            6.236357             -4.410818
| 15>   H                      -3.803955            6.184682             -4.018049
| 16>   H                      -4.579629            4.990443             -5.082851
| 17>   C                      -5.532352            1.521429             -4.986834
| 18>   O                      -5.929493            2.059288             -3.744234
| 19>   H                      -5.385958            2.828301             -3.642485
| 20>   H                      -6.063086            0.587966             -5.388403
| 21>   H                      -5.649632            2.148666             -5.799708
| 22>   H                      -4.452521            1.444972             -5.075906
| 23> *
| 24>
| 25> #Run DFT-D3 single point of the molecule with dimer basis set
| 26> $new_job
| 27> %base "20-151_DFT_A"
| 28> ! wB97X-D3 def2-TZVP TIGHTSCF CHELPG PMODEL
| 29>
| 30> %scf
| 31> MaxIter 1000
| 32> end
| 33>
| 34> * xyz 0 1
| 35>   C                      -4.752948            5.591868             -4.181413
| 36>   O                      -5.139830            4.777113             -3.073725
| 37>   H                      -5.629639            5.350930             -2.456730
| 38>   H                      -5.593928            6.236357             -4.410818
| 39>   H                      -3.803955            6.184682             -4.018049
| 40>   H                      -4.579629            4.990443             -5.082851
| 41>   C                    : -5.532352            1.521429             -4.986834
| 42>   O                    : -5.929493            2.059288             -3.744234
| 43>   H                    : -5.385958            2.828301             -3.642485
| 44>   H                    : -6.063086            0.587966             -5.388403
| 45>   H                    : -5.649632            2.148666             -5.799708
| 46>   H                    : -4.452521            1.444972             -5.075906
| 47> *
| 48>
| 49> #Run DFT-D3 single point of the particle with dimer basis set
| 50> $new_job
| 51> %base "20-151_DFT_B"
| 52> ! wB97X-D3 def2-TZVP TIGHTSCF CHELPG PMODEL
| 53>
| 54> %scf
| 55> MaxIter 1000
| 56> end
| 57>
| 58> * xyz 0 1
| 59>   C                    : -4.752948            5.591868             -4.181413
| 60>   O                    : -5.139830            4.777113             -3.073725
| 61>   H                    : -5.629639            5.350930             -2.456730
| 62>   H                    : -5.593928            6.236357             -4.410818
| 63>   H                    : -3.803955            6.184682             -4.018049
| 64>   H                    : -4.579629            4.990443             -5.082851
| 65>   C                      -5.532352            1.521429             -4.986834
| 66>   O                      -5.929493            2.059288             -3.744234
| 67>   H                      -5.385958            2.828301             -3.642485
| 68>   H                      -6.063086            0.587966             -5.388403
| 69>   H                      -5.649632            2.148666             -5.799708
| 70>   H                      -4.452521            1.444972             -5.075906
| 71> *
| 72>
| 73>                          ****END OF INPUT****
 Total Charge           Charge          ....    0
 Multiplicity           Mult            ....    1
 Number of Electrons    NEL             ....   36
Dispersion correction           -0.001801501
FINAL SINGLE POINT ENERGY      -231.462423048558
Dispersion correction           -0.000252698
FINAL SINGLE POINT ENERGY      -115.734364833250

CARTESIAN COORDINATES (ANGSTROEM)
---------------------------------
  C     -4.752948    5.591868   -4.181413
  O     -5.139830    4.777113   -3.073725
  H     -5.629639    5.350930   -2.456730
  H     -5.593928    6.236357   -4.410818
  H     -3.803955    6.184682   -4.018049
  H     -4.579629    4.990443   -5.082851
  C     -5.532352    1.521429   -4.986834
  O     -5.929493    2.059288   -3.744234
  H     -5.385958    2.828301   -3.642485
  H     -6.063086    0.587966   -5.388403
  H     -5.649632    2.148666   -5.799708
  H     -4.452521    1.444972   -5.075906

 Multiplicity           Mult            ....    1
 Number of Electrons    NEL             ....   18
 Basis Dimension        Dim             ....  172

ORBITAL ENERGIES
----------------

  NO   OCC          E(Eh)            E(eV)
   0   2.0000     -19.235948      -523.4368
   1   2.0000     -10.311501      -280.5902
   2   2.0000      -1.145289       -31.1649
   3   2.0000      -0.802576       -21.8392
   4   2.0000      -0.623710       -16.9720
   5   2.0000      -0.539864       -14.6905
   6   2.0000      -0.520993       -14.1769
   7   2.0000      -0.443717       -12.0742
   8   2.0000      -0.371768       -10.1163
   9   0.0000       0.069984         1.9044
  10   0.0000       0.129713         3.5297
  11   0.0000       0.143616         3.9080
  12   0.0000       0.172598         4.6966
  13   0.0000       0.188531         5.1302

MULLIKEN ATOMIC CHARGES
-----------------------
   0 C :   -0.004502
   1 O :   -0.000727
   2 H :   -0.000087
   3 H :    0.000454
   4 H :   -0.000028
   5 H :    0.000492
   6 C :   -0.190528
   7 O :   -0.451705
   8 H :    0.311860
   9 H :    0.123204
  10 H :    0.109532
  11 H :    0.102034
Sum of atomic charges:    0.0000000

LOEWDIN ATOMIC CHARGES
----------------------
   0 C :   -0.004293
   1 O :   -0.014705
   2 H :   -0.000748
   3 H :   -0.000068
   4 H :   -0.000075
   5 H :   -0.000846
   6 C :   -0.399665
   7 O :   -0.051223
   8 H :    0.172571
   9 H :    0.122547
  10 H :    0.081241
  11 H :    0.095265

  Mayer bond orders larger than 0.1
B(  6-C ,  7-O ) :   1.0001 B(  6-C ,  9-H ) :   0.9712 B(  6-C , 10-H ) :   0.9682
B(  6-C , 11-H ) :   0.9879 B(  7-O ,  8-H ) :   0.9060

Dispersion correction           -0.000238021
FINAL SINGLE POINT ENERGY      -115.721606166911

DIPOLE MOMENT
-------------
                                X             Y             Z
Electronic contribution:     -0.72373       0.55895       1.82341
Nuclear contribution   :      1.21515      -0.24633      -2.28568
                        -----------------------------------------
Total Dipole Moment    :      0.49141       0.31262      -0.46228
                        -----------------------------------------
Magnitude (a.u.)       :      0.74359
Magnitude (Debye)      :      1.89005

Rotational constants in cm-1:     4.584123     0.831710     0.782344
Rotational constants in MHz : 137428.543371 24934.029861 23454.072910

                             ****ORCA TERMINATED NORMALLY****
TOTAL RUN TIME: 0 days 0 hours 1 minutes 8 seconds 189 msec
