                         Program Version 4.1.2  - RELEASE  -
|  1> #Run DFT-D3 single point of the dimer
|  2> ! wB97X-D3 def2-TZVP TIGHTSCF CHELPG PMODEL PAL8
|  3>
|  4> %base "13-73_DFT_AB"
|  5>
|  6> %scf
|  7> MaxIter 1000
|  8> end
|  9>
| 10> * xyz 0 1
| 11>   C                      9.028161             -7.584521            4.100614
| 12>   O                      8.192791             -6.828802            5.014434
| 13>   H                      7.594326             -6.269406            4.519792
| 14>   H                      8.513725             -7.939866            3.227101
| 15>   H                      9.834166             -6.927564            3.751375
| 16>   H                      9.510038             -8.408056            4.560258
| 17>   C                      10.504551            -11.180506           -0.179575
| 18>   O                      9.425508             -11.131380           -1.103996
| 19>   H                      8.716325             -10.826452           -0.523253
| 20>   H                      10.316046            -11.977736           0.589473
| 21>   H                      11.376198            -11.512109           -0.812800
| 22>   H                      10.759810            -10.249666           0.345818
| 23> *
| 24>
| 25> #Run DFT-D3 single point of the molecule with dimer basis set
| 26> $new_job
| 27> %base "13-73_DFT_A"
| 28> ! wB97X-D3 def2-TZVP TIGHTSCF CHELPG PMODEL
| 29>
| 30> %scf
| 31> MaxIter 1000
| 32> end
| 33>
| 34> * xyz 0 1
| 35>   C                      9.028161             -7.584521            4.100614
| 36>   O                      8.192791             -6.828802            5.014434
| 37>   H                      7.594326             -6.269406            4.519792
| 38>   H                      8.513725             -7.939866            3.227101
| 39>   H                      9.834166             -6.927564            3.751375
| 40>   H                      9.510038             -8.408056            4.560258
| 41>   C                    : 10.504551            -11.180506           -0.179575
| 42>   O                    : 9.425508             -11.131380           -1.103996
| 43>   H                    : 8.716325             -10.826452           -0.523253
| 44>   H                    : 10.316046            -11.977736           0.589473
| 45>   H                    : 11.376198            -11.512109           -0.812800
| 46>   H                    : 10.759810            -10.249666           0.345818
| 47> *
| 48>
| 49> #Run DFT-D3 single point of the particle with dimer basis set
| 50> $new_job
| 51> %base "13-73_DFT_B"
| 52> ! wB97X-D3 def2-TZVP TIGHTSCF CHELPG PMODEL
| 53>
| 54> %scf
| 55> MaxIter 1000
| 56> end
| 57>
| 58> * xyz 0 1
| 59>   C                    : 9.028161             -7.584521            4.100614
| 60>   O                    : 8.192791             -6.828802            5.014434
| 61>   H                    : 7.594326             -6.269406            4.519792
| 62>   H                    : 8.513725             -7.939866            3.227101
| 63>   H                    : 9.834166             -6.927564            3.751375
| 64>   H                    : 9.510038             -8.408056            4.560258
| 65>   C                      10.504551            -11.180506           -0.179575
| 66>   O                      9.425508             -11.131380           -1.103996
| 67>   H                      8.716325             -10.826452           -0.523253
| 68>   H                      10.316046            -11.977736           0.589473
| 69>   H                      11.376198            -11.512109           -0.812800
| 70>   H                      10.759810            -10.249666           0.345818
| 71> *
| 72>
| 73>                          ****END OF INPUT****
 Total Charge           Charge          ....    0
 Multiplicity           Mult            ....    1
 Number of Electrons    NEL             ....   36
Dispersion correction           -0.000629894
FINAL SINGLE POINT ENERGY      -231.466294433821
Dispersion correction           -0.000256721
FINAL SINGLE POINT ENERGY      -115.733535300341

CARTESIAN COORDINATES (ANGSTROEM)
---------------------------------
  C      9.028161   -7.584521    4.100614
  O      8.192791   -6.828802    5.014434
  H      7.594326   -6.269406    4.519792
  H      8.513725   -7.939866    3.227101
  H      9.834166   -6.927564    3.751375
  H      9.510038   -8.408056    4.560258
  C     10.504551  -11.180506   -0.179575
  O      9.425508  -11.131380   -1.103996
  H      8.716325  -10.826452   -0.523253
  H     10.316046  -11.977736    0.589473
  H     11.376198  -11.512109   -0.812800
  H     10.759810  -10.249666    0.345818

 Multiplicity           Mult            ....    1
 Number of Electrons    NEL             ....   18
 Basis Dimension        Dim             ....  172

ORBITAL ENERGIES
----------------

  NO   OCC          E(Eh)            E(eV)
   0   2.0000     -19.234972      -523.4102
   1   2.0000     -10.320061      -280.8231
   2   2.0000      -1.139458       -31.0062
   3   2.0000      -0.786253       -21.3950
   4   2.0000      -0.610685       -16.6176
   5   2.0000      -0.539364       -14.6768
   6   2.0000      -0.515871       -14.0376
   7   2.0000      -0.442894       -12.0518
   8   2.0000      -0.375627       -10.2213
   9   0.0000       0.079532         2.1642
  10   0.0000       0.110943         3.0189
  11   0.0000       0.149138         4.0583
  12   0.0000       0.163830         4.4580
  13   0.0000       0.185807         5.0561

MULLIKEN ATOMIC CHARGES
-----------------------
   0 C :   -0.000035
   1 O :   -0.000000
   2 H :   -0.000000
   3 H :    0.000009
   4 H :   -0.000003
   5 H :   -0.000004
   6 C :   -0.183468
   7 O :   -0.454002
   8 H :    0.310024
   9 H :    0.100671
  10 H :    0.119262
  11 H :    0.107547
Sum of atomic charges:   -0.0000000

LOEWDIN ATOMIC CHARGES
----------------------
   0 C :   -0.000033
   1 O :   -0.000000
   2 H :   -0.000000
   3 H :   -0.000012
   4 H :   -0.000003
   5 H :   -0.000004
   6 C :   -0.398521
   7 O :   -0.082534
   8 H :    0.173582
   9 H :    0.097991
  10 H :    0.116360
  11 H :    0.093174

  Mayer bond orders larger than 0.1
B(  6-C ,  7-O ) :   1.0028 B(  6-C ,  9-H ) :   0.9756 B(  6-C , 10-H ) :   0.9768
B(  6-C , 11-H ) :   0.9629 B(  7-O ,  8-H ) :   0.9056

Dispersion correction           -0.000235785
FINAL SINGLE POINT ENERGY      -115.732855357167

DIPOLE MOMENT
-------------
                                X             Y             Z
Electronic contribution:     -1.34387       0.13615      -1.29128
Nuclear contribution   :      1.31733       0.03623       1.98558
                        -----------------------------------------
Total Dipole Moment    :     -0.02654       0.17238       0.69430
                        -----------------------------------------
Magnitude (a.u.)       :      0.71587
Magnitude (Debye)      :      1.81960

Rotational constants in cm-1:     4.064203     0.832330     0.797556
Rotational constants in MHz : 121841.755361 24952.626218 23910.117024

                             ****ORCA TERMINATED NORMALLY****
TOTAL RUN TIME: 0 days 0 hours 0 minutes 51 seconds 845 msec
