                         Program Version 4.1.2  - RELEASE  -
|  1> #Run DFT-D3 single point of the dimer
|  2> ! wB97X-D3 def2-TZVP TIGHTSCF CHELPG PMODEL PAL8
|  3>
|  4> %base "6-102_DFT_AB"
|  5>
|  6> %scf
|  7> MaxIter 1000
|  8> end
|  9>
| 10> * xyz 0 1
| 11>   C                      6.664978             3.067073             1.226311
| 12>   O                      8.059023             2.989451             1.564592
| 13>   H                      8.160365             2.945944             2.478638
| 14>   H                      6.091341             2.145018             1.217380
| 15>   H                      6.072127             3.731938             1.852075
| 16>   H                      6.459341             3.559162             0.310594
| 17>   C                      8.708879             6.463553             1.934085
| 18>   O                      8.796697             7.774992             1.389935
| 19>   H                      9.348000             7.728287             0.602697
| 20>   H                      8.947508             5.678067             1.221697
| 21>   H                      9.303052             6.525427             2.839559
| 22>   H                      7.697816             6.244833             2.153379
| 23> *
| 24>
| 25> #Run DFT-D3 single point of the molecule with dimer basis set
| 26> $new_job
| 27> %base "6-102_DFT_A"
| 28> ! wB97X-D3 def2-TZVP TIGHTSCF CHELPG PMODEL
| 29>
| 30> %scf
| 31> MaxIter 1000
| 32> end
| 33>
| 34> * xyz 0 1
| 35>   C                      6.664978             3.067073             1.226311
| 36>   O                      8.059023             2.989451             1.564592
| 37>   H                      8.160365             2.945944             2.478638
| 38>   H                      6.091341             2.145018             1.217380
| 39>   H                      6.072127             3.731938             1.852075
| 40>   H                      6.459341             3.559162             0.310594
| 41>   C                    : 8.708879             6.463553             1.934085
| 42>   O                    : 8.796697             7.774992             1.389935
| 43>   H                    : 9.348000             7.728287             0.602697
| 44>   H                    : 8.947508             5.678067             1.221697
| 45>   H                    : 9.303052             6.525427             2.839559
| 46>   H                    : 7.697816             6.244833             2.153379
| 47> *
| 48>
| 49> #Run DFT-D3 single point of the particle with dimer basis set
| 50> $new_job
| 51> %base "6-102_DFT_B"
| 52> ! wB97X-D3 def2-TZVP TIGHTSCF CHELPG PMODEL
| 53>
| 54> %scf
| 55> MaxIter 1000
| 56> end
| 57>
| 58> * xyz 0 1
| 59>   C                    : 6.664978             3.067073             1.226311
| 60>   O                    : 8.059023             2.989451             1.564592
| 61>   H                    : 8.160365             2.945944             2.478638
| 62>   H                    : 6.091341             2.145018             1.217380
| 63>   H                    : 6.072127             3.731938             1.852075
| 64>   H                    : 6.459341             3.559162             0.310594
| 65>   C                      8.708879             6.463553             1.934085
| 66>   O                      8.796697             7.774992             1.389935
| 67>   H                      9.348000             7.728287             0.602697
| 68>   H                      8.947508             5.678067             1.221697
| 69>   H                      9.303052             6.525427             2.839559
| 70>   H                      7.697816             6.244833             2.153379
| 71> *
| 72>
| 73>                          ****END OF INPUT****
 Total Charge           Charge          ....    0
 Multiplicity           Mult            ....    1
 Number of Electrons    NEL             ....   36
Dispersion correction           -0.001769912
FINAL SINGLE POINT ENERGY      -231.461538559055
Dispersion correction           -0.000278732
FINAL SINGLE POINT ENERGY      -115.728175211246

CARTESIAN COORDINATES (ANGSTROEM)
---------------------------------
  C      6.664978    3.067073    1.226311
  O      8.059023    2.989451    1.564592
  H      8.160365    2.945944    2.478638
  H      6.091341    2.145018    1.217380
  H      6.072127    3.731938    1.852075
  H      6.459341    3.559162    0.310594
  C      8.708879    6.463553    1.934085
  O      8.796697    7.774992    1.389935
  H      9.348000    7.728287    0.602697
  H      8.947508    5.678067    1.221697
  H      9.303052    6.525427    2.839559
  H      7.697816    6.244833    2.153379

 Multiplicity           Mult            ....    1
 Number of Electrons    NEL             ....   18
 Basis Dimension        Dim             ....  172

ORBITAL ENERGIES
----------------

  NO   OCC          E(Eh)            E(eV)
   0   2.0000     -19.225734      -523.1588
   1   2.0000     -10.306659      -280.4585
   2   2.0000      -1.131351       -30.7856
   3   2.0000      -0.798465       -21.7273
   4   2.0000      -0.609155       -16.5759
   5   2.0000      -0.550110       -14.9693
   6   2.0000      -0.521084       -14.1794
   7   2.0000      -0.433605       -11.7990
   8   2.0000      -0.371410       -10.1066
   9   0.0000       0.078992         2.1495
  10   0.0000       0.115836         3.1521
  11   0.0000       0.150898         4.1061
  12   0.0000       0.166661         4.5351
  13   0.0000       0.180769         4.9190

MULLIKEN ATOMIC CHARGES
-----------------------
   0 C :   -0.003860
   1 O :   -0.000073
   2 H :    0.000202
   3 H :   -0.000093
   4 H :    0.000475
   5 H :    0.000775
   6 C :   -0.157257
   7 O :   -0.482193
   8 H :    0.314403
   9 H :    0.105962
  10 H :    0.108900
  11 H :    0.112758
Sum of atomic charges:   -0.0000000

LOEWDIN ATOMIC CHARGES
----------------------
   0 C :   -0.002570
   1 O :   -0.001866
   2 H :   -0.000494
   3 H :   -0.000028
   4 H :   -0.000762
   5 H :   -0.000178
   6 C :   -0.371418
   7 O :   -0.087907
   8 H :    0.167928
   9 H :    0.098507
  10 H :    0.102023
  11 H :    0.096764

  Mayer bond orders larger than 0.1
B(  6-C ,  7-O ) :   1.0033 B(  6-C ,  9-H ) :   0.9815 B(  6-C , 10-H ) :   0.9781
B(  6-C , 11-H ) :   0.9745 B(  7-O ,  8-H ) :   0.9023

Dispersion correction           -0.000233880
FINAL SINGLE POINT ENERGY      -115.731096363311

DIPOLE MOMENT
-------------
                                X             Y             Z
Electronic contribution:      0.07876       1.61425      -0.56704
Nuclear contribution   :      0.21385      -2.18337       0.26232
                        -----------------------------------------
Total Dipole Moment    :      0.29261      -0.56912      -0.30472
                        -----------------------------------------
Magnitude (a.u.)       :      0.70878
Magnitude (Debye)      :      1.80158

Rotational constants in cm-1:     4.322161     0.833113     0.806449
Rotational constants in MHz : 129575.127412 24976.108485 24176.727290

                             ****ORCA TERMINATED NORMALLY****
TOTAL RUN TIME: 0 days 0 hours 1 minutes 5 seconds 993 msec
