                         Program Version 4.1.2  - RELEASE  -
|  1> #Run DFT-D3 single point of the dimer
|  2> ! wB97X-D3 def2-TZVP TIGHTSCF CHELPG PMODEL PAL8
|  3>
|  4> %base "20-73_DFT_AB"
|  5>
|  6> %scf
|  7> MaxIter 1000
|  8> end
|  9>
| 10> * xyz 0 1
| 11>   C                      7.632217             9.699304             -7.585289
| 12>   O                      8.220885             8.717487             -8.487322
| 13>   H                      8.292732             7.918457             -7.923862
| 14>   H                      7.388094             10.683171            -8.048767
| 15>   H                      6.886025             9.245156             -6.974468
| 16>   H                      8.453979             9.988415             -6.909452
| 17>   C                      7.591544             10.777358            -11.531304
| 18>   O                      8.661347             10.437196            -10.681074
| 19>   H                      8.382762             9.762471             -10.009098
| 20>   H                      7.077431             9.877773             -11.869840
| 21>   H                      6.830902             11.279525            -10.889448
| 22>   H                      7.865752             11.371132            -12.418324
| 23> *
| 24>
| 25> #Run DFT-D3 single point of the molecule with dimer basis set
| 26> $new_job
| 27> %base "20-73_DFT_A"
| 28> ! wB97X-D3 def2-TZVP TIGHTSCF CHELPG PMODEL
| 29>
| 30> %scf
| 31> MaxIter 1000
| 32> end
| 33>
| 34> * xyz 0 1
| 35>   C                      7.632217             9.699304             -7.585289
| 36>   O                      8.220885             8.717487             -8.487322
| 37>   H                      8.292732             7.918457             -7.923862
| 38>   H                      7.388094             10.683171            -8.048767
| 39>   H                      6.886025             9.245156             -6.974468
| 40>   H                      8.453979             9.988415             -6.909452
| 41>   C                    : 7.591544             10.777358            -11.531304
| 42>   O                    : 8.661347             10.437196            -10.681074
| 43>   H                    : 8.382762             9.762471             -10.009098
| 44>   H                    : 7.077431             9.877773             -11.869840
| 45>   H                    : 6.830902             11.279525            -10.889448
| 46>   H                    : 7.865752             11.371132            -12.418324
| 47> *
| 48>
| 49> #Run DFT-D3 single point of the particle with dimer basis set
| 50> $new_job
| 51> %base "20-73_DFT_B"
| 52> ! wB97X-D3 def2-TZVP TIGHTSCF CHELPG PMODEL
| 53>
| 54> %scf
| 55> MaxIter 1000
| 56> end
| 57>
| 58> * xyz 0 1
| 59>   C                    : 7.632217             9.699304             -7.585289
| 60>   O                    : 8.220885             8.717487             -8.487322
| 61>   H                    : 8.292732             7.918457             -7.923862
| 62>   H                    : 7.388094             10.683171            -8.048767
| 63>   H                    : 6.886025             9.245156             -6.974468
| 64>   H                    : 8.453979             9.988415             -6.909452
| 65>   C                      7.591544             10.777358            -11.531304
| 66>   O                      8.661347             10.437196            -10.681074
| 67>   H                      8.382762             9.762471             -10.009098
| 68>   H                      7.077431             9.877773             -11.869840
| 69>   H                      6.830902             11.279525            -10.889448
| 70>   H                      7.865752             11.371132            -12.418324
| 71> *
| 72>
| 73>                          ****END OF INPUT****
 Total Charge           Charge          ....    0
 Multiplicity           Mult            ....    1
 Number of Electrons    NEL             ....   36
Dispersion correction           -0.001849987
FINAL SINGLE POINT ENERGY      -231.467649805087
Dispersion correction           -0.000233072
FINAL SINGLE POINT ENERGY      -115.728008320311

CARTESIAN COORDINATES (ANGSTROEM)
---------------------------------
  C      7.632217    9.699304   -7.585289
  O      8.220885    8.717487   -8.487322
  H      8.292732    7.918457   -7.923862
  H      7.388094   10.683171   -8.048767
  H      6.886025    9.245156   -6.974468
  H      8.453979    9.988415   -6.909452
  C      7.591544   10.777358  -11.531304
  O      8.661347   10.437196  -10.681074
  H      8.382762    9.762471  -10.009098
  H      7.077431    9.877773  -11.869840
  H      6.830902   11.279525  -10.889448
  H      7.865752   11.371132  -12.418324

 Multiplicity           Mult            ....    1
 Number of Electrons    NEL             ....   18
 Basis Dimension        Dim             ....  172

ORBITAL ENERGIES
----------------

  NO   OCC          E(Eh)            E(eV)
   0   2.0000     -19.230963      -523.3011
   1   2.0000     -10.316013      -280.7130
   2   2.0000      -1.130453       -30.7612
   3   2.0000      -0.791285       -21.5320
   4   2.0000      -0.609405       -16.5827
   5   2.0000      -0.541147       -14.7254
   6   2.0000      -0.529248       -14.4016
   7   2.0000      -0.429526       -11.6880
   8   2.0000      -0.366789        -9.9808
   9   0.0000       0.070718         1.9243
  10   0.0000       0.133481         3.6322
  11   0.0000       0.145909         3.9704
  12   0.0000       0.164619         4.4795
  13   0.0000       0.197560         5.3759

MULLIKEN ATOMIC CHARGES
-----------------------
   0 C :   -0.006467
   1 O :   -0.001091
   2 H :   -0.000174
   3 H :   -0.002351
   4 H :   -0.000106
   5 H :    0.000471
   6 C :   -0.164007
   7 O :   -0.472908
   8 H :    0.317093
   9 H :    0.101665
  10 H :    0.099247
  11 H :    0.128628
Sum of atomic charges:    0.0000000

LOEWDIN ATOMIC CHARGES
----------------------
   0 C :   -0.011769
   1 O :   -0.023573
   2 H :   -0.000870
   3 H :   -0.003613
   4 H :   -0.000177
   5 H :   -0.000256
   6 C :   -0.391449
   7 O :   -0.074803
   8 H :    0.204342
   9 H :    0.092672
  10 H :    0.098257
  11 H :    0.111237

  Mayer bond orders larger than 0.1
B(  6-C ,  7-O ) :   0.9928 B(  6-C ,  9-H ) :   0.9835 B(  6-C , 10-H ) :   0.9786
B(  6-C , 11-H ) :   0.9665 B(  7-O ,  8-H ) :   0.8943

Dispersion correction           -0.000234023
FINAL SINGLE POINT ENERGY      -115.731852495215

DIPOLE MOMENT
-------------
                                X             Y             Z
Electronic contribution:      1.56878      -0.26720       0.87629
Nuclear contribution   :     -2.16823      -0.03605      -0.81759
                        -----------------------------------------
Total Dipole Moment    :     -0.59945      -0.30324       0.05870
                        -----------------------------------------
Magnitude (a.u.)       :      0.67434
Magnitude (Debye)      :      1.71404

Rotational constants in cm-1:     4.230224     0.834752     0.797700
Rotational constants in MHz : 126818.920821 25025.247830 23914.429623

                             ****ORCA TERMINATED NORMALLY****
TOTAL RUN TIME: 0 days 0 hours 1 minutes 7 seconds 309 msec
