                         Program Version 4.1.2  - RELEASE  -
|  1> #Run DFT-D3 single point of the dimer
|  2> ! wB97X-D3 def2-TZVP TIGHTSCF CHELPG PMODEL PAL8
|  3>
|  4> %base "3-180_DFT_AB"
|  5>
|  6> %scf
|  7> MaxIter 1000
|  8> end
|  9>
| 10> * xyz 0 1
| 11>   C                      4.116040             3.646797             5.150770
| 12>   O                      5.314399             3.405780             4.517782
| 13>   H                      5.522391             4.067591             3.865315
| 14>   H                      4.059715             4.503963             5.810762
| 15>   H                      3.306977             3.937152             4.436309
| 16>   H                      3.812589             2.736741             5.676938
| 17>   C                      9.730168             4.641227             4.988707
| 18>   O                      8.336854             4.767792             4.913868
| 19>   H                      7.988802             3.956070             5.277866
| 20>   H                      10.256681            5.459692             4.472310
| 21>   H                      10.125117            4.603005             5.973250
| 22>   H                      10.095808            3.771040             4.469233
| 23> *
| 24>
| 25> #Run DFT-D3 single point of the molecule with dimer basis set
| 26> $new_job
| 27> %base "3-180_DFT_A"
| 28> ! wB97X-D3 def2-TZVP TIGHTSCF CHELPG PMODEL
| 29>
| 30> %scf
| 31> MaxIter 1000
| 32> end
| 33>
| 34> * xyz 0 1
| 35>   C                      4.116040             3.646797             5.150770
| 36>   O                      5.314399             3.405780             4.517782
| 37>   H                      5.522391             4.067591             3.865315
| 38>   H                      4.059715             4.503963             5.810762
| 39>   H                      3.306977             3.937152             4.436309
| 40>   H                      3.812589             2.736741             5.676938
| 41>   C                    : 9.730168             4.641227             4.988707
| 42>   O                    : 8.336854             4.767792             4.913868
| 43>   H                    : 7.988802             3.956070             5.277866
| 44>   H                    : 10.256681            5.459692             4.472310
| 45>   H                    : 10.125117            4.603005             5.973250
| 46>   H                    : 10.095808            3.771040             4.469233
| 47> *
| 48>
| 49> #Run DFT-D3 single point of the particle with dimer basis set
| 50> $new_job
| 51> %base "3-180_DFT_B"
| 52> ! wB97X-D3 def2-TZVP TIGHTSCF CHELPG PMODEL
| 53>
| 54> %scf
| 55> MaxIter 1000
| 56> end
| 57>
| 58> * xyz 0 1
| 59>   C                    : 4.116040             3.646797             5.150770
| 60>   O                    : 5.314399             3.405780             4.517782
| 61>   H                    : 5.522391             4.067591             3.865315
| 62>   H                    : 4.059715             4.503963             5.810762
| 63>   H                    : 3.306977             3.937152             4.436309
| 64>   H                    : 3.812589             2.736741             5.676938
| 65>   C                      9.730168             4.641227             4.988707
| 66>   O                      8.336854             4.767792             4.913868
| 67>   H                      7.988802             3.956070             5.277866
| 68>   H                      10.256681            5.459692             4.472310
| 69>   H                      10.125117            4.603005             5.973250
| 70>   H                      10.095808            3.771040             4.469233
| 71> *
| 72>
| 73>                          ****END OF INPUT****
 Total Charge           Charge          ....    0
 Multiplicity           Mult            ....    1
 Number of Electrons    NEL             ....   36
Dispersion correction           -0.001227460
FINAL SINGLE POINT ENERGY      -231.472663687014
Dispersion correction           -0.000245258
FINAL SINGLE POINT ENERGY      -115.733566117275

CARTESIAN COORDINATES (ANGSTROEM)
---------------------------------
  C      4.116040    3.646797    5.150770
  O      5.314399    3.405780    4.517782
  H      5.522391    4.067591    3.865315
  H      4.059715    4.503963    5.810762
  H      3.306977    3.937152    4.436309
  H      3.812589    2.736741    5.676938
  C      9.730168    4.641227    4.988707
  O      8.336854    4.767792    4.913868
  H      7.988802    3.956070    5.277866
  H     10.256681    5.459692    4.472310
  H     10.125117    4.603005    5.973250
  H     10.095808    3.771040    4.469233

 Multiplicity           Mult            ....    1
 Number of Electrons    NEL             ....   18
 Basis Dimension        Dim             ....  172

ORBITAL ENERGIES
----------------

  NO   OCC          E(Eh)            E(eV)
   0   2.0000     -19.233114      -523.3596
   1   2.0000     -10.306969      -280.4669
   2   2.0000      -1.143899       -31.1271
   3   2.0000      -0.799504       -21.7556
   4   2.0000      -0.616452       -16.7745
   5   2.0000      -0.546766       -14.8783
   6   2.0000      -0.528734       -14.3876
   7   2.0000      -0.434552       -11.8248
   8   2.0000      -0.376652       -10.2492
   9   0.0000       0.084830         2.3083
  10   0.0000       0.121625         3.3096
  11   0.0000       0.150697         4.1007
  12   0.0000       0.184598         5.0232
  13   0.0000       0.197382         5.3710

MULLIKEN ATOMIC CHARGES
-----------------------
   0 C :   -0.000045
   1 O :   -0.000311
   2 H :   -0.002486
   3 H :   -0.000062
   4 H :    0.000005
   5 H :    0.000002
   6 C :   -0.174359
   7 O :   -0.461427
   8 H :    0.317323
   9 H :    0.116209
  10 H :    0.104096
  11 H :    0.101055
Sum of atomic charges:   -0.0000000

LOEWDIN ATOMIC CHARGES
----------------------
   0 C :   -0.000288
   1 O :   -0.001755
   2 H :   -0.002830
   3 H :   -0.000032
   4 H :   -0.000006
   5 H :   -0.000004
   6 C :   -0.396877
   7 O :   -0.058751
   8 H :    0.170320
   9 H :    0.111564
  10 H :    0.087298
  11 H :    0.091362

  Mayer bond orders larger than 0.1
B(  6-C ,  7-O ) :   1.0043 B(  6-C ,  9-H ) :   0.9747 B(  6-C , 10-H ) :   0.9744
B(  6-C , 11-H ) :   0.9814 B(  7-O ,  8-H ) :   0.8977

Dispersion correction           -0.000231276
FINAL SINGLE POINT ENERGY      -115.734700146975

DIPOLE MOMENT
-------------
                                X             Y             Z
Electronic contribution:     -1.88960       0.30975      -0.08078
Nuclear contribution   :      2.22810      -0.87153       0.33462
                        -----------------------------------------
Total Dipole Moment    :      0.33851      -0.56179       0.25384
                        -----------------------------------------
Magnitude (a.u.)       :      0.70330
Magnitude (Debye)      :      1.78764

Rotational constants in cm-1:     4.496262     0.840073     0.809558
Rotational constants in MHz : 134794.530024 25184.766970 24269.941481

                             ****ORCA TERMINATED NORMALLY****
TOTAL RUN TIME: 0 days 0 hours 6 minutes 10 seconds 216 msec
