                         Program Version 4.1.2  - RELEASE  -
|  1> #Run DFT-D3 single point of the dimer
|  2> ! wB97X-D3 def2-TZVP TIGHTSCF CHELPG PMODEL PAL8
|  3>
|  4> %base "19-55_DFT_AB"
|  5>
|  6> %scf
|  7> MaxIter 1000
|  8> end
|  9>
| 10> * xyz 0 1
| 11>   C                      -5.106868            5.364977             4.076705
| 12>   O                      -4.860362            6.614453             3.509791
| 13>   H                      -4.817998            6.497377             2.536860
| 14>   H                      -6.164157            5.347365             4.411321
| 15>   H                      -4.952286            4.468046             3.431176
| 16>   H                      -4.499261            5.272901             4.938925
| 17>   C                      -9.478151            5.425822             3.206695
| 18>   O                      -8.536744            5.482211             4.200907
| 19>   H                      -8.370638            6.436473             4.251381
| 20>   H                      -9.506143            4.411583             2.840828
| 21>   H                      -10.497009           5.763407             3.649831
| 22>   H                      -9.223203            6.102043             2.375805
| 23> *
| 24>
| 25> #Run DFT-D3 single point of the molecule with dimer basis set
| 26> $new_job
| 27> %base "19-55_DFT_A"
| 28> ! wB97X-D3 def2-TZVP TIGHTSCF CHELPG PMODEL
| 29>
| 30> %scf
| 31> MaxIter 1000
| 32> end
| 33>
| 34> * xyz 0 1
| 35>   C                      -5.106868            5.364977             4.076705
| 36>   O                      -4.860362            6.614453             3.509791
| 37>   H                      -4.817998            6.497377             2.536860
| 38>   H                      -6.164157            5.347365             4.411321
| 39>   H                      -4.952286            4.468046             3.431176
| 40>   H                      -4.499261            5.272901             4.938925
| 41>   C                    : -9.478151            5.425822             3.206695
| 42>   O                    : -8.536744            5.482211             4.200907
| 43>   H                    : -8.370638            6.436473             4.251381
| 44>   H                    : -9.506143            4.411583             2.840828
| 45>   H                    : -10.497009           5.763407             3.649831
| 46>   H                    : -9.223203            6.102043             2.375805
| 47> *
| 48>
| 49> #Run DFT-D3 single point of the particle with dimer basis set
| 50> $new_job
| 51> %base "19-55_DFT_B"
| 52> ! wB97X-D3 def2-TZVP TIGHTSCF CHELPG PMODEL
| 53>
| 54> %scf
| 55> MaxIter 1000
| 56> end
| 57>
| 58> * xyz 0 1
| 59>   C                    : -5.106868            5.364977             4.076705
| 60>   O                    : -4.860362            6.614453             3.509791
| 61>   H                    : -4.817998            6.497377             2.536860
| 62>   H                    : -6.164157            5.347365             4.411321
| 63>   H                    : -4.952286            4.468046             3.431176
| 64>   H                    : -4.499261            5.272901             4.938925
| 65>   C                      -9.478151            5.425822             3.206695
| 66>   O                      -8.536744            5.482211             4.200907
| 67>   H                      -8.370638            6.436473             4.251381
| 68>   H                      -9.506143            4.411583             2.840828
| 69>   H                      -10.497009           5.763407             3.649831
| 70>   H                      -9.223203            6.102043             2.375805
| 71> *
| 72>
| 73>                          ****END OF INPUT****
 Total Charge           Charge          ....    0
 Multiplicity           Mult            ....    1
 Number of Electrons    NEL             ....   36
Dispersion correction           -0.001470543
FINAL SINGLE POINT ENERGY      -231.465563602015
Dispersion correction           -0.000245977
FINAL SINGLE POINT ENERGY      -115.733216552330

CARTESIAN COORDINATES (ANGSTROEM)
---------------------------------
  C     -5.106868    5.364977    4.076705
  O     -4.860362    6.614453    3.509791
  H     -4.817998    6.497377    2.536860
  H     -6.164157    5.347365    4.411321
  H     -4.952286    4.468046    3.431176
  H     -4.499261    5.272901    4.938925
  C     -9.478151    5.425822    3.206695
  O     -8.536744    5.482211    4.200907
  H     -8.370638    6.436473    4.251381
  H     -9.506143    4.411583    2.840828
  H    -10.497009    5.763407    3.649831
  H     -9.223203    6.102043    2.375805

 Multiplicity           Mult            ....    1
 Number of Electrons    NEL             ....   18
 Basis Dimension        Dim             ....  172

ORBITAL ENERGIES
----------------

  NO   OCC          E(Eh)            E(eV)
   0   2.0000     -19.233172      -523.3612
   1   2.0000     -10.315578      -280.7011
   2   2.0000      -1.155305       -31.4375
   3   2.0000      -0.784569       -21.3492
   4   2.0000      -0.618972       -16.8431
   5   2.0000      -0.545518       -14.8443
   6   2.0000      -0.530095       -14.4246
   7   2.0000      -0.439915       -11.9707
   8   2.0000      -0.368732       -10.0337
   9   0.0000       0.089065         2.4236
  10   0.0000       0.121766         3.3134
  11   0.0000       0.158472         4.3122
  12   0.0000       0.171065         4.6549
  13   0.0000       0.193311         5.2603

MULLIKEN ATOMIC CHARGES
-----------------------
   0 C :   -0.001792
   1 O :    0.000375
   2 H :    0.000064
   3 H :   -0.009554
   4 H :   -0.000118
   5 H :   -0.000513
   6 C :   -0.168227
   7 O :   -0.439582
   8 H :    0.317331
   9 H :    0.118442
  10 H :    0.085511
  11 H :    0.098063
Sum of atomic charges:   -0.0000000

LOEWDIN ATOMIC CHARGES
----------------------
   0 C :   -0.007516
   1 O :   -0.000140
   2 H :   -0.000062
   3 H :   -0.016419
   4 H :   -0.000214
   5 H :   -0.000097
   6 C :   -0.427706
   7 O :   -0.031368
   8 H :    0.184461
   9 H :    0.103714
  10 H :    0.102105
  11 H :    0.093242

  Mayer bond orders larger than 0.1
B(  6-C ,  7-O ) :   0.9983 B(  6-C ,  9-H ) :   0.9768 B(  6-C , 10-H ) :   0.9711
B(  6-C , 11-H ) :   0.9800 B(  7-O ,  8-H ) :   0.8976

Dispersion correction           -0.000203811
FINAL SINGLE POINT ENERGY      -115.730836267260

DIPOLE MOMENT
-------------
                                X             Y             Z
Electronic contribution:      1.29436      -0.16790       1.27996
Nuclear contribution   :     -1.49832       0.72279      -1.61700
                        -----------------------------------------
Total Dipole Moment    :     -0.20397       0.55489      -0.33703
                        -----------------------------------------
Magnitude (a.u.)       :      0.68051
Magnitude (Debye)      :      1.72971

Rotational constants in cm-1:     4.016394     0.886463     0.853974
Rotational constants in MHz : 120408.466686 26575.486235 25601.502375

                             ****ORCA TERMINATED NORMALLY****
TOTAL RUN TIME: 0 days 0 hours 0 minutes 49 seconds 490 msec
