                         Program Version 4.1.2  - RELEASE  -
|  1> #Run DFT-D3 single point of the dimer
|  2> ! wB97X-D3 def2-TZVP TIGHTSCF CHELPG PMODEL PAL8
|  3>
|  4> %base "19-93_DFT_AB"
|  5>
|  6> %scf
|  7> MaxIter 1000
|  8> end
|  9>
| 10> * xyz 0 1
| 11>   C                      6.919625             2.237632             2.945838
| 12>   O                      7.105568             3.614791             3.004067
| 13>   H                      7.927648             3.903414             2.617584
| 14>   H                      7.422164             1.719098             3.729250
| 15>   H                      5.841692             1.966989             3.041488
| 16>   H                      7.318918             1.785904             1.953686
| 17>   C                      6.485865             6.830318             0.457606
| 18>   O                      6.958456             6.355031             -0.794069
| 19>   H                      7.907226             6.370384             -0.741623
| 20>   H                      6.882538             7.854793             0.749982
| 21>   H                      5.409756             6.912721             0.368214
| 22>   H                      6.865832             6.186334             1.267891
| 23> *
| 24>
| 25> #Run DFT-D3 single point of the molecule with dimer basis set
| 26> $new_job
| 27> %base "19-93_DFT_A"
| 28> ! wB97X-D3 def2-TZVP TIGHTSCF CHELPG PMODEL
| 29>
| 30> %scf
| 31> MaxIter 1000
| 32> end
| 33>
| 34> * xyz 0 1
| 35>   C                      6.919625             2.237632             2.945838
| 36>   O                      7.105568             3.614791             3.004067
| 37>   H                      7.927648             3.903414             2.617584
| 38>   H                      7.422164             1.719098             3.729250
| 39>   H                      5.841692             1.966989             3.041488
| 40>   H                      7.318918             1.785904             1.953686
| 41>   C                    : 6.485865             6.830318             0.457606
| 42>   O                    : 6.958456             6.355031             -0.794069
| 43>   H                    : 7.907226             6.370384             -0.741623
| 44>   H                    : 6.882538             7.854793             0.749982
| 45>   H                    : 5.409756             6.912721             0.368214
| 46>   H                    : 6.865832             6.186334             1.267891
| 47> *
| 48>
| 49> #Run DFT-D3 single point of the particle with dimer basis set
| 50> $new_job
| 51> %base "19-93_DFT_B"
| 52> ! wB97X-D3 def2-TZVP TIGHTSCF CHELPG PMODEL
| 53>
| 54> %scf
| 55> MaxIter 1000
| 56> end
| 57>
| 58> * xyz 0 1
| 59>   C                    : 6.919625             2.237632             2.945838
| 60>   O                    : 7.105568             3.614791             3.004067
| 61>   H                    : 7.927648             3.903414             2.617584
| 62>   H                    : 7.422164             1.719098             3.729250
| 63>   H                    : 5.841692             1.966989             3.041488
| 64>   H                    : 7.318918             1.785904             1.953686
| 65>   C                      6.485865             6.830318             0.457606
| 66>   O                      6.958456             6.355031             -0.794069
| 67>   H                      7.907226             6.370384             -0.741623
| 68>   H                      6.882538             7.854793             0.749982
| 69>   H                      5.409756             6.912721             0.368214
| 70>   H                      6.865832             6.186334             1.267891
| 71> *
| 72>
| 73>                          ****END OF INPUT****
 Total Charge           Charge          ....    0
 Multiplicity           Mult            ....    1
 Number of Electrons    NEL             ....   36
Dispersion correction           -0.001063793
FINAL SINGLE POINT ENERGY      -231.467369370280
Dispersion correction           -0.000256335
FINAL SINGLE POINT ENERGY      -115.732935572356

CARTESIAN COORDINATES (ANGSTROEM)
---------------------------------
  C      6.919625    2.237632    2.945838
  O      7.105568    3.614791    3.004067
  H      7.927648    3.903414    2.617584
  H      7.422164    1.719098    3.729250
  H      5.841692    1.966989    3.041488
  H      7.318918    1.785904    1.953686
  C      6.485865    6.830318    0.457606
  O      6.958456    6.355031   -0.794069
  H      7.907226    6.370384   -0.741623
  H      6.882538    7.854793    0.749982
  H      5.409756    6.912721    0.368214
  H      6.865832    6.186334    1.267891

 Multiplicity           Mult            ....    1
 Number of Electrons    NEL             ....   18
 Basis Dimension        Dim             ....  172

ORBITAL ENERGIES
----------------

  NO   OCC          E(Eh)            E(eV)
   0   2.0000     -19.230348      -523.2844
   1   2.0000     -10.318107      -280.7700
   2   2.0000      -1.138298       -30.9747
   3   2.0000      -0.792590       -21.5675
   4   2.0000      -0.614194       -16.7131
   5   2.0000      -0.538487       -14.6530
   6   2.0000      -0.519800       -14.1445
   7   2.0000      -0.443017       -12.0551
   8   2.0000      -0.371013       -10.0958
   9   0.0000       0.083327         2.2674
  10   0.0000       0.116099         3.1592
  11   0.0000       0.150941         4.1073
  12   0.0000       0.166871         4.5408
  13   0.0000       0.195679         5.3247

MULLIKEN ATOMIC CHARGES
-----------------------
   0 C :   -0.000136
   1 O :    0.000066
   2 H :    0.000380
   3 H :    0.000007
   4 H :   -0.000022
   5 H :    0.000006
   6 C :   -0.169979
   7 O :   -0.465013
   8 H :    0.310188
   9 H :    0.092795
  10 H :    0.127301
  11 H :    0.104406
Sum of atomic charges:    0.0000000

LOEWDIN ATOMIC CHARGES
----------------------
   0 C :   -0.000092
   1 O :   -0.000975
   2 H :   -0.001168
   3 H :   -0.000001
   4 H :   -0.000005
   5 H :   -0.000003
   6 C :   -0.385836
   7 O :   -0.075418
   8 H :    0.161524
   9 H :    0.098038
  10 H :    0.107656
  11 H :    0.096279

  Mayer bond orders larger than 0.1
B(  6-C ,  7-O ) :   0.9992 B(  6-C ,  9-H ) :   0.9702 B(  6-C , 10-H ) :   0.9742
B(  6-C , 11-H ) :   0.9733 B(  7-O ,  8-H ) :   0.9047

Dispersion correction           -0.000238402
FINAL SINGLE POINT ENERGY      -115.734149839140

DIPOLE MOMENT
-------------
                                X             Y             Z
Electronic contribution:      0.37434      -0.69651      -1.66980
Nuclear contribution   :      0.03754       0.88949       2.18367
                        -----------------------------------------
Total Dipole Moment    :      0.41187       0.19297       0.51387
                        -----------------------------------------
Magnitude (a.u.)       :      0.68625
Magnitude (Debye)      :      1.74430

Rotational constants in cm-1:     4.179154     0.832394     0.794595
Rotational constants in MHz : 125287.887698 24954.551021 23821.352495

                             ****ORCA TERMINATED NORMALLY****
TOTAL RUN TIME: 0 days 0 hours 0 minutes 52 seconds 410 msec
