                         Program Version 4.1.2  - RELEASE  -
|  1> #Run DFT-D3 single point of the dimer
|  2> ! wB97X-D3 def2-TZVP TIGHTSCF CHELPG PMODEL PAL8
|  3>
|  4> %base "3-188_DFT_AB"
|  5>
|  6> %scf
|  7> MaxIter 1000
|  8> end
|  9>
| 10> * xyz 0 1
| 11>   C                      6.057053             -5.596897            -11.317847
| 12>   O                      7.020771             -6.495254            -10.889214
| 13>   H                      6.983095             -6.517294            -9.921539
| 14>   H                      6.226132             -4.551050            -11.184380
| 15>   H                      5.929378             -5.586242            -12.429916
| 16>   H                      5.089214             -5.836619            -10.945969
| 17>   C                      7.366332             -3.830658            -8.430103
| 18>   O                      7.141244             -5.014732            -7.633027
| 19>   H                      7.909767             -5.145720            -7.084053
| 20>   H                      8.092044             -4.046045            -9.254475
| 21>   H                      6.396302             -3.522465            -8.843739
| 22>   H                      7.783393             -3.045541            -7.830395
| 23> *
| 24>
| 25> #Run DFT-D3 single point of the molecule with dimer basis set
| 26> $new_job
| 27> %base "3-188_DFT_A"
| 28> ! wB97X-D3 def2-TZVP TIGHTSCF CHELPG PMODEL
| 29>
| 30> %scf
| 31> MaxIter 1000
| 32> end
| 33>
| 34> * xyz 0 1
| 35>   C                      6.057053             -5.596897            -11.317847
| 36>   O                      7.020771             -6.495254            -10.889214
| 37>   H                      6.983095             -6.517294            -9.921539
| 38>   H                      6.226132             -4.551050            -11.184380
| 39>   H                      5.929378             -5.586242            -12.429916
| 40>   H                      5.089214             -5.836619            -10.945969
| 41>   C                    : 7.366332             -3.830658            -8.430103
| 42>   O                    : 7.141244             -5.014732            -7.633027
| 43>   H                    : 7.909767             -5.145720            -7.084053
| 44>   H                    : 8.092044             -4.046045            -9.254475
| 45>   H                    : 6.396302             -3.522465            -8.843739
| 46>   H                    : 7.783393             -3.045541            -7.830395
| 47> *
| 48>
| 49> #Run DFT-D3 single point of the particle with dimer basis set
| 50> $new_job
| 51> %base "3-188_DFT_B"
| 52> ! wB97X-D3 def2-TZVP TIGHTSCF CHELPG PMODEL
| 53>
| 54> %scf
| 55> MaxIter 1000
| 56> end
| 57>
| 58> * xyz 0 1
| 59>   C                    : 6.057053             -5.596897            -11.317847
| 60>   O                    : 7.020771             -6.495254            -10.889214
| 61>   H                    : 6.983095             -6.517294            -9.921539
| 62>   H                    : 6.226132             -4.551050            -11.184380
| 63>   H                    : 5.929378             -5.586242            -12.429916
| 64>   H                    : 5.089214             -5.836619            -10.945969
| 65>   C                      7.366332             -3.830658            -8.430103
| 66>   O                      7.141244             -5.014732            -7.633027
| 67>   H                      7.909767             -5.145720            -7.084053
| 68>   H                      8.092044             -4.046045            -9.254475
| 69>   H                      6.396302             -3.522465            -8.843739
| 70>   H                      7.783393             -3.045541            -7.830395
| 71> *
| 72>
| 73>                          ****END OF INPUT****
 Total Charge           Charge          ....    0
 Multiplicity           Mult            ....    1
 Number of Electrons    NEL             ....   36
Dispersion correction           -0.002206922
FINAL SINGLE POINT ENERGY      -231.472937549381
Dispersion correction           -0.000243826
FINAL SINGLE POINT ENERGY      -115.731489769857

CARTESIAN COORDINATES (ANGSTROEM)
---------------------------------
  C      6.057053   -5.596897  -11.317847
  O      7.020771   -6.495254  -10.889214
  H      6.983095   -6.517294   -9.921539
  H      6.226132   -4.551050  -11.184380
  H      5.929378   -5.586242  -12.429916
  H      5.089214   -5.836619  -10.945969
  C      7.366332   -3.830658   -8.430103
  O      7.141244   -5.014732   -7.633027
  H      7.909767   -5.145720   -7.084053
  H      8.092044   -4.046045   -9.254475
  H      6.396302   -3.522465   -8.843739
  H      7.783393   -3.045541   -7.830395

 Multiplicity           Mult            ....    1
 Number of Electrons    NEL             ....   18
 Basis Dimension        Dim             ....  172

ORBITAL ENERGIES
----------------

  NO   OCC          E(Eh)            E(eV)
   0   2.0000     -19.228148      -523.2245
   1   2.0000     -10.317096      -280.7425
   2   2.0000      -1.127926       -30.6924
   3   2.0000      -0.795688       -21.6518
   4   2.0000      -0.607259       -16.5244
   5   2.0000      -0.536497       -14.5988
   6   2.0000      -0.523519       -14.2457
   7   2.0000      -0.438732       -11.9385
   8   2.0000      -0.373517       -10.1639
   9   0.0000       0.092697         2.5224
  10   0.0000       0.122324         3.3286
  11   0.0000       0.156826         4.2675
  12   0.0000       0.174519         4.7489
  13   0.0000       0.188950         5.1416

MULLIKEN ATOMIC CHARGES
-----------------------
   0 C :    0.003654
   1 O :    0.000247
   2 H :   -0.005213
   3 H :   -0.002474
   4 H :    0.000012
   5 H :   -0.000523
   6 C :   -0.172692
   7 O :   -0.477840
   8 H :    0.310171
   9 H :    0.104551
  10 H :    0.121258
  11 H :    0.118848
Sum of atomic charges:    0.0000000

LOEWDIN ATOMIC CHARGES
----------------------
   0 C :   -0.004712
   1 O :   -0.000597
   2 H :   -0.007921
   3 H :   -0.003501
   4 H :   -0.000012
   5 H :   -0.000112
   6 C :   -0.357060
   7 O :   -0.091757
   8 H :    0.160262
   9 H :    0.101902
  10 H :    0.111798
  11 H :    0.091710

  Mayer bond orders larger than 0.1
B(  6-C ,  7-O ) :   0.9862 B(  6-C ,  9-H ) :   0.9751 B(  6-C , 10-H ) :   0.9749
B(  6-C , 11-H ) :   0.9712 B(  7-O ,  8-H ) :   0.9031

Dispersion correction           -0.000245433
FINAL SINGLE POINT ENERGY      -115.736143285928

DIPOLE MOMENT
-------------
                                X             Y             Z
Electronic contribution:     -0.42956      -1.42340       0.94992
Nuclear contribution   :      1.00712       1.85162      -0.90753
                        -----------------------------------------
Total Dipole Moment    :      0.57756       0.42822       0.04239
                        -----------------------------------------
Magnitude (a.u.)       :      0.72023
Magnitude (Debye)      :      1.83069

Rotational constants in cm-1:     4.223394     0.807643     0.777925
Rotational constants in MHz : 126614.171268 24212.516402 23321.619259

                             ****ORCA TERMINATED NORMALLY****
TOTAL RUN TIME: 0 days 0 hours 6 minutes 16 seconds 346 msec
