                         Program Version 4.1.2  - RELEASE  -
|  1> #Run DFT-D3 single point of the dimer
|  2> ! wB97X-D3 def2-TZVP TIGHTSCF CHELPG PMODEL PAL8
|  3>
|  4> %base "20-112_DFT_AB"
|  5>
|  6> %scf
|  7> MaxIter 1000
|  8> end
|  9>
| 10> * xyz 0 1
| 11>   C                      8.561412             8.547478             4.824897
| 12>   O                      9.910336             8.738627             5.198127
| 13>   H                      10.345457            7.856624             5.169852
| 14>   H                      8.078113             7.916050             5.563454
| 15>   H                      7.927140             9.450870             4.820817
| 16>   H                      8.344884             8.088721             3.855047
| 17>   C                      6.985075             6.300853             7.316913
| 18>   O                      7.155874             7.462573             8.133592
| 19>   H                      8.023004             7.862166             7.990459
| 20>   H                      6.856645             6.435957             6.236748
| 21>   H                      7.863312             5.660518             7.248556
| 22>   H                      6.144975             5.666459             7.674355
| 23> *
| 24>
| 25> #Run DFT-D3 single point of the molecule with dimer basis set
| 26> $new_job
| 27> %base "20-112_DFT_A"
| 28> ! wB97X-D3 def2-TZVP TIGHTSCF CHELPG PMODEL
| 29>
| 30> %scf
| 31> MaxIter 1000
| 32> end
| 33>
| 34> * xyz 0 1
| 35>   C                      8.561412             8.547478             4.824897
| 36>   O                      9.910336             8.738627             5.198127
| 37>   H                      10.345457            7.856624             5.169852
| 38>   H                      8.078113             7.916050             5.563454
| 39>   H                      7.927140             9.450870             4.820817
| 40>   H                      8.344884             8.088721             3.855047
| 41>   C                    : 6.985075             6.300853             7.316913
| 42>   O                    : 7.155874             7.462573             8.133592
| 43>   H                    : 8.023004             7.862166             7.990459
| 44>   H                    : 6.856645             6.435957             6.236748
| 45>   H                    : 7.863312             5.660518             7.248556
| 46>   H                    : 6.144975             5.666459             7.674355
| 47> *
| 48>
| 49> #Run DFT-D3 single point of the particle with dimer basis set
| 50> $new_job
| 51> %base "20-112_DFT_B"
| 52> ! wB97X-D3 def2-TZVP TIGHTSCF CHELPG PMODEL
| 53>
| 54> %scf
| 55> MaxIter 1000
| 56> end
| 57>
| 58> * xyz 0 1
| 59>   C                    : 8.561412             8.547478             4.824897
| 60>   O                    : 9.910336             8.738627             5.198127
| 61>   H                    : 10.345457            7.856624             5.169852
| 62>   H                    : 8.078113             7.916050             5.563454
| 63>   H                    : 7.927140             9.450870             4.820817
| 64>   H                    : 8.344884             8.088721             3.855047
| 65>   C                      6.985075             6.300853             7.316913
| 66>   O                      7.155874             7.462573             8.133592
| 67>   H                      8.023004             7.862166             7.990459
| 68>   H                      6.856645             6.435957             6.236748
| 69>   H                      7.863312             5.660518             7.248556
| 70>   H                      6.144975             5.666459             7.674355
| 71> *
| 72>
| 73>                          ****END OF INPUT****
 Total Charge           Charge          ....    0
 Multiplicity           Mult            ....    1
 Number of Electrons    NEL             ....   36
Dispersion correction           -0.001986221
FINAL SINGLE POINT ENERGY      -231.463810622036
Dispersion correction           -0.000255533
FINAL SINGLE POINT ENERGY      -115.732047469040

CARTESIAN COORDINATES (ANGSTROEM)
---------------------------------
  C      8.561412    8.547478    4.824897
  O      9.910336    8.738627    5.198127
  H     10.345457    7.856624    5.169852
  H      8.078113    7.916050    5.563454
  H      7.927140    9.450870    4.820817
  H      8.344884    8.088721    3.855047
  C      6.985075    6.300853    7.316913
  O      7.155874    7.462573    8.133592
  H      8.023004    7.862166    7.990459
  H      6.856645    6.435957    6.236748
  H      7.863312    5.660518    7.248556
  H      6.144975    5.666459    7.674355

 Multiplicity           Mult            ....    1
 Number of Electrons    NEL             ....   18
 Basis Dimension        Dim             ....  172

ORBITAL ENERGIES
----------------

  NO   OCC          E(Eh)            E(eV)
   0   2.0000     -19.236056      -523.4397
   1   2.0000     -10.316963      -280.7388
   2   2.0000      -1.130993       -30.7759
   3   2.0000      -0.799711       -21.7612
   4   2.0000      -0.618685       -16.8353
   5   2.0000      -0.526745       -14.3335
   6   2.0000      -0.523168       -14.2361
   7   2.0000      -0.438714       -11.9380
   8   2.0000      -0.373534       -10.1644
   9   0.0000       0.074506         2.0274
  10   0.0000       0.131362         3.5745
  11   0.0000       0.146778         3.9940
  12   0.0000       0.157025         4.2729
  13   0.0000       0.197088         5.3630

MULLIKEN ATOMIC CHARGES
-----------------------
   0 C :   -0.002817
   1 O :    0.000136
   2 H :   -0.000002
   3 H :    0.001222
   4 H :   -0.000167
   5 H :    0.000331
   6 C :   -0.193953
   7 O :   -0.473641
   8 H :    0.319129
   9 H :    0.102980
  10 H :    0.109658
  11 H :    0.137124
Sum of atomic charges:    0.0000000

LOEWDIN ATOMIC CHARGES
----------------------
   0 C :   -0.006401
   1 O :   -0.000120
   2 H :   -0.000055
   3 H :   -0.011331
   4 H :   -0.000136
   5 H :   -0.000147
   6 C :   -0.380674
   7 O :   -0.080903
   8 H :    0.171562
   9 H :    0.098542
  10 H :    0.095176
  11 H :    0.114487

  Mayer bond orders larger than 0.1
B(  6-C ,  7-O ) :   0.9979 B(  6-C ,  9-H ) :   0.9693 B(  6-C , 10-H ) :   0.9757
B(  6-C , 11-H ) :   0.9766 B(  7-O ,  8-H ) :   0.8950

Dispersion correction           -0.000281084
FINAL SINGLE POINT ENERGY      -115.731208248651

DIPOLE MOMENT
-------------
                                X             Y             Z
Electronic contribution:      0.04579       1.60012       1.20187
Nuclear contribution   :      0.45796      -1.82256      -1.62056
                        -----------------------------------------
Total Dipole Moment    :      0.50375      -0.22244      -0.41869
                        -----------------------------------------
Magnitude (a.u.)       :      0.69177
Magnitude (Debye)      :      1.75834

Rotational constants in cm-1:     4.495985     0.801063     0.762830
Rotational constants in MHz : 134786.241526 24015.255751 22869.079936

                             ****ORCA TERMINATED NORMALLY****
TOTAL RUN TIME: 0 days 0 hours 1 minutes 5 seconds 878 msec
