                         Program Version 4.1.2  - RELEASE  -
|  1> #Run DFT-D3 single point of the dimer
|  2> ! wB97X-D3 def2-TZVP TIGHTSCF CHELPG PMODEL PAL8
|  3>
|  4> %base "10-175_DFT_AB"
|  5>
|  6> %scf
|  7> MaxIter 1000
|  8> end
|  9>
| 10> * xyz 0 1
| 11>   C                      -4.165208            -6.874129            5.786169
| 12>   O                      -4.507028            -5.521137            6.047845
| 13>   H                      -3.898203            -4.878910            5.624120
| 14>   H                      -4.916415            -7.543379            6.206603
| 15>   H                      -4.069517            -7.060152            4.748270
| 16>   H                      -3.136415            -7.146011            6.180695
| 17>   C                      -5.166520            -2.157854            5.731922
| 18>   O                      -4.352424            -2.878573            4.845293
| 19>   H                      -4.531012            -2.479481            4.001761
| 20>   H                      -6.255409            -2.274834            5.542018
| 21>   H                      -4.978157            -2.425634            6.797351
| 22>   H                      -5.056658            -1.138531            5.729317
| 23> *
| 24>
| 25> #Run DFT-D3 single point of the molecule with dimer basis set
| 26> $new_job
| 27> %base "10-175_DFT_A"
| 28> ! wB97X-D3 def2-TZVP TIGHTSCF CHELPG PMODEL
| 29>
| 30> %scf
| 31> MaxIter 1000
| 32> end
| 33>
| 34> * xyz 0 1
| 35>   C                      -4.165208            -6.874129            5.786169
| 36>   O                      -4.507028            -5.521137            6.047845
| 37>   H                      -3.898203            -4.878910            5.624120
| 38>   H                      -4.916415            -7.543379            6.206603
| 39>   H                      -4.069517            -7.060152            4.748270
| 40>   H                      -3.136415            -7.146011            6.180695
| 41>   C                    : -5.166520            -2.157854            5.731922
| 42>   O                    : -4.352424            -2.878573            4.845293
| 43>   H                    : -4.531012            -2.479481            4.001761
| 44>   H                    : -6.255409            -2.274834            5.542018
| 45>   H                    : -4.978157            -2.425634            6.797351
| 46>   H                    : -5.056658            -1.138531            5.729317
| 47> *
| 48>
| 49> #Run DFT-D3 single point of the particle with dimer basis set
| 50> $new_job
| 51> %base "10-175_DFT_B"
| 52> ! wB97X-D3 def2-TZVP TIGHTSCF CHELPG PMODEL
| 53>
| 54> %scf
| 55> MaxIter 1000
| 56> end
| 57>
| 58> * xyz 0 1
| 59>   C                    : -4.165208            -6.874129            5.786169
| 60>   O                    : -4.507028            -5.521137            6.047845
| 61>   H                    : -3.898203            -4.878910            5.624120
| 62>   H                    : -4.916415            -7.543379            6.206603
| 63>   H                    : -4.069517            -7.060152            4.748270
| 64>   H                    : -3.136415            -7.146011            6.180695
| 65>   C                      -5.166520            -2.157854            5.731922
| 66>   O                      -4.352424            -2.878573            4.845293
| 67>   H                      -4.531012            -2.479481            4.001761
| 68>   H                      -6.255409            -2.274834            5.542018
| 69>   H                      -4.978157            -2.425634            6.797351
| 70>   H                      -5.056658            -1.138531            5.729317
| 71> *
| 72>
| 73>                          ****END OF INPUT****
 Total Charge           Charge          ....    0
 Multiplicity           Mult            ....    1
 Number of Electrons    NEL             ....   36
Dispersion correction           -0.001550806
FINAL SINGLE POINT ENERGY      -231.469102863537
Dispersion correction           -0.000257692
FINAL SINGLE POINT ENERGY      -115.733684451451

CARTESIAN COORDINATES (ANGSTROEM)
---------------------------------
  C     -4.165208   -6.874129    5.786169
  O     -4.507028   -5.521137    6.047845
  H     -3.898203   -4.878910    5.624120
  H     -4.916415   -7.543379    6.206603
  H     -4.069517   -7.060152    4.748270
  H     -3.136415   -7.146011    6.180695
  C     -5.166520   -2.157854    5.731922
  O     -4.352424   -2.878573    4.845293
  H     -4.531012   -2.479481    4.001761
  H     -6.255409   -2.274834    5.542018
  H     -4.978157   -2.425634    6.797351
  H     -5.056658   -1.138531    5.729317

 Multiplicity           Mult            ....    1
 Number of Electrons    NEL             ....   18
 Basis Dimension        Dim             ....  172

ORBITAL ENERGIES
----------------

  NO   OCC          E(Eh)            E(eV)
   0   2.0000     -19.235635      -523.4282
   1   2.0000     -10.308474      -280.5078
   2   2.0000      -1.146889       -31.2084
   3   2.0000      -0.800631       -21.7863
   4   2.0000      -0.621841       -16.9212
   5   2.0000      -0.540154       -14.6983
   6   2.0000      -0.526917       -14.3381
   7   2.0000      -0.441634       -12.0175
   8   2.0000      -0.376103       -10.2343
   9   0.0000       0.098700         2.6858
  10   0.0000       0.119259         3.2452
  11   0.0000       0.152048         4.1374
  12   0.0000       0.186368         5.0713
  13   0.0000       0.203482         5.5370

MULLIKEN ATOMIC CHARGES
-----------------------
   0 C :    0.000296
   1 O :    0.000344
   2 H :   -0.007717
   3 H :   -0.000001
   4 H :   -0.000157
   5 H :   -0.000031
   6 C :   -0.188669
   7 O :   -0.448412
   8 H :    0.310490
   9 H :    0.098687
  10 H :    0.118102
  11 H :    0.117069
Sum of atomic charges:   -0.0000000

LOEWDIN ATOMIC CHARGES
----------------------
   0 C :   -0.000547
   1 O :   -0.005302
   2 H :   -0.022076
   3 H :   -0.000008
   4 H :   -0.000059
   5 H :   -0.000006
   6 C :   -0.397783
   7 O :   -0.034163
   8 H :    0.167269
   9 H :    0.097853
  10 H :    0.115282
  11 H :    0.079541

  Mayer bond orders larger than 0.1
B(  6-C ,  7-O ) :   0.9957 B(  6-C ,  9-H ) :   0.9772 B(  6-C , 10-H ) :   0.9772
B(  6-C , 11-H ) :   0.9685 B(  7-O ,  8-H ) :   0.9014

Dispersion correction           -0.000234008
FINAL SINGLE POINT ENERGY      -115.730340559847

DIPOLE MOMENT
-------------
                                X             Y             Z
Electronic contribution:      1.24279      -1.03030      -1.14393
Nuclear contribution   :     -1.64658       1.60163       0.95214
                        -----------------------------------------
Total Dipole Moment    :     -0.40379       0.57133      -0.19179
                        -----------------------------------------
Magnitude (a.u.)       :      0.72543
Magnitude (Debye)      :      1.84389

Rotational constants in cm-1:     4.502921     0.839982     0.802101
Rotational constants in MHz : 134994.170182 25182.038481 24046.378764

                             ****ORCA TERMINATED NORMALLY****
TOTAL RUN TIME: 0 days 0 hours 1 minutes 7 seconds 584 msec
