                         Program Version 4.1.2  - RELEASE  -
|  1> #Run DFT-D3 single point of the dimer
|  2> ! wB97X-D3 def2-TZVP TIGHTSCF CHELPG PMODEL PAL8
|  3>
|  4> %base "2-51_DFT_AB"
|  5>
|  6> %scf
|  7> MaxIter 1000
|  8> end
|  9>
| 10> * xyz 0 1
| 11>   C                      -8.188592            6.299989             8.631116
| 12>   O                      -7.155412            5.502019             8.031139
| 13>   H                      -6.397915            6.059291             7.795830
| 14>   H                      -7.792349            7.169263             9.225792
| 15>   H                      -9.011123            6.514553             7.862433
| 16>   H                      -8.740029            5.735765             9.411922
| 17>   C                      -8.273351            4.023112             6.240518
| 18>   O                      -9.300912            4.942072             6.423396
| 19>   H                      -9.664432            5.132391             5.548196
| 20>   H                      -7.827101            3.840207             7.217766
| 21>   H                      -8.727517            3.045804             5.920065
| 22>   H                      -7.568176            4.381873             5.668023
| 23> *
| 24>
| 25> #Run DFT-D3 single point of the molecule with dimer basis set
| 26> $new_job
| 27> %base "2-51_DFT_A"
| 28> ! wB97X-D3 def2-TZVP TIGHTSCF CHELPG PMODEL
| 29>
| 30> %scf
| 31> MaxIter 1000
| 32> end
| 33>
| 34> * xyz 0 1
| 35>   C                      -8.188592            6.299989             8.631116
| 36>   O                      -7.155412            5.502019             8.031139
| 37>   H                      -6.397915            6.059291             7.795830
| 38>   H                      -7.792349            7.169263             9.225792
| 39>   H                      -9.011123            6.514553             7.862433
| 40>   H                      -8.740029            5.735765             9.411922
| 41>   C                    : -8.273351            4.023112             6.240518
| 42>   O                    : -9.300912            4.942072             6.423396
| 43>   H                    : -9.664432            5.132391             5.548196
| 44>   H                    : -7.827101            3.840207             7.217766
| 45>   H                    : -8.727517            3.045804             5.920065
| 46>   H                    : -7.568176            4.381873             5.668023
| 47> *
| 48>
| 49> #Run DFT-D3 single point of the particle with dimer basis set
| 50> $new_job
| 51> %base "2-51_DFT_B"
| 52> ! wB97X-D3 def2-TZVP TIGHTSCF CHELPG PMODEL
| 53>
| 54> %scf
| 55> MaxIter 1000
| 56> end
| 57>
| 58> * xyz 0 1
| 59>   C                    : -8.188592            6.299989             8.631116
| 60>   O                    : -7.155412            5.502019             8.031139
| 61>   H                    : -6.397915            6.059291             7.795830
| 62>   H                    : -7.792349            7.169263             9.225792
| 63>   H                    : -9.011123            6.514553             7.862433
| 64>   H                    : -8.740029            5.735765             9.411922
| 65>   C                      -8.273351            4.023112             6.240518
| 66>   O                      -9.300912            4.942072             6.423396
| 67>   H                      -9.664432            5.132391             5.548196
| 68>   H                      -7.827101            3.840207             7.217766
| 69>   H                      -8.727517            3.045804             5.920065
| 70>   H                      -7.568176            4.381873             5.668023
| 71> *
| 72>
| 73>                          ****END OF INPUT****
 Total Charge           Charge          ....    0
 Multiplicity           Mult            ....    1
 Number of Electrons    NEL             ....   36
Dispersion correction           -0.002324800
FINAL SINGLE POINT ENERGY      -231.445414847338
Dispersion correction           -0.000284847
FINAL SINGLE POINT ENERGY      -115.730396464352

CARTESIAN COORDINATES (ANGSTROEM)
---------------------------------
  C     -8.188592    6.299989    8.631116
  O     -7.155412    5.502019    8.031139
  H     -6.397915    6.059291    7.795830
  H     -7.792349    7.169263    9.225792
  H     -9.011123    6.514553    7.862433
  H     -8.740029    5.735765    9.411922
  C     -8.273351    4.023112    6.240518
  O     -9.300912    4.942072    6.423396
  H     -9.664432    5.132391    5.548196
  H     -7.827101    3.840207    7.217766
  H     -8.727517    3.045804    5.920065
  H     -7.568176    4.381873    5.668023

 Multiplicity           Mult            ....    1
 Number of Electrons    NEL             ....   18
 Basis Dimension        Dim             ....  172

ORBITAL ENERGIES
----------------

  NO   OCC          E(Eh)            E(eV)
   0   2.0000     -19.227671      -523.2115
   1   2.0000     -10.299479      -280.2631
   2   2.0000      -1.142134       -31.0791
   3   2.0000      -0.800951       -21.7950
   4   2.0000      -0.614919       -16.7328
   5   2.0000      -0.559260       -15.2182
   6   2.0000      -0.527720       -14.3600
   7   2.0000      -0.429710       -11.6930
   8   2.0000      -0.373904       -10.1744
   9   0.0000       0.096825         2.6347
  10   0.0000       0.129596         3.5265
  11   0.0000       0.154810         4.2126
  12   0.0000       0.180299         4.9062
  13   0.0000       0.197054         5.3621

MULLIKEN ATOMIC CHARGES
-----------------------
   0 C :    0.008227
   1 O :    0.001532
   2 H :   -0.000066
   3 H :    0.000103
   4 H :   -0.013243
   5 H :   -0.002348
   6 C :   -0.155134
   7 O :   -0.466010
   8 H :    0.310117
   9 H :    0.106139
  10 H :    0.093425
  11 H :    0.117257
Sum of atomic charges:    0.0000000

LOEWDIN ATOMIC CHARGES
----------------------
   0 C :   -0.026857
   1 O :   -0.034514
   2 H :   -0.001702
   3 H :   -0.000176
   4 H :   -0.024571
   5 H :   -0.000889
   6 C :   -0.363903
   7 O :   -0.020059
   8 H :    0.173487
   9 H :    0.127390
  10 H :    0.104044
  11 H :    0.067750

  Mayer bond orders larger than 0.1
B(  6-C ,  7-O ) :   0.9997 B(  6-C ,  9-H ) :   0.9814 B(  6-C , 10-H ) :   0.9757
B(  6-C , 11-H ) :   0.9806 B(  7-O ,  8-H ) :   0.8984

Dispersion correction           -0.000204835
FINAL SINGLE POINT ENERGY      -115.724891260629

DIPOLE MOMENT
-------------
                                X             Y             Z
Electronic contribution:     -1.14842       1.23917       0.22356
Nuclear contribution   :      1.34912      -1.46281      -0.83969
                        -----------------------------------------
Total Dipole Moment    :      0.20069      -0.22363      -0.61613
                        -----------------------------------------
Magnitude (a.u.)       :      0.68549
Magnitude (Debye)      :      1.74239

Rotational constants in cm-1:     4.387175     0.866747     0.840265
Rotational constants in MHz : 131524.203762 25984.428427 25190.504669

                             ****ORCA TERMINATED NORMALLY****
TOTAL RUN TIME: 0 days 0 hours 6 minutes 1 seconds 233 msec
