                         Program Version 4.1.2  - RELEASE  -
|  1> #Run DFT-D3 single point of the dimer
|  2> ! wB97X-D3 def2-TZVP TIGHTSCF  CHELPG PAL8
|  3>
|  4> %base "114_charges"
|  5>
|  6> %scf
|  7> MaxIter 1000
|  8> end
|  9> %output
| 10>   Print[ P_Mayer ] 1
| 11>   Print[ P_NatPop ] 1
| 12>   Print[ P_Hirshfeld ] 1
| 13>   Print[ P_Mulliken ] 1
| 14>   Print [ P_Loewdin ] 1
| 15> end
| 16>
| 17> * xyz 0 1
| 18>   C                      -0.984153            -2.969756            4.873699
| 19>   O                      -1.188438            -2.224044            6.077295
| 20>   H                      -0.785359            -1.350104            5.942336
| 21>   H                      -1.373341            -2.418463            4.067876
| 22>   H                      0.075661             -2.996704            4.679637
| 23>   H                      -1.354696            -3.992944            4.909895
| 24> *
| 25>
| 26>                          ****END OF INPUT****

CARTESIAN COORDINATES (ANGSTROEM)
---------------------------------
  C     -0.984153   -2.969756    4.873699
  O     -1.188438   -2.224044    6.077295
  H     -0.785359   -1.350104    5.942336
  H     -1.373341   -2.418463    4.067876
  H      0.075661   -2.996704    4.679637
  H     -1.354696   -3.992944    4.909895

 Total Charge           Charge          ....    0
 Multiplicity           Mult            ....    1
 Number of Electrons    NEL             ....   18
 Basis Dimension        Dim             ....   86

ORBITAL ENERGIES
----------------

  NO   OCC          E(Eh)            E(eV)
   0   2.0000     -19.227507      -523.2071
   1   2.0000     -10.307314      -280.4763
   2   2.0000      -1.127970       -30.6936
   3   2.0000      -0.798730       -21.7345
   4   2.0000      -0.607753       -16.5378
   5   2.0000      -0.541513       -14.7353
   6   2.0000      -0.531112       -14.4523
   7   2.0000      -0.436527       -11.8785
   8   2.0000      -0.369361       -10.0508
   9   0.0000       0.113428         3.0865
  10   0.0000       0.156645         4.2625
  11   0.0000       0.204941         5.5767
  12   0.0000       0.207494         5.6462
  13   0.0000       0.223953         6.0941

MULLIKEN ATOMIC CHARGES
-----------------------
   0 C :   -0.165434
   1 O :   -0.484881
   2 H :    0.315159
   3 H :    0.106832
   4 H :    0.103262
   5 H :    0.125063
Sum of atomic charges:   -0.0000000

LOEWDIN ATOMIC CHARGES
----------------------
   0 C :   -0.364497
   1 O :   -0.099734
   2 H :    0.175046
   3 H :    0.086925
   4 H :    0.092951
   5 H :    0.109308

  Mayer bond orders larger than 0.1
B(  0-C ,  1-O ) :   0.9869 B(  0-C ,  3-H ) :   0.9817 B(  0-C ,  4-H ) :   0.9837
B(  0-C ,  5-H ) :   0.9698 B(  1-O ,  2-H ) :   0.8973

Dispersion correction           -0.000217692
FINAL SINGLE POINT ENERGY      -115.731932168505

DIPOLE MOMENT
-------------
                                X             Y             Z
Electronic contribution:     -0.44479       0.71170       1.56169
Nuclear contribution   :      0.79018      -0.47310      -2.16034
                        -----------------------------------------
Total Dipole Moment    :      0.34539       0.23860      -0.59865
                        -----------------------------------------
Magnitude (a.u.)       :      0.73117
Magnitude (Debye)      :      1.85847

Rotational constants in cm-1:     4.390988     0.827510     0.788585
Rotational constants in MHz : 131638.514094 24808.121263 23641.198237

                             ****ORCA TERMINATED NORMALLY****
TOTAL RUN TIME: 0 days 0 hours 0 minutes 46 seconds 633 msec
