                         Program Version 4.1.2  - RELEASE  -
|  1> #Run DFT-D3 single point of the dimer
|  2> ! wB97X-D3 def2-TZVP TIGHTSCF CHELPG PMODEL PAL8
|  3>
|  4> %base "18-172_DFT_AB"
|  5>
|  6> %scf
|  7> MaxIter 1000
|  8> end
|  9>
| 10> * xyz 0 1
| 11>   C                      -3.115504            7.001241             2.301586
| 12>   O                      -3.053146            6.462424             0.964257
| 13>   H                      -2.899011            7.214064             0.348305
| 14>   H                      -3.798502            7.837995             2.319530
| 15>   H                      -3.430143            6.398298             3.171585
| 16>   H                      -2.108414            7.378747             2.531896
| 17>   C                      -5.233125            4.057205             1.120172
| 18>   O                      -4.049725            4.015248             0.367915
| 19>   H                      -3.640704            4.844211             0.494158
| 20>   H                      -5.756371            5.064788             1.065926
| 21>   H                      -5.982062            3.392982             0.703762
| 22>   H                      -5.052303            3.785532             2.221070
| 23> *
| 24>
| 25> #Run DFT-D3 single point of the molecule with dimer basis set
| 26> $new_job
| 27> %base "18-172_DFT_A"
| 28> ! wB97X-D3 def2-TZVP TIGHTSCF CHELPG PMODEL
| 29>
| 30> %scf
| 31> MaxIter 1000
| 32> end
| 33>
| 34> * xyz 0 1
| 35>   C                      -3.115504            7.001241             2.301586
| 36>   O                      -3.053146            6.462424             0.964257
| 37>   H                      -2.899011            7.214064             0.348305
| 38>   H                      -3.798502            7.837995             2.319530
| 39>   H                      -3.430143            6.398298             3.171585
| 40>   H                      -2.108414            7.378747             2.531896
| 41>   C                    : -5.233125            4.057205             1.120172
| 42>   O                    : -4.049725            4.015248             0.367915
| 43>   H                    : -3.640704            4.844211             0.494158
| 44>   H                    : -5.756371            5.064788             1.065926
| 45>   H                    : -5.982062            3.392982             0.703762
| 46>   H                    : -5.052303            3.785532             2.221070
| 47> *
| 48>
| 49> #Run DFT-D3 single point of the particle with dimer basis set
| 50> $new_job
| 51> %base "18-172_DFT_B"
| 52> ! wB97X-D3 def2-TZVP TIGHTSCF CHELPG PMODEL
| 53>
| 54> %scf
| 55> MaxIter 1000
| 56> end
| 57>
| 58> * xyz 0 1
| 59>   C                    : -3.115504            7.001241             2.301586
| 60>   O                    : -3.053146            6.462424             0.964257
| 61>   H                    : -2.899011            7.214064             0.348305
| 62>   H                    : -3.798502            7.837995             2.319530
| 63>   H                    : -3.430143            6.398298             3.171585
| 64>   H                    : -2.108414            7.378747             2.531896
| 65>   C                      -5.233125            4.057205             1.120172
| 66>   O                      -4.049725            4.015248             0.367915
| 67>   H                      -3.640704            4.844211             0.494158
| 68>   H                      -5.756371            5.064788             1.065926
| 69>   H                      -5.982062            3.392982             0.703762
| 70>   H                      -5.052303            3.785532             2.221070
| 71> *
| 72>
| 73>                          ****END OF INPUT****
 Total Charge           Charge          ....    0
 Multiplicity           Mult            ....    1
 Number of Electrons    NEL             ....   36
Dispersion correction           -0.002084641
FINAL SINGLE POINT ENERGY      -231.469533297351
Dispersion correction           -0.000249049
FINAL SINGLE POINT ENERGY      -115.728024893727

CARTESIAN COORDINATES (ANGSTROEM)
---------------------------------
  C     -3.115504    7.001241    2.301586
  O     -3.053146    6.462424    0.964257
  H     -2.899011    7.214064    0.348305
  H     -3.798502    7.837995    2.319530
  H     -3.430143    6.398298    3.171585
  H     -2.108414    7.378747    2.531896
  C     -5.233125    4.057205    1.120172
  O     -4.049725    4.015248    0.367915
  H     -3.640704    4.844211    0.494158
  H     -5.756371    5.064788    1.065926
  H     -5.982062    3.392982    0.703762
  H     -5.052303    3.785532    2.221070

 Multiplicity           Mult            ....    1
 Number of Electrons    NEL             ....   18
 Basis Dimension        Dim             ....  172

ORBITAL ENERGIES
----------------

  NO   OCC          E(Eh)            E(eV)
   0   2.0000     -19.232285      -523.3371
   1   2.0000     -10.321877      -280.8725
   2   2.0000      -1.149000       -31.2659
   3   2.0000      -0.791912       -21.5490
   4   2.0000      -0.614406       -16.7188
   5   2.0000      -0.542005       -14.7487
   6   2.0000      -0.527424       -14.3519
   7   2.0000      -0.433102       -11.7853
   8   2.0000      -0.376295       -10.2395
   9   0.0000       0.067996         1.8503
  10   0.0000       0.138043         3.7563
  11   0.0000       0.139964         3.8086
  12   0.0000       0.166430         4.5288
  13   0.0000       0.190092         5.1727

MULLIKEN ATOMIC CHARGES
-----------------------
   0 C :   -0.000191
   1 O :   -0.007664
   2 H :   -0.000482
   3 H :   -0.000315
   4 H :   -0.000201
   5 H :    0.000154
   6 C :   -0.184052
   7 O :   -0.456093
   8 H :    0.317663
   9 H :    0.102249
  10 H :    0.127728
  11 H :    0.101201
Sum of atomic charges:    0.0000000

LOEWDIN ATOMIC CHARGES
----------------------
   0 C :   -0.005116
   1 O :   -0.028904
   2 H :   -0.001440
   3 H :   -0.000152
   4 H :   -0.000523
   5 H :   -0.000068
   6 C :   -0.402962
   7 O :   -0.037639
   8 H :    0.166297
   9 H :    0.102919
  10 H :    0.103834
  11 H :    0.103754

  Mayer bond orders larger than 0.1
B(  6-C ,  7-O ) :   0.9919 B(  6-C ,  9-H ) :   0.9763 B(  6-C , 10-H ) :   0.9740
B(  6-C , 11-H ) :   0.9707 B(  7-O ,  8-H ) :   0.9107

Dispersion correction           -0.000250893
FINAL SINGLE POINT ENERGY      -115.733122777041

DIPOLE MOMENT
-------------
                                X             Y             Z
Electronic contribution:      1.59380      -0.24257      -1.08184
Nuclear contribution   :     -1.79797       0.78214       1.40746
                        -----------------------------------------
Total Dipole Moment    :     -0.20417       0.53957       0.32561
                        -----------------------------------------
Magnitude (a.u.)       :      0.66245
Magnitude (Debye)      :      1.68383

Rotational constants in cm-1:     4.184561     0.829345     0.811186
Rotational constants in MHz : 125449.993681 24863.127791 24318.732944

                             ****ORCA TERMINATED NORMALLY****
TOTAL RUN TIME: 0 days 0 hours 1 minutes 2 seconds 955 msec
