                         Program Version 4.1.2  - RELEASE  -
|  1> #Run DFT-D3 single point of the dimer
|  2> ! wB97X-D3 def2-TZVP TIGHTSCF CHELPG PMODEL PAL8
|  3>
|  4> %base "10-164_DFT_AB"
|  5>
|  6> %scf
|  7> MaxIter 1000
|  8> end
|  9>
| 10> * xyz 0 1
| 11>   C                      -1.145266            4.923665             -10.625641
| 12>   O                      -0.482136            6.152050             -11.005660
| 13>   H                      -0.553224            6.163091             -11.985969
| 14>   H                      -1.385183            4.901109             -9.561415
| 15>   H                      -2.095786            4.768359             -11.067934
| 16>   H                      -0.523370            4.072885             -10.884621
| 17>   C                      1.184051             9.545154             -10.449193
| 18>   O                      0.712250             9.079365             -11.662220
| 19>   H                      1.156506             8.166864             -11.730392
| 20>   H                      2.280564             9.254853             -10.374199
| 21>   H                      1.133844             10.686631            -10.237930
| 22>   H                      0.691803             9.158588             -9.557008
| 23> *
| 24>
| 25> #Run DFT-D3 single point of the molecule with dimer basis set
| 26> $new_job
| 27> %base "10-164_DFT_A"
| 28> ! wB97X-D3 def2-TZVP TIGHTSCF CHELPG PMODEL
| 29>
| 30> %scf
| 31> MaxIter 1000
| 32> end
| 33>
| 34> * xyz 0 1
| 35>   C                      -1.145266            4.923665             -10.625641
| 36>   O                      -0.482136            6.152050             -11.005660
| 37>   H                      -0.553224            6.163091             -11.985969
| 38>   H                      -1.385183            4.901109             -9.561415
| 39>   H                      -2.095786            4.768359             -11.067934
| 40>   H                      -0.523370            4.072885             -10.884621
| 41>   C                    : 1.184051             9.545154             -10.449193
| 42>   O                    : 0.712250             9.079365             -11.662220
| 43>   H                    : 1.156506             8.166864             -11.730392
| 44>   H                    : 2.280564             9.254853             -10.374199
| 45>   H                    : 1.133844             10.686631            -10.237930
| 46>   H                    : 0.691803             9.158588             -9.557008
| 47> *
| 48>
| 49> #Run DFT-D3 single point of the particle with dimer basis set
| 50> $new_job
| 51> %base "10-164_DFT_B"
| 52> ! wB97X-D3 def2-TZVP TIGHTSCF CHELPG PMODEL
| 53>
| 54> %scf
| 55> MaxIter 1000
| 56> end
| 57>
| 58> * xyz 0 1
| 59>   C                    : -1.145266            4.923665             -10.625641
| 60>   O                    : -0.482136            6.152050             -11.005660
| 61>   H                    : -0.553224            6.163091             -11.985969
| 62>   H                    : -1.385183            4.901109             -9.561415
| 63>   H                    : -2.095786            4.768359             -11.067934
| 64>   H                    : -0.523370            4.072885             -10.884621
| 65>   C                      1.184051             9.545154             -10.449193
| 66>   O                      0.712250             9.079365             -11.662220
| 67>   H                      1.156506             8.166864             -11.730392
| 68>   H                      2.280564             9.254853             -10.374199
| 69>   H                      1.133844             10.686631            -10.237930
| 70>   H                      0.691803             9.158588             -9.557008
| 71> *
| 72>
| 73>                          ****END OF INPUT****
 Total Charge           Charge          ....    0
 Multiplicity           Mult            ....    1
 Number of Electrons    NEL             ....   36
Dispersion correction           -0.001391098
FINAL SINGLE POINT ENERGY      -231.459112129387
Dispersion correction           -0.000245846
FINAL SINGLE POINT ENERGY      -115.733152479184

CARTESIAN COORDINATES (ANGSTROEM)
---------------------------------
  C     -1.145266    4.923665  -10.625641
  O     -0.482136    6.152050  -11.005660
  H     -0.553224    6.163091  -11.985969
  H     -1.385183    4.901109   -9.561415
  H     -2.095786    4.768359  -11.067934
  H     -0.523370    4.072885  -10.884621
  C      1.184051    9.545154  -10.449193
  O      0.712250    9.079365  -11.662220
  H      1.156506    8.166864  -11.730392
  H      2.280564    9.254853  -10.374199
  H      1.133844   10.686631  -10.237930
  H      0.691803    9.158588   -9.557008

 Multiplicity           Mult            ....    1
 Number of Electrons    NEL             ....   18
 Basis Dimension        Dim             ....  172

ORBITAL ENERGIES
----------------

  NO   OCC          E(Eh)            E(eV)
   0   2.0000     -19.243206      -523.6343
   1   2.0000     -10.321947      -280.8744
   2   2.0000      -1.144666       -31.1479
   3   2.0000      -0.781128       -21.2556
   4   2.0000      -0.611404       -16.6371
   5   2.0000      -0.545662       -14.8482
   6   2.0000      -0.528119       -14.3709
   7   2.0000      -0.426859       -11.6154
   8   2.0000      -0.372580       -10.1384
   9   0.0000       0.078376         2.1327
  10   0.0000       0.110738         3.0133
  11   0.0000       0.142507         3.8778
  12   0.0000       0.178451         4.8559
  13   0.0000       0.187252         5.0954

MULLIKEN ATOMIC CHARGES
-----------------------
   0 C :   -0.000762
   1 O :   -0.003118
   2 H :   -0.001998
   3 H :    0.000043
   4 H :    0.000023
   5 H :    0.000002
   6 C :   -0.185890
   7 O :   -0.447636
   8 H :    0.329097
   9 H :    0.095100
  10 H :    0.115163
  11 H :    0.099976
Sum of atomic charges:    0.0000000

LOEWDIN ATOMIC CHARGES
----------------------
   0 C :   -0.000266
   1 O :   -0.005241
   2 H :   -0.002653
   3 H :   -0.000007
   4 H :   -0.000005
   5 H :   -0.000008
   6 C :   -0.441271
   7 O :   -0.068213
   8 H :    0.213008
   9 H :    0.099496
  10 H :    0.116751
  11 H :    0.088409

  Mayer bond orders larger than 0.1
B(  6-C ,  7-O ) :   1.0197 B(  6-C ,  9-H ) :   0.9928 B(  6-C , 10-H ) :   0.9686
B(  6-C , 11-H ) :   0.9641 B(  7-O ,  8-H ) :   0.8839

Dispersion correction           -0.000243343
FINAL SINGLE POINT ENERGY      -115.724080171972

DIPOLE MOMENT
-------------
                                X             Y             Z
Electronic contribution:     -0.87848      -0.50343      -1.78646
Nuclear contribution   :      1.31212       0.12043       2.17973
                        -----------------------------------------
Total Dipole Moment    :      0.43364      -0.38299       0.39327
                        -----------------------------------------
Magnitude (a.u.)       :      0.69956
Magnitude (Debye)      :      1.77814

Rotational constants in cm-1:     4.120853     0.849591     0.807893
Rotational constants in MHz : 123540.064235 25470.104936 24220.029328

                             ****ORCA TERMINATED NORMALLY****
TOTAL RUN TIME: 0 days 0 hours 1 minutes 4 seconds 376 msec
