                         Program Version 4.1.2  - RELEASE  -
|  1> #Run DFT-D3 single point of the dimer
|  2> ! wB97X-D3 def2-TZVP TIGHTSCF  CHELPG PAL8
|  3>
|  4> %base "176_charges"
|  5>
|  6> %scf
|  7> MaxIter 1000
|  8> end
|  9> %output
| 10>   Print[ P_Mayer ] 1
| 11>   Print[ P_NatPop ] 1
| 12>   Print[ P_Hirshfeld ] 1
| 13>   Print[ P_Mulliken ] 1
| 14>   Print [ P_Loewdin ] 1
| 15> end
| 16>
| 17> * xyz 0 1
| 18>   C                      -10.665111           10.187866            6.672238
| 19>   O                      -10.550337           8.820377             6.960867
| 20>   H                      -10.798494           8.592864             7.847722
| 21>   H                      -11.674265           10.557767            6.506419
| 22>   H                      -10.396751           10.733746            7.606618
| 23>   H                      -9.982886            10.637134            5.916869
| 24> *
| 25>
| 26>                          ****END OF INPUT****

CARTESIAN COORDINATES (ANGSTROEM)
---------------------------------
  C    -10.665111   10.187866    6.672238
  O    -10.550337    8.820377    6.960867
  H    -10.798494    8.592864    7.847722
  H    -11.674265   10.557767    6.506419
  H    -10.396751   10.733746    7.606618
  H     -9.982886   10.637134    5.916869

 Total Charge           Charge          ....    0
 Multiplicity           Mult            ....    1
 Number of Electrons    NEL             ....   18
 Basis Dimension        Dim             ....   86

ORBITAL ENERGIES
----------------

  NO   OCC          E(Eh)            E(eV)
   0   2.0000     -19.229401      -523.2586
   1   2.0000     -10.317337      -280.7490
   2   2.0000      -1.139531       -31.0082
   3   2.0000      -0.798181       -21.7196
   4   2.0000      -0.620583       -16.8869
   5   2.0000      -0.538724       -14.6594
   6   2.0000      -0.530590       -14.4381
   7   2.0000      -0.421379       -11.4663
   8   2.0000      -0.372239       -10.1291
   9   0.0000       0.114137         3.1058
  10   0.0000       0.148909         4.0520
  11   0.0000       0.203453         5.5362
  12   0.0000       0.210157         5.7187
  13   0.0000       0.226463         6.1624

MULLIKEN ATOMIC CHARGES
-----------------------
   0 C :   -0.162716
   1 O :   -0.482166
   2 H :    0.322797
   3 H :    0.100925
   4 H :    0.096350
   5 H :    0.124809
Sum of atomic charges:   -0.0000000

LOEWDIN ATOMIC CHARGES
----------------------
   0 C :   -0.400558
   1 O :   -0.065797
   2 H :    0.164127
   3 H :    0.091144
   4 H :    0.099052
   5 H :    0.112032

  Mayer bond orders larger than 0.1
B(  0-C ,  1-O ) :   0.9980 B(  0-C ,  3-H ) :   0.9689 B(  0-C ,  4-H ) :   0.9929
B(  0-C ,  5-H ) :   0.9678 B(  1-O ,  2-H ) :   0.8921

Dispersion correction           -0.000256809
FINAL SINGLE POINT ENERGY      -115.728102124581

DIPOLE MOMENT
-------------
                                X             Y             Z
Electronic contribution:      0.17378      -1.95181       0.05992
Nuclear contribution   :     -0.37155       2.36376       0.43562
                        -----------------------------------------
Total Dipole Moment    :     -0.19776       0.41195       0.49554
                        -----------------------------------------
Magnitude (a.u.)       :      0.67407
Magnitude (Debye)      :      1.71335

Rotational constants in cm-1:     4.499402     0.822700     0.794068
Rotational constants in MHz : 134888.670689 24663.917222 23805.558594

                             ****ORCA TERMINATED NORMALLY****
TOTAL RUN TIME: 0 days 0 hours 0 minutes 40 seconds 42 msec
