                         Program Version 4.1.2  - RELEASE  -
|  1> #Run DFT-D3 single point of the dimer
|  2> ! wB97X-D3 def2-TZVP TIGHTSCF CHELPG PMODEL PAL8
|  3>
|  4> %base "8-119_DFT_AB"
|  5>
|  6> %scf
|  7> MaxIter 1000
|  8> end
|  9>
| 10> * xyz 0 1
| 11>   C                      -3.085407            1.212228             -6.857028
| 12>   O                      -4.014511            0.679533             -7.754818
| 13>   H                      -3.617017            -0.153410            -8.081807
| 14>   H                      -3.475457            2.195119             -6.416982
| 15>   H                      -2.699295            0.539996             -6.108891
| 16>   H                      -2.225274            1.472159             -7.430988
| 17>   C                      -8.405446            -1.164534            -6.472266
| 18>   O                      -7.820639            -0.013318            -6.108286
| 19>   H                      -8.464241            0.721530             -6.265610
| 20>   H                      -8.228587            -1.262033            -7.582282
| 21>   H                      -7.922289            -2.024106            -5.819108
| 22>   H                      -9.511411            -1.107295            -6.351230
| 23> *
| 24>
| 25> #Run DFT-D3 single point of the molecule with dimer basis set
| 26> $new_job
| 27> %base "8-119_DFT_A"
| 28> ! wB97X-D3 def2-TZVP TIGHTSCF CHELPG PMODEL
| 29>
| 30> %scf
| 31> MaxIter 1000
| 32> end
| 33>
| 34> * xyz 0 1
| 35>   C                      -3.085407            1.212228             -6.857028
| 36>   O                      -4.014511            0.679533             -7.754818
| 37>   H                      -3.617017            -0.153410            -8.081807
| 38>   H                      -3.475457            2.195119             -6.416982
| 39>   H                      -2.699295            0.539996             -6.108891
| 40>   H                      -2.225274            1.472159             -7.430988
| 41>   C                    : -8.405446            -1.164534            -6.472266
| 42>   O                    : -7.820639            -0.013318            -6.108286
| 43>   H                    : -8.464241            0.721530             -6.265610
| 44>   H                    : -8.228587            -1.262033            -7.582282
| 45>   H                    : -7.922289            -2.024106            -5.819108
| 46>   H                    : -9.511411            -1.107295            -6.351230
| 47> *
| 48>
| 49> #Run DFT-D3 single point of the particle with dimer basis set
| 50> $new_job
| 51> %base "8-119_DFT_B"
| 52> ! wB97X-D3 def2-TZVP TIGHTSCF CHELPG PMODEL
| 53>
| 54> %scf
| 55> MaxIter 1000
| 56> end
| 57>
| 58> * xyz 0 1
| 59>   C                    : -3.085407            1.212228             -6.857028
| 60>   O                    : -4.014511            0.679533             -7.754818
| 61>   H                    : -3.617017            -0.153410            -8.081807
| 62>   H                    : -3.475457            2.195119             -6.416982
| 63>   H                    : -2.699295            0.539996             -6.108891
| 64>   H                    : -2.225274            1.472159             -7.430988
| 65>   C                      -8.405446            -1.164534            -6.472266
| 66>   O                      -7.820639            -0.013318            -6.108286
| 67>   H                      -8.464241            0.721530             -6.265610
| 68>   H                      -8.228587            -1.262033            -7.582282
| 69>   H                      -7.922289            -2.024106            -5.819108
| 70>   H                      -9.511411            -1.107295            -6.351230
| 71> *
| 72>
| 73>                          ****END OF INPUT****
 Total Charge           Charge          ....    0
 Multiplicity           Mult            ....    1
 Number of Electrons    NEL             ....   36
Dispersion correction           -0.000696099
FINAL SINGLE POINT ENERGY      -231.452836060518
Dispersion correction           -0.000222222
FINAL SINGLE POINT ENERGY      -115.730750366921

CARTESIAN COORDINATES (ANGSTROEM)
---------------------------------
  C     -3.085407    1.212228   -6.857028
  O     -4.014511    0.679533   -7.754818
  H     -3.617017   -0.153410   -8.081807
  H     -3.475457    2.195119   -6.416982
  H     -2.699295    0.539996   -6.108891
  H     -2.225274    1.472159   -7.430988
  C     -8.405446   -1.164534   -6.472266
  O     -7.820639   -0.013318   -6.108286
  H     -8.464241    0.721530   -6.265610
  H     -8.228587   -1.262033   -7.582282
  H     -7.922289   -2.024106   -5.819108
  H     -9.511411   -1.107295   -6.351230

 Multiplicity           Mult            ....    1
 Number of Electrons    NEL             ....   18
 Basis Dimension        Dim             ....  172

ORBITAL ENERGIES
----------------

  NO   OCC          E(Eh)            E(eV)
   0   2.0000     -19.230388      -523.2855
   1   2.0000     -10.321119      -280.8519
   2   2.0000      -1.157150       -31.4877
   3   2.0000      -0.777071       -21.1452
   4   2.0000      -0.622418       -16.9369
   5   2.0000      -0.547399       -14.8955
   6   2.0000      -0.526350       -14.3227
   7   2.0000      -0.425499       -11.5784
   8   2.0000      -0.362526        -9.8648
   9   0.0000       0.092789         2.5249
  10   0.0000       0.107417         2.9230
  11   0.0000       0.153968         4.1897
  12   0.0000       0.171806         4.6751
  13   0.0000       0.189381         5.1533

MULLIKEN ATOMIC CHARGES
-----------------------
   0 C :   -0.000570
   1 O :   -0.000090
   2 H :   -0.000006
   3 H :    0.000037
   4 H :    0.000045
   5 H :   -0.000006
   6 C :   -0.157026
   7 O :   -0.452477
   8 H :    0.319269
   9 H :    0.088595
  10 H :    0.107675
  11 H :    0.094553
Sum of atomic charges:    0.0000000

LOEWDIN ATOMIC CHARGES
----------------------
   0 C :   -0.000221
   1 O :   -0.000241
   2 H :   -0.000032
   3 H :   -0.000012
   4 H :   -0.000002
   5 H :   -0.000009
   6 C :   -0.459486
   7 O :   -0.041586
   8 H :    0.192320
   9 H :    0.095775
  10 H :    0.120987
  11 H :    0.092508

  Mayer bond orders larger than 0.1
B(  6-C ,  7-O ) :   1.0063 B(  6-C ,  9-H ) :   0.9775 B(  6-C , 10-H ) :   0.9657
B(  6-C , 11-H ) :   0.9824 B(  7-O ,  8-H ) :   0.8902

Dispersion correction           -0.000214585
FINAL SINGLE POINT ENERGY      -115.723010367610

DIPOLE MOMENT
-------------
                                X             Y             Z
Electronic contribution:      0.88071       1.45021       0.58311
Nuclear contribution   :     -1.50518      -1.34023      -0.78519
                        -----------------------------------------
Total Dipole Moment    :     -0.62448       0.10999      -0.20208
                        -----------------------------------------
Magnitude (a.u.)       :      0.66551
Magnitude (Debye)      :      1.69159

Rotational constants in cm-1:     3.853910     0.912850     0.865820
Rotational constants in MHz : 115537.305366 27366.544146 25956.630041

                             ****ORCA TERMINATED NORMALLY****
TOTAL RUN TIME: 0 days 0 hours 0 minutes 43 seconds 547 msec
