                         Program Version 4.1.2  - RELEASE  -
|  1> #Run DFT-D3 single point of the dimer
|  2> ! wB97X-D3 def2-TZVP TIGHTSCF CHELPG PMODEL PAL8
|  3>
|  4> %base "21-41_DFT_AB"
|  5>
|  6> %scf
|  7> MaxIter 1000
|  8> end
|  9>
| 10> * xyz 0 1
| 11>   C                      -4.571858            -8.509217            7.080362
| 12>   O                      -3.583468            -7.449682            7.394431
| 13>   H                      -3.572475            -6.902586            6.640899
| 14>   H                      -4.180799            -9.176255            6.298429
| 15>   H                      -4.673121            -9.129860            7.950470
| 16>   H                      -5.476760            -8.065264            6.898514
| 17>   C                      -9.148478            -7.699592            3.750944
| 18>   O                      -8.768307            -7.188692            2.457517
| 19>   H                      -9.539388            -7.228703            1.924182
| 20>   H                      -9.498770            -8.728555            3.697572
| 21>   H                      -8.469807            -7.543474            4.609705
| 22>   H                      -10.003615           -7.123015            4.042330
| 23> *
| 24>
| 25> #Run DFT-D3 single point of the molecule with dimer basis set
| 26> $new_job
| 27> %base "21-41_DFT_A"
| 28> ! wB97X-D3 def2-TZVP TIGHTSCF CHELPG PMODEL
| 29>
| 30> %scf
| 31> MaxIter 1000
| 32> end
| 33>
| 34> * xyz 0 1
| 35>   C                      -4.571858            -8.509217            7.080362
| 36>   O                      -3.583468            -7.449682            7.394431
| 37>   H                      -3.572475            -6.902586            6.640899
| 38>   H                      -4.180799            -9.176255            6.298429
| 39>   H                      -4.673121            -9.129860            7.950470
| 40>   H                      -5.476760            -8.065264            6.898514
| 41>   C                    : -9.148478            -7.699592            3.750944
| 42>   O                    : -8.768307            -7.188692            2.457517
| 43>   H                    : -9.539388            -7.228703            1.924182
| 44>   H                    : -9.498770            -8.728555            3.697572
| 45>   H                    : -8.469807            -7.543474            4.609705
| 46>   H                    : -10.003615           -7.123015            4.042330
| 47> *
| 48>
| 49> #Run DFT-D3 single point of the particle with dimer basis set
| 50> $new_job
| 51> %base "21-41_DFT_B"
| 52> ! wB97X-D3 def2-TZVP TIGHTSCF CHELPG PMODEL
| 53>
| 54> %scf
| 55> MaxIter 1000
| 56> end
| 57>
| 58> * xyz 0 1
| 59>   C                    : -4.571858            -8.509217            7.080362
| 60>   O                    : -3.583468            -7.449682            7.394431
| 61>   H                    : -3.572475            -6.902586            6.640899
| 62>   H                    : -4.180799            -9.176255            6.298429
| 63>   H                    : -4.673121            -9.129860            7.950470
| 64>   H                    : -5.476760            -8.065264            6.898514
| 65>   C                      -9.148478            -7.699592            3.750944
| 66>   O                      -8.768307            -7.188692            2.457517
| 67>   H                      -9.539388            -7.228703            1.924182
| 68>   H                      -9.498770            -8.728555            3.697572
| 69>   H                      -8.469807            -7.543474            4.609705
| 70>   H                      -10.003615           -7.123015            4.042330
| 71> *
| 72>
| 73>                          ****END OF INPUT****
 Total Charge           Charge          ....    0
 Multiplicity           Mult            ....    1
 Number of Electrons    NEL             ....   36
Dispersion correction           -0.000622167
FINAL SINGLE POINT ENERGY      -231.458503922569
Dispersion correction           -0.000238914
FINAL SINGLE POINT ENERGY      -115.729580328960

CARTESIAN COORDINATES (ANGSTROEM)
---------------------------------
  C     -4.571858   -8.509217    7.080362
  O     -3.583468   -7.449682    7.394431
  H     -3.572475   -6.902586    6.640899
  H     -4.180799   -9.176255    6.298429
  H     -4.673121   -9.129860    7.950470
  H     -5.476760   -8.065264    6.898514
  C     -9.148478   -7.699592    3.750944
  O     -8.768307   -7.188692    2.457517
  H     -9.539388   -7.228703    1.924182
  H     -9.498770   -8.728555    3.697572
  H     -8.469807   -7.543474    4.609705
  H    -10.003615   -7.123015    4.042330

 Multiplicity           Mult            ....    1
 Number of Electrons    NEL             ....   18
 Basis Dimension        Dim             ....  172

ORBITAL ENERGIES
----------------

  NO   OCC          E(Eh)            E(eV)
   0   2.0000     -19.227992      -523.2203
   1   2.0000     -10.314175      -280.6630
   2   2.0000      -1.133539       -30.8452
   3   2.0000      -0.799853       -21.7651
   4   2.0000      -0.607982       -16.5440
   5   2.0000      -0.542673       -14.7669
   6   2.0000      -0.528432       -14.3794
   7   2.0000      -0.433638       -11.7999
   8   2.0000      -0.373426       -10.1614
   9   0.0000       0.086993         2.3672
  10   0.0000       0.116787         3.1779
  11   0.0000       0.144817         3.9407
  12   0.0000       0.166903         4.5417
  13   0.0000       0.184349         5.0164

MULLIKEN ATOMIC CHARGES
-----------------------
   0 C :    0.000005
   1 O :    0.000000
   2 H :   -0.000001
   3 H :   -0.000002
   4 H :   -0.000001
   5 H :   -0.000078
   6 C :   -0.182830
   7 O :   -0.473723
   8 H :    0.312811
   9 H :    0.107710
  10 H :    0.128285
  11 H :    0.107823
Sum of atomic charges:    0.0000000

LOEWDIN ATOMIC CHARGES
----------------------
   0 C :   -0.000034
   1 O :   -0.000001
   2 H :   -0.000000
   3 H :   -0.000001
   4 H :   -0.000000
   5 H :   -0.000102
   6 C :   -0.367042
   7 O :   -0.088246
   8 H :    0.154701
   9 H :    0.094779
  10 H :    0.112816
  11 H :    0.093130

  Mayer bond orders larger than 0.1
B(  6-C ,  7-O ) :   0.9883 B(  6-C ,  9-H ) :   0.9736 B(  6-C , 10-H ) :   0.9686
B(  6-C , 11-H ) :   0.9885 B(  7-O ,  8-H ) :   0.9035

Dispersion correction           -0.000236910
FINAL SINGLE POINT ENERGY      -115.728659593209

DIPOLE MOMENT
-------------
                                X             Y             Z
Electronic contribution:      0.78554       0.59637      -1.59899
Nuclear contribution   :     -1.46171      -0.81040       1.81568
                        -----------------------------------------
Total Dipole Moment    :     -0.67618      -0.21403       0.21669
                        -----------------------------------------
Magnitude (a.u.)       :      0.74160
Magnitude (Debye)      :      1.88501

Rotational constants in cm-1:     4.459614     0.804303     0.775306
Rotational constants in MHz : 133695.861506 24112.411915 23243.103366

                             ****ORCA TERMINATED NORMALLY****
TOTAL RUN TIME: 0 days 0 hours 0 minutes 55 seconds 353 msec
