                         Program Version 4.1.2  - RELEASE  -
|  1> #Run DFT-D3 single point of the dimer
|  2> ! wB97X-D3 def2-TZVP TIGHTSCF CHELPG PMODEL PAL8
|  3>
|  4> %base "14-13_DFT_AB"
|  5>
|  6> %scf
|  7> MaxIter 1000
|  8> end
|  9>
| 10> * xyz 0 1
| 11>   C                      -9.672709            4.006744             2.552932
| 12>   O                      -10.300829           4.988320             3.368327
| 13>   H                      -10.582800           4.429678             4.110281
| 14>   H                      -10.532027           3.583830             1.937451
| 15>   H                      -9.091793            4.425824             1.762786
| 16>   H                      -9.184682            3.240365             3.147805
| 17>   C                      -10.153095           2.654705             -1.361434
| 18>   O                      -9.305407            2.119193             -2.346991
| 19>   H                      -9.041517            1.209079             -2.149409
| 20>   H                      -9.846451            2.527660             -0.345899
| 21>   H                      -10.374274           3.691955             -1.601794
| 22>   H                      -11.080361           2.100532             -1.473576
| 23> *
| 24>
| 25> #Run DFT-D3 single point of the molecule with dimer basis set
| 26> $new_job
| 27> %base "14-13_DFT_A"
| 28> ! wB97X-D3 def2-TZVP TIGHTSCF CHELPG PMODEL
| 29>
| 30> %scf
| 31> MaxIter 1000
| 32> end
| 33>
| 34> * xyz 0 1
| 35>   C                      -9.672709            4.006744             2.552932
| 36>   O                      -10.300829           4.988320             3.368327
| 37>   H                      -10.582800           4.429678             4.110281
| 38>   H                      -10.532027           3.583830             1.937451
| 39>   H                      -9.091793            4.425824             1.762786
| 40>   H                      -9.184682            3.240365             3.147805
| 41>   C                    : -10.153095           2.654705             -1.361434
| 42>   O                    : -9.305407            2.119193             -2.346991
| 43>   H                    : -9.041517            1.209079             -2.149409
| 44>   H                    : -9.846451            2.527660             -0.345899
| 45>   H                    : -10.374274           3.691955             -1.601794
| 46>   H                    : -11.080361           2.100532             -1.473576
| 47> *
| 48>
| 49> #Run DFT-D3 single point of the particle with dimer basis set
| 50> $new_job
| 51> %base "14-13_DFT_B"
| 52> ! wB97X-D3 def2-TZVP TIGHTSCF CHELPG PMODEL
| 53>
| 54> %scf
| 55> MaxIter 1000
| 56> end
| 57>
| 58> * xyz 0 1
| 59>   C                    : -9.672709            4.006744             2.552932
| 60>   O                    : -10.300829           4.988320             3.368327
| 61>   H                    : -10.582800           4.429678             4.110281
| 62>   H                    : -10.532027           3.583830             1.937451
| 63>   H                    : -9.091793            4.425824             1.762786
| 64>   H                    : -9.184682            3.240365             3.147805
| 65>   C                      -10.153095           2.654705             -1.361434
| 66>   O                      -9.305407            2.119193             -2.346991
| 67>   H                      -9.041517            1.209079             -2.149409
| 68>   H                      -9.846451            2.527660             -0.345899
| 69>   H                      -10.374274           3.691955             -1.601794
| 70>   H                      -11.080361           2.100532             -1.473576
| 71> *
| 72>
| 73>                          ****END OF INPUT****
 Total Charge           Charge          ....    0
 Multiplicity           Mult            ....    1
 Number of Electrons    NEL             ....   36
Dispersion correction           -0.001211207
FINAL SINGLE POINT ENERGY      -231.461005849242
Dispersion correction           -0.000215645
FINAL SINGLE POINT ENERGY      -115.727322078401

CARTESIAN COORDINATES (ANGSTROEM)
---------------------------------
  C     -9.672709    4.006744    2.552932
  O    -10.300829    4.988320    3.368327
  H    -10.582800    4.429678    4.110281
  H    -10.532027    3.583830    1.937451
  H     -9.091793    4.425824    1.762786
  H     -9.184682    3.240365    3.147805
  C    -10.153095    2.654705   -1.361434
  O     -9.305407    2.119193   -2.346991
  H     -9.041517    1.209079   -2.149409
  H     -9.846451    2.527660   -0.345899
  H    -10.374274    3.691955   -1.601794
  H    -11.080361    2.100532   -1.473576

 Multiplicity           Mult            ....    1
 Number of Electrons    NEL             ....   18
 Basis Dimension        Dim             ....  172

ORBITAL ENERGIES
----------------

  NO   OCC          E(Eh)            E(eV)
   0   2.0000     -19.226331      -523.1751
   1   2.0000     -10.307692      -280.4866
   2   2.0000      -1.133234       -30.8369
   3   2.0000      -0.798393       -21.7254
   4   2.0000      -0.613867       -16.7042
   5   2.0000      -0.540663       -14.7122
   6   2.0000      -0.531262       -14.4564
   7   2.0000      -0.431412       -11.7393
   8   2.0000      -0.367712       -10.0060
   9   0.0000       0.084881         2.3097
  10   0.0000       0.116530         3.1710
  11   0.0000       0.148197         4.0326
  12   0.0000       0.176379         4.7995
  13   0.0000       0.187780         5.1097

MULLIKEN ATOMIC CHARGES
-----------------------
   0 C :    0.000378
   1 O :   -0.000023
   2 H :   -0.000012
   3 H :   -0.001121
   4 H :   -0.000218
   5 H :   -0.000193
   6 C :   -0.151336
   7 O :   -0.486942
   8 H :    0.316358
   9 H :    0.103174
  10 H :    0.119816
  11 H :    0.100119
Sum of atomic charges:   -0.0000000

LOEWDIN ATOMIC CHARGES
----------------------
   0 C :   -0.003135
   1 O :   -0.000014
   2 H :   -0.000006
   3 H :   -0.002241
   4 H :   -0.000782
   5 H :   -0.000063
   6 C :   -0.382590
   7 O :   -0.078510
   8 H :    0.171609
   9 H :    0.090178
  10 H :    0.109916
  11 H :    0.095638

  Mayer bond orders larger than 0.1
B(  6-C ,  7-O ) :   0.9889 B(  6-C ,  9-H ) :   0.9721 B(  6-C , 10-H ) :   0.9706
B(  6-C , 11-H ) :   0.9878 B(  7-O ,  8-H ) :   0.8942

Dispersion correction           -0.000232588
FINAL SINGLE POINT ENERGY      -115.733207570369

DIPOLE MOMENT
-------------
                                X             Y             Z
Electronic contribution:      1.18148      -0.47859      -1.21236
Nuclear contribution   :     -1.36098       0.10637       1.73701
                        -----------------------------------------
Total Dipole Moment    :     -0.17950      -0.37221       0.52465
                        -----------------------------------------
Magnitude (a.u.)       :      0.66785
Magnitude (Debye)      :      1.69753

Rotational constants in cm-1:     4.405134     0.842215     0.807334
Rotational constants in MHz : 132062.581724 25248.955844 24203.272023

                             ****ORCA TERMINATED NORMALLY****
TOTAL RUN TIME: 0 days 0 hours 1 minutes 4 seconds 494 msec
