                         Program Version 4.1.2  - RELEASE  -
|  1> #Run DFT-D3 single point of the dimer
|  2> ! wB97X-D3 def2-TZVP TIGHTSCF CHELPG PMODEL PAL8
|  3>
|  4> %base "16-69_DFT_AB"
|  5>
|  6> %scf
|  7> MaxIter 1000
|  8> end
|  9>
| 10> * xyz 0 1
| 11>   C                      1.882657             -5.473259            -4.311445
| 12>   O                      1.200089             -6.616802            -4.829966
| 13>   H                      0.588911             -6.281126            -5.540718
| 14>   H                      2.877696             -5.712606            -3.843402
| 15>   H                      2.170245             -4.752331            -5.142988
| 16>   H                      1.250145             -4.869591            -3.657311
| 17>   C                      -1.471844            -7.273723            0.057177
| 18>   O                      -2.592648            -7.401229            0.927050
| 19>   H                      -2.462836            -8.147191            1.506804
| 20>   H                      -0.583023            -6.910695            0.610701
| 21>   H                      -1.283247            -8.174641            -0.447536
| 22>   H                      -1.621950            -6.560480            -0.744089
| 23> *
| 24>
| 25> #Run DFT-D3 single point of the molecule with dimer basis set
| 26> $new_job
| 27> %base "16-69_DFT_A"
| 28> ! wB97X-D3 def2-TZVP TIGHTSCF CHELPG PMODEL
| 29>
| 30> %scf
| 31> MaxIter 1000
| 32> end
| 33>
| 34> * xyz 0 1
| 35>   C                      1.882657             -5.473259            -4.311445
| 36>   O                      1.200089             -6.616802            -4.829966
| 37>   H                      0.588911             -6.281126            -5.540718
| 38>   H                      2.877696             -5.712606            -3.843402
| 39>   H                      2.170245             -4.752331            -5.142988
| 40>   H                      1.250145             -4.869591            -3.657311
| 41>   C                    : -1.471844            -7.273723            0.057177
| 42>   O                    : -2.592648            -7.401229            0.927050
| 43>   H                    : -2.462836            -8.147191            1.506804
| 44>   H                    : -0.583023            -6.910695            0.610701
| 45>   H                    : -1.283247            -8.174641            -0.447536
| 46>   H                    : -1.621950            -6.560480            -0.744089
| 47> *
| 48>
| 49> #Run DFT-D3 single point of the particle with dimer basis set
| 50> $new_job
| 51> %base "16-69_DFT_B"
| 52> ! wB97X-D3 def2-TZVP TIGHTSCF CHELPG PMODEL
| 53>
| 54> %scf
| 55> MaxIter 1000
| 56> end
| 57>
| 58> * xyz 0 1
| 59>   C                    : 1.882657             -5.473259            -4.311445
| 60>   O                    : 1.200089             -6.616802            -4.829966
| 61>   H                    : 0.588911             -6.281126            -5.540718
| 62>   H                    : 2.877696             -5.712606            -3.843402
| 63>   H                    : 2.170245             -4.752331            -5.142988
| 64>   H                    : 1.250145             -4.869591            -3.657311
| 65>   C                      -1.471844            -7.273723            0.057177
| 66>   O                      -2.592648            -7.401229            0.927050
| 67>   H                      -2.462836            -8.147191            1.506804
| 68>   H                      -0.583023            -6.910695            0.610701
| 69>   H                      -1.283247            -8.174641            -0.447536
| 70>   H                      -1.621950            -6.560480            -0.744089
| 71> *
| 72>
| 73>                          ****END OF INPUT****
 Total Charge           Charge          ....    0
 Multiplicity           Mult            ....    1
 Number of Electrons    NEL             ....   36
Dispersion correction           -0.000636688
FINAL SINGLE POINT ENERGY      -231.465315136658
Dispersion correction           -0.000260539
FINAL SINGLE POINT ENERGY      -115.731149920503

CARTESIAN COORDINATES (ANGSTROEM)
---------------------------------
  C      1.882657   -5.473259   -4.311445
  O      1.200089   -6.616802   -4.829966
  H      0.588911   -6.281126   -5.540718
  H      2.877696   -5.712606   -3.843402
  H      2.170245   -4.752331   -5.142988
  H      1.250145   -4.869591   -3.657311
  C     -1.471844   -7.273723    0.057177
  O     -2.592648   -7.401229    0.927050
  H     -2.462836   -8.147191    1.506804
  H     -0.583023   -6.910695    0.610701
  H     -1.283247   -8.174641   -0.447536
  H     -1.621950   -6.560480   -0.744089

 Multiplicity           Mult            ....    1
 Number of Electrons    NEL             ....   18
 Basis Dimension        Dim             ....  172

ORBITAL ENERGIES
----------------

  NO   OCC          E(Eh)            E(eV)
   0   2.0000     -19.227935      -523.2187
   1   2.0000     -10.309360      -280.5320
   2   2.0000      -1.132197       -30.8087
   3   2.0000      -0.801270       -21.8037
   4   2.0000      -0.608387       -16.5550
   5   2.0000      -0.546296       -14.8655
   6   2.0000      -0.529042       -14.3960
   7   2.0000      -0.428448       -11.6587
   8   2.0000      -0.375119       -10.2075
   9   0.0000       0.083379         2.2688
  10   0.0000       0.118430         3.2227
  11   0.0000       0.148824         4.0497
  12   0.0000       0.163011         4.4358
  13   0.0000       0.192280         5.2322

MULLIKEN ATOMIC CHARGES
-----------------------
   0 C :    0.000016
   1 O :   -0.000002
   2 H :   -0.000001
   3 H :   -0.000001
   4 H :   -0.000000
   5 H :   -0.000029
   6 C :   -0.161243
   7 O :   -0.481054
   8 H :    0.314832
   9 H :    0.100844
  10 H :    0.107885
  11 H :    0.118753
Sum of atomic charges:    0.0000000

LOEWDIN ATOMIC CHARGES
----------------------
   0 C :   -0.000009
   1 O :   -0.000001
   2 H :   -0.000001
   3 H :   -0.000000
   4 H :   -0.000000
   5 H :   -0.000013
   6 C :   -0.372763
   7 O :   -0.083257
   8 H :    0.163624
   9 H :    0.098978
  10 H :    0.086611
  11 H :    0.106831

  Mayer bond orders larger than 0.1
B(  6-C ,  7-O ) :   0.9975 B(  6-C ,  9-H ) :   0.9788 B(  6-C , 10-H ) :   0.9795
B(  6-C , 11-H ) :   0.9723 B(  7-O ,  8-H ) :   0.8993

Dispersion correction           -0.000244004
FINAL SINGLE POINT ENERGY      -115.733753829495

DIPOLE MOMENT
-------------
                                X             Y             Z
Electronic contribution:     -1.50202      -0.09861       1.03626
Nuclear contribution   :      2.03964      -0.33424      -1.05206
                        -----------------------------------------
Total Dipole Moment    :      0.53762      -0.43285      -0.01580
                        -----------------------------------------
Magnitude (a.u.)       :      0.69039
Magnitude (Debye)      :      1.75484

Rotational constants in cm-1:     4.472556     0.813508     0.794088
Rotational constants in MHz : 134083.859914 24388.358794 23806.152165

                             ****ORCA TERMINATED NORMALLY****
TOTAL RUN TIME: 0 days 0 hours 0 minutes 57 seconds 643 msec
