                         Program Version 4.1.2  - RELEASE  -
|  1> #Run DFT-D3 single point of the dimer
|  2> ! wB97X-D3 def2-TZVP TIGHTSCF CHELPG PMODEL PAL8
|  3>
|  4> %base "3-5_DFT_AB"
|  5>
|  6> %scf
|  7> MaxIter 1000
|  8> end
|  9>
| 10> * xyz 0 1
| 11>   C                      -7.942409            -2.379003            -9.459658
| 12>   O                      -7.867683            -3.795945            -9.391160
| 13>   H                      -8.719740            -4.186714            -9.465420
| 14>   H                      -7.748901            -1.924920            -8.467208
| 15>   H                      -7.233413            -1.909138            -10.170256
| 16>   H                      -8.967834            -2.145940            -9.738359
| 17>   C                      -7.949055            -9.171305            -6.566835
| 18>   O                      -8.982075            -8.273082            -6.852369
| 19>   H                      -8.439640            -7.513511            -7.058999
| 20>   H                      -7.037029            -9.018700            -7.166905
| 21>   H                      -7.643131            -8.978097            -5.558532
| 22>   H                      -8.170766            -10.203733           -6.710026
| 23> *
| 24>
| 25> #Run DFT-D3 single point of the molecule with dimer basis set
| 26> $new_job
| 27> %base "3-5_DFT_A"
| 28> ! wB97X-D3 def2-TZVP TIGHTSCF CHELPG PMODEL
| 29>
| 30> %scf
| 31> MaxIter 1000
| 32> end
| 33>
| 34> * xyz 0 1
| 35>   C                      -7.942409            -2.379003            -9.459658
| 36>   O                      -7.867683            -3.795945            -9.391160
| 37>   H                      -8.719740            -4.186714            -9.465420
| 38>   H                      -7.748901            -1.924920            -8.467208
| 39>   H                      -7.233413            -1.909138            -10.170256
| 40>   H                      -8.967834            -2.145940            -9.738359
| 41>   C                    : -7.949055            -9.171305            -6.566835
| 42>   O                    : -8.982075            -8.273082            -6.852369
| 43>   H                    : -8.439640            -7.513511            -7.058999
| 44>   H                    : -7.037029            -9.018700            -7.166905
| 45>   H                    : -7.643131            -8.978097            -5.558532
| 46>   H                    : -8.170766            -10.203733           -6.710026
| 47> *
| 48>
| 49> #Run DFT-D3 single point of the particle with dimer basis set
| 50> $new_job
| 51> %base "3-5_DFT_B"
| 52> ! wB97X-D3 def2-TZVP TIGHTSCF CHELPG PMODEL
| 53>
| 54> %scf
| 55> MaxIter 1000
| 56> end
| 57>
| 58> * xyz 0 1
| 59>   C                    : -7.942409            -2.379003            -9.459658
| 60>   O                    : -7.867683            -3.795945            -9.391160
| 61>   H                    : -8.719740            -4.186714            -9.465420
| 62>   H                    : -7.748901            -1.924920            -8.467208
| 63>   H                    : -7.233413            -1.909138            -10.170256
| 64>   H                    : -8.967834            -2.145940            -9.738359
| 65>   C                      -7.949055            -9.171305            -6.566835
| 66>   O                      -8.982075            -8.273082            -6.852369
| 67>   H                      -8.439640            -7.513511            -7.058999
| 68>   H                      -7.037029            -9.018700            -7.166905
| 69>   H                      -7.643131            -8.978097            -5.558532
| 70>   H                      -8.170766            -10.203733           -6.710026
| 71> *
| 72>
| 73>                          ****END OF INPUT****
 Total Charge           Charge          ....    0
 Multiplicity           Mult            ....    1
 Number of Electrons    NEL             ....   36
Dispersion correction           -0.000565833
FINAL SINGLE POINT ENERGY      -231.462820892291
Dispersion correction           -0.000250608
FINAL SINGLE POINT ENERGY      -115.733048664246

CARTESIAN COORDINATES (ANGSTROEM)
---------------------------------
  C     -7.942409   -2.379003   -9.459658
  O     -7.867683   -3.795945   -9.391160
  H     -8.719740   -4.186714   -9.465420
  H     -7.748901   -1.924920   -8.467208
  H     -7.233413   -1.909138  -10.170256
  H     -8.967834   -2.145940   -9.738359
  C     -7.949055   -9.171305   -6.566835
  O     -8.982075   -8.273082   -6.852369
  H     -8.439640   -7.513511   -7.058999
  H     -7.037029   -9.018700   -7.166905
  H     -7.643131   -8.978097   -5.558532
  H     -8.170766  -10.203733   -6.710026

 Multiplicity           Mult            ....    1
 Number of Electrons    NEL             ....   18
 Basis Dimension        Dim             ....  172

ORBITAL ENERGIES
----------------

  NO   OCC          E(Eh)            E(eV)
   0   2.0000     -19.232631      -523.3465
   1   2.0000     -10.307468      -280.4805
   2   2.0000      -1.149909       -31.2906
   3   2.0000      -0.795216       -21.6389
   4   2.0000      -0.614650       -16.7255
   5   2.0000      -0.552663       -15.0387
   6   2.0000      -0.527303       -14.3486
   7   2.0000      -0.442696       -12.0464
   8   2.0000      -0.372869       -10.1463
   9   0.0000       0.083270         2.2659
  10   0.0000       0.110828         3.0158
  11   0.0000       0.152079         4.1383
  12   0.0000       0.170743         4.6461
  13   0.0000       0.195573         5.3218

MULLIKEN ATOMIC CHARGES
-----------------------
   0 C :    0.000002
   1 O :    0.000002
   2 H :   -0.000039
   3 H :   -0.000000
   4 H :    0.000000
   5 H :    0.000000
   6 C :   -0.183744
   7 O :   -0.455820
   8 H :    0.317351
   9 H :    0.098932
  10 H :    0.103200
  11 H :    0.120115
Sum of atomic charges:    0.0000000

LOEWDIN ATOMIC CHARGES
----------------------
   0 C :   -0.000001
   1 O :   -0.000007
   2 H :   -0.000039
   3 H :   -0.000000
   4 H :   -0.000000
   5 H :   -0.000000
   6 C :   -0.402097
   7 O :   -0.061909
   8 H :    0.175941
   9 H :    0.096640
  10 H :    0.091816
  11 H :    0.099656

  Mayer bond orders larger than 0.1
B(  6-C ,  7-O ) :   1.0012 B(  6-C ,  9-H ) :   0.9820 B(  6-C , 10-H ) :   0.9834
B(  6-C , 11-H ) :   0.9720 B(  7-O ,  8-H ) :   0.9027

Dispersion correction           -0.000204045
FINAL SINGLE POINT ENERGY      -115.728843219716

DIPOLE MOMENT
-------------
                                X             Y             Z
Electronic contribution:     -1.61355       1.00389      -0.37908
Nuclear contribution   :      2.34246      -0.88039       0.34675
                        -----------------------------------------
Total Dipole Moment    :      0.72891       0.12351      -0.03233
                        -----------------------------------------
Magnitude (a.u.)       :      0.74001
Magnitude (Debye)      :      1.88095

Rotational constants in cm-1:     4.390559     0.856865     0.823629
Rotational constants in MHz : 131625.655113 25688.176299 24691.790326

                             ****ORCA TERMINATED NORMALLY****
TOTAL RUN TIME: 0 days 0 hours 6 minutes 22 seconds 221 msec
