                         Program Version 4.1.2  - RELEASE  -
|  1> #Run DFT-D3 single point of the dimer
|  2> ! wB97X-D3 def2-TZVP TIGHTSCF CHELPG PMODEL PAL8
|  3>
|  4> %base "14-177_DFT_AB"
|  5>
|  6> %scf
|  7> MaxIter 1000
|  8> end
|  9>
| 10> * xyz 0 1
| 11>   C                      -2.126665            -0.208685            0.998271
| 12>   O                      -1.430245            -0.154038            2.216547
| 13>   H                      -0.941628            -0.970664            2.317989
| 14>   H                      -2.670236            -1.145597            0.868063
| 15>   H                      -2.929450            0.476689             0.924558
| 16>   H                      -1.504944            -0.030401            0.068087
| 17>   C                      0.024962             3.279338             2.219928
| 18>   O                      0.698008             2.095826             1.788715
| 19>   H                      0.289781             1.322125             2.213121
| 20>   H                      0.363567             4.220912             1.740841
| 21>   H                      -1.016811            3.237245             1.928872
| 22>   H                      0.064650             3.499238             3.329107
| 23> *
| 24>
| 25> #Run DFT-D3 single point of the molecule with dimer basis set
| 26> $new_job
| 27> %base "14-177_DFT_A"
| 28> ! wB97X-D3 def2-TZVP TIGHTSCF CHELPG PMODEL
| 29>
| 30> %scf
| 31> MaxIter 1000
| 32> end
| 33>
| 34> * xyz 0 1
| 35>   C                      -2.126665            -0.208685            0.998271
| 36>   O                      -1.430245            -0.154038            2.216547
| 37>   H                      -0.941628            -0.970664            2.317989
| 38>   H                      -2.670236            -1.145597            0.868063
| 39>   H                      -2.929450            0.476689             0.924558
| 40>   H                      -1.504944            -0.030401            0.068087
| 41>   C                    : 0.024962             3.279338             2.219928
| 42>   O                    : 0.698008             2.095826             1.788715
| 43>   H                    : 0.289781             1.322125             2.213121
| 44>   H                    : 0.363567             4.220912             1.740841
| 45>   H                    : -1.016811            3.237245             1.928872
| 46>   H                    : 0.064650             3.499238             3.329107
| 47> *
| 48>
| 49> #Run DFT-D3 single point of the particle with dimer basis set
| 50> $new_job
| 51> %base "14-177_DFT_B"
| 52> ! wB97X-D3 def2-TZVP TIGHTSCF CHELPG PMODEL
| 53>
| 54> %scf
| 55> MaxIter 1000
| 56> end
| 57>
| 58> * xyz 0 1
| 59>   C                    : -2.126665            -0.208685            0.998271
| 60>   O                    : -1.430245            -0.154038            2.216547
| 61>   H                    : -0.941628            -0.970664            2.317989
| 62>   H                    : -2.670236            -1.145597            0.868063
| 63>   H                    : -2.929450            0.476689             0.924558
| 64>   H                    : -1.504944            -0.030401            0.068087
| 65>   C                      0.024962             3.279338             2.219928
| 66>   O                      0.698008             2.095826             1.788715
| 67>   H                      0.289781             1.322125             2.213121
| 68>   H                      0.363567             4.220912             1.740841
| 69>   H                      -1.016811            3.237245             1.928872
| 70>   H                      0.064650             3.499238             3.329107
| 71> *
| 72>
| 73>                          ****END OF INPUT****
 Total Charge           Charge          ....    0
 Multiplicity           Mult            ....    1
 Number of Electrons    NEL             ....   36
Dispersion correction           -0.001858484
FINAL SINGLE POINT ENERGY      -231.472588518248
Dispersion correction           -0.000257649
FINAL SINGLE POINT ENERGY      -115.733071806749

CARTESIAN COORDINATES (ANGSTROEM)
---------------------------------
  C     -2.126665   -0.208685    0.998271
  O     -1.430245   -0.154038    2.216547
  H     -0.941628   -0.970664    2.317989
  H     -2.670236   -1.145597    0.868063
  H     -2.929450    0.476689    0.924558
  H     -1.504944   -0.030401    0.068087
  C      0.024962    3.279338    2.219928
  O      0.698008    2.095826    1.788715
  H      0.289781    1.322125    2.213121
  H      0.363567    4.220912    1.740841
  H     -1.016811    3.237245    1.928872
  H      0.064650    3.499238    3.329107

 Multiplicity           Mult            ....    1
 Number of Electrons    NEL             ....   18
 Basis Dimension        Dim             ....  172

ORBITAL ENERGIES
----------------

  NO   OCC          E(Eh)            E(eV)
   0   2.0000     -19.235913      -523.4358
   1   2.0000     -10.319272      -280.8017
   2   2.0000      -1.131035       -30.7770
   3   2.0000      -0.795162       -21.6375
   4   2.0000      -0.608035       -16.5455
   5   2.0000      -0.537266       -14.6197
   6   2.0000      -0.526984       -14.3400
   7   2.0000      -0.429477       -11.6867
   8   2.0000      -0.376368       -10.2415
   9   0.0000       0.072564         1.9746
  10   0.0000       0.133237         3.6256
  11   0.0000       0.138142         3.7590
  12   0.0000       0.168650         4.5892
  13   0.0000       0.191437         5.2093

MULLIKEN ATOMIC CHARGES
-----------------------
   0 C :   -0.003924
   1 O :   -0.001391
   2 H :   -0.000278
   3 H :   -0.000231
   4 H :    0.000191
   5 H :   -0.001044
   6 C :   -0.175375
   7 O :   -0.471048
   8 H :    0.318783
   9 H :    0.120279
  10 H :    0.109477
  11 H :    0.104561
Sum of atomic charges:    0.0000000

LOEWDIN ATOMIC CHARGES
----------------------
   0 C :   -0.004243
   1 O :   -0.008664
   2 H :   -0.001180
   3 H :   -0.000095
   4 H :   -0.000141
   5 H :   -0.001111
   6 C :   -0.387235
   7 O :   -0.081911
   8 H :    0.179480
   9 H :    0.111699
  10 H :    0.092673
  11 H :    0.100728

  Mayer bond orders larger than 0.1
B(  6-C ,  7-O ) :   1.0006 B(  6-C ,  9-H ) :   0.9714 B(  6-C , 10-H ) :   0.9764
B(  6-C , 11-H ) :   0.9740 B(  7-O ,  8-H ) :   0.8976

Dispersion correction           -0.000271957
FINAL SINGLE POINT ENERGY      -115.732874250311

DIPOLE MOMENT
-------------
                                X             Y             Z
Electronic contribution:      1.04881      -1.51467      -0.65685
Nuclear contribution   :     -1.58292       1.52214       1.07712
                        -----------------------------------------
Total Dipole Moment    :     -0.53411       0.00747       0.42027
                        -----------------------------------------
Magnitude (a.u.)       :      0.67968
Magnitude (Debye)      :      1.72760

Rotational constants in cm-1:     4.366949     0.798599     0.774464
Rotational constants in MHz : 130917.825631 23941.391277 23217.837903

                             ****ORCA TERMINATED NORMALLY****
TOTAL RUN TIME: 0 days 0 hours 1 minutes 5 seconds 10 msec
