                         Program Version 4.1.2  - RELEASE  -
|  1> #Run DFT-D3 single point of the dimer
|  2> ! wB97X-D3 def2-TZVP TIGHTSCF CHELPG PMODEL PAL8
|  3>
|  4> %base "6-169_DFT_AB"
|  5>
|  6> %scf
|  7> MaxIter 1000
|  8> end
|  9>
| 10> * xyz 0 1
| 11>   C                      -10.012217           -3.260761            3.612046
| 12>   O                      -9.049971            -2.258443            3.290814
| 13>   H                      -9.544630            -1.524157            2.939896
| 14>   H                      -10.761917           -3.336044            2.835439
| 15>   H                      -9.516522            -4.196883            3.682263
| 16>   H                      -10.539423           -3.049926            4.482328
| 17>   C                      -6.266477            -4.168455            2.455603
| 18>   O                      -7.175860            -4.854637            3.321808
| 19>   H                      -7.764477            -4.120895            3.614753
| 20>   H                      -5.463502            -3.663733            3.000096
| 21>   H                      -5.628157            -4.916968            1.894217
| 22>   H                      -6.708523            -3.465401            1.673452
| 23> *
| 24>
| 25> #Run DFT-D3 single point of the molecule with dimer basis set
| 26> $new_job
| 27> %base "6-169_DFT_A"
| 28> ! wB97X-D3 def2-TZVP TIGHTSCF CHELPG PMODEL
| 29>
| 30> %scf
| 31> MaxIter 1000
| 32> end
| 33>
| 34> * xyz 0 1
| 35>   C                      -10.012217           -3.260761            3.612046
| 36>   O                      -9.049971            -2.258443            3.290814
| 37>   H                      -9.544630            -1.524157            2.939896
| 38>   H                      -10.761917           -3.336044            2.835439
| 39>   H                      -9.516522            -4.196883            3.682263
| 40>   H                      -10.539423           -3.049926            4.482328
| 41>   C                    : -6.266477            -4.168455            2.455603
| 42>   O                    : -7.175860            -4.854637            3.321808
| 43>   H                    : -7.764477            -4.120895            3.614753
| 44>   H                    : -5.463502            -3.663733            3.000096
| 45>   H                    : -5.628157            -4.916968            1.894217
| 46>   H                    : -6.708523            -3.465401            1.673452
| 47> *
| 48>
| 49> #Run DFT-D3 single point of the particle with dimer basis set
| 50> $new_job
| 51> %base "6-169_DFT_B"
| 52> ! wB97X-D3 def2-TZVP TIGHTSCF CHELPG PMODEL
| 53>
| 54> %scf
| 55> MaxIter 1000
| 56> end
| 57>
| 58> * xyz 0 1
| 59>   C                    : -10.012217           -3.260761            3.612046
| 60>   O                    : -9.049971            -2.258443            3.290814
| 61>   H                    : -9.544630            -1.524157            2.939896
| 62>   H                    : -10.761917           -3.336044            2.835439
| 63>   H                    : -9.516522            -4.196883            3.682263
| 64>   H                    : -10.539423           -3.049926            4.482328
| 65>   C                      -6.266477            -4.168455            2.455603
| 66>   O                      -7.175860            -4.854637            3.321808
| 67>   H                      -7.764477            -4.120895            3.614753
| 68>   H                      -5.463502            -3.663733            3.000096
| 69>   H                      -5.628157            -4.916968            1.894217
| 70>   H                      -6.708523            -3.465401            1.673452
| 71> *
| 72>
| 73>                          ****END OF INPUT****
 Total Charge           Charge          ....    0
 Multiplicity           Mult            ....    1
 Number of Electrons    NEL             ....   36
Dispersion correction           -0.001951804
FINAL SINGLE POINT ENERGY      -231.467056009580
Dispersion correction           -0.000222187
FINAL SINGLE POINT ENERGY      -115.734087539252

CARTESIAN COORDINATES (ANGSTROEM)
---------------------------------
  C    -10.012217   -3.260761    3.612046
  O     -9.049971   -2.258443    3.290814
  H     -9.544630   -1.524157    2.939896
  H    -10.761917   -3.336044    2.835439
  H     -9.516522   -4.196883    3.682263
  H    -10.539423   -3.049926    4.482328
  C     -6.266477   -4.168455    2.455603
  O     -7.175860   -4.854637    3.321808
  H     -7.764477   -4.120895    3.614753
  H     -5.463502   -3.663733    3.000096
  H     -5.628157   -4.916968    1.894217
  H     -6.708523   -3.465401    1.673452

 Multiplicity           Mult            ....    1
 Number of Electrons    NEL             ....   18
 Basis Dimension        Dim             ....  172

ORBITAL ENERGIES
----------------

  NO   OCC          E(Eh)            E(eV)
   0   2.0000     -19.241805      -523.5961
   1   2.0000     -10.323365      -280.9131
   2   2.0000      -1.134004       -30.8578
   3   2.0000      -0.788722       -21.4622
   4   2.0000      -0.603943       -16.4341
   5   2.0000      -0.538771       -14.6607
   6   2.0000      -0.520040       -14.1510
   7   2.0000      -0.437559       -11.9066
   8   2.0000      -0.377706       -10.2779
   9   0.0000       0.071411         1.9432
  10   0.0000       0.132928         3.6172
  11   0.0000       0.147295         4.0081
  12   0.0000       0.168132         4.5751
  13   0.0000       0.188074         5.1177

MULLIKEN ATOMIC CHARGES
-----------------------
   0 C :   -0.004921
   1 O :   -0.000570
   2 H :   -0.000097
   3 H :    0.000679
   4 H :   -0.007151
   5 H :   -0.000047
   6 C :   -0.199100
   7 O :   -0.445656
   8 H :    0.317767
   9 H :    0.111810
  10 H :    0.115931
  11 H :    0.111355
Sum of atomic charges:   -0.0000000

LOEWDIN ATOMIC CHARGES
----------------------
   0 C :   -0.014428
   1 O :   -0.006223
   2 H :   -0.000248
   3 H :   -0.000154
   4 H :   -0.012867
   5 H :   -0.000196
   6 C :   -0.401034
   7 O :   -0.075790
   8 H :    0.196871
   9 H :    0.094704
  10 H :    0.114655
  11 H :    0.104711

  Mayer bond orders larger than 0.1
B(  6-C ,  7-O ) :   1.0070 B(  6-C ,  9-H ) :   0.9752 B(  6-C , 10-H ) :   0.9762
B(  6-C , 11-H ) :   0.9641 B(  7-O ,  8-H ) :   0.9028

Dispersion correction           -0.000271306
FINAL SINGLE POINT ENERGY      -115.730270966986

DIPOLE MOMENT
-------------
                                X             Y             Z
Electronic contribution:     -1.26646      -1.00760       1.16748
Nuclear contribution   :      1.28844       1.69609      -1.32150
                        -----------------------------------------
Total Dipole Moment    :      0.02199       0.68849      -0.15401
                        -----------------------------------------
Magnitude (a.u.)       :      0.70585
Magnitude (Debye)      :      1.79413

Rotational constants in cm-1:     4.157549     0.806183     0.772399
Rotational constants in MHz : 124640.179278 24168.761481 23155.933053

                             ****ORCA TERMINATED NORMALLY****
TOTAL RUN TIME: 0 days 0 hours 1 minutes 5 seconds 785 msec
