                         Program Version 4.1.2  - RELEASE  -
|  1> #Run DFT-D3 single point of the dimer
|  2> ! wB97X-D3 def2-TZVP TIGHTSCF CHELPG PMODEL PAL8
|  3>
|  4> %base "6-38_DFT_AB"
|  5>
|  6> %scf
|  7> MaxIter 1000
|  8> end
|  9>
| 10> * xyz 0 1
| 11>   C                      -8.806139            -3.804200            -0.537785
| 12>   O                      -9.024071            -2.496550            -1.017201
| 13>   H                      -9.353899            -2.559543            -1.944128
| 14>   H                      -8.922862            -3.712289            0.568426
| 15>   H                      -9.480058            -4.616308            -0.979368
| 16>   H                      -7.833328            -4.174835            -0.732438
| 17>   C                      -10.012217           -3.260761            3.612046
| 18>   O                      -9.049971            -2.258443            3.290814
| 19>   H                      -9.544630            -1.524157            2.939896
| 20>   H                      -10.761917           -3.336044            2.835439
| 21>   H                      -9.516522            -4.196883            3.682263
| 22>   H                      -10.539423           -3.049926            4.482328
| 23> *
| 24>
| 25> #Run DFT-D3 single point of the molecule with dimer basis set
| 26> $new_job
| 27> %base "6-38_DFT_A"
| 28> ! wB97X-D3 def2-TZVP TIGHTSCF CHELPG PMODEL
| 29>
| 30> %scf
| 31> MaxIter 1000
| 32> end
| 33>
| 34> * xyz 0 1
| 35>   C                      -8.806139            -3.804200            -0.537785
| 36>   O                      -9.024071            -2.496550            -1.017201
| 37>   H                      -9.353899            -2.559543            -1.944128
| 38>   H                      -8.922862            -3.712289            0.568426
| 39>   H                      -9.480058            -4.616308            -0.979368
| 40>   H                      -7.833328            -4.174835            -0.732438
| 41>   C                    : -10.012217           -3.260761            3.612046
| 42>   O                    : -9.049971            -2.258443            3.290814
| 43>   H                    : -9.544630            -1.524157            2.939896
| 44>   H                    : -10.761917           -3.336044            2.835439
| 45>   H                    : -9.516522            -4.196883            3.682263
| 46>   H                    : -10.539423           -3.049926            4.482328
| 47> *
| 48>
| 49> #Run DFT-D3 single point of the particle with dimer basis set
| 50> $new_job
| 51> %base "6-38_DFT_B"
| 52> ! wB97X-D3 def2-TZVP TIGHTSCF CHELPG PMODEL
| 53>
| 54> %scf
| 55> MaxIter 1000
| 56> end
| 57>
| 58> * xyz 0 1
| 59>   C                    : -8.806139            -3.804200            -0.537785
| 60>   O                    : -9.024071            -2.496550            -1.017201
| 61>   H                    : -9.353899            -2.559543            -1.944128
| 62>   H                    : -8.922862            -3.712289            0.568426
| 63>   H                    : -9.480058            -4.616308            -0.979368
| 64>   H                    : -7.833328            -4.174835            -0.732438
| 65>   C                      -10.012217           -3.260761            3.612046
| 66>   O                      -9.049971            -2.258443            3.290814
| 67>   H                      -9.544630            -1.524157            2.939896
| 68>   H                      -10.761917           -3.336044            2.835439
| 69>   H                      -9.516522            -4.196883            3.682263
| 70>   H                      -10.539423           -3.049926            4.482328
| 71> *
| 72>
| 73>                          ****END OF INPUT****
 Total Charge           Charge          ....    0
 Multiplicity           Mult            ....    1
 Number of Electrons    NEL             ....   36
Dispersion correction           -0.001379561
FINAL SINGLE POINT ENERGY      -231.467244886765
Dispersion correction           -0.000258192
FINAL SINGLE POINT ENERGY      -115.731669839692

CARTESIAN COORDINATES (ANGSTROEM)
---------------------------------
  C     -8.806139   -3.804200   -0.537785
  O     -9.024071   -2.496550   -1.017201
  H     -9.353899   -2.559543   -1.944128
  H     -8.922862   -3.712289    0.568426
  H     -9.480058   -4.616308   -0.979368
  H     -7.833328   -4.174835   -0.732438
  C    -10.012217   -3.260761    3.612046
  O     -9.049971   -2.258443    3.290814
  H     -9.544630   -1.524157    2.939896
  H    -10.761917   -3.336044    2.835439
  H     -9.516522   -4.196883    3.682263
  H    -10.539423   -3.049926    4.482328

 Multiplicity           Mult            ....    1
 Number of Electrons    NEL             ....   18
 Basis Dimension        Dim             ....  172

ORBITAL ENERGIES
----------------

  NO   OCC          E(Eh)            E(eV)
   0   2.0000     -19.228578      -523.2362
   1   2.0000     -10.302953      -280.3576
   2   2.0000      -1.134496       -30.8712
   3   2.0000      -0.803740       -21.8709
   4   2.0000      -0.612937       -16.6789
   5   2.0000      -0.545638       -14.8476
   6   2.0000      -0.527479       -14.3534
   7   2.0000      -0.440538       -11.9877
   8   2.0000      -0.375034       -10.2052
   9   0.0000       0.087417         2.3787
  10   0.0000       0.120304         3.2736
  11   0.0000       0.153443         4.1754
  12   0.0000       0.173370         4.7176
  13   0.0000       0.196056         5.3350

MULLIKEN ATOMIC CHARGES
-----------------------
   0 C :   -0.000980
   1 O :    0.000103
   2 H :    0.000004
   3 H :   -0.001189
   4 H :   -0.000043
   5 H :    0.000058
   6 C :   -0.168363
   7 O :   -0.481038
   8 H :    0.311872
   9 H :    0.101933
  10 H :    0.121868
  11 H :    0.115776
Sum of atomic charges:    0.0000000

LOEWDIN ATOMIC CHARGES
----------------------
   0 C :   -0.001394
   1 O :   -0.000071
   2 H :   -0.000004
   3 H :   -0.003124
   4 H :   -0.000017
   5 H :   -0.000009
   6 C :   -0.362135
   7 O :   -0.079785
   8 H :    0.163421
   9 H :    0.094467
  10 H :    0.103831
  11 H :    0.084819

  Mayer bond orders larger than 0.1
B(  6-C ,  7-O ) :   0.9801 B(  6-C ,  9-H ) :   0.9874 B(  6-C , 10-H ) :   0.9793
B(  6-C , 11-H ) :   0.9730 B(  7-O ,  8-H ) :   0.9041

Dispersion correction           -0.000222187
FINAL SINGLE POINT ENERGY      -115.734040939292

DIPOLE MOMENT
-------------
                                X             Y             Z
Electronic contribution:      1.33451       1.15466      -0.26627
Nuclear contribution   :     -2.05297      -1.10347       0.18294
                        -----------------------------------------
Total Dipole Moment    :     -0.71846       0.05119      -0.08333
                        -----------------------------------------
Magnitude (a.u.)       :      0.72509
Magnitude (Debye)      :      1.84303

Rotational constants in cm-1:     4.490912     0.832218     0.797991
Rotational constants in MHz : 134634.144284 24949.279146 23923.153871

                             ****ORCA TERMINATED NORMALLY****
TOTAL RUN TIME: 0 days 0 hours 0 minutes 58 seconds 90 msec
