                         Program Version 4.1.2  - RELEASE  -
|  1> #Run DFT-D3 single point of the dimer
|  2> ! wB97X-D3 def2-TZVP TIGHTSCF CHELPG PMODEL PAL8
|  3>
|  4> %base "7-73_DFT_AB"
|  5>
|  6> %scf
|  7> MaxIter 1000
|  8> end
|  9>
| 10> * xyz 0 1
| 11>   C                      7.285926             0.821066             2.316241
| 12>   O                      7.532912             0.471736             1.007627
| 13>   H                      8.045949             -0.406475            0.930814
| 14>   H                      7.486048             -0.087081            3.004934
| 15>   H                      7.841240             1.695538             2.765298
| 16>   H                      6.188296             0.937388             2.320612
| 17>   C                      3.721256             2.865454             0.278842
| 18>   O                      3.810652             4.224513             0.718855
| 19>   H                      3.847158             4.251311             1.654711
| 20>   H                      4.630489             2.337793             0.330650
| 21>   H                      3.118835             2.213713             0.975832
| 22>   H                      3.309772             2.784025             -0.718189
| 23> *
| 24>
| 25> #Run DFT-D3 single point of the molecule with dimer basis set
| 26> $new_job
| 27> %base "7-73_DFT_A"
| 28> ! wB97X-D3 def2-TZVP TIGHTSCF CHELPG PMODEL
| 29>
| 30> %scf
| 31> MaxIter 1000
| 32> end
| 33>
| 34> * xyz 0 1
| 35>   C                      7.285926             0.821066             2.316241
| 36>   O                      7.532912             0.471736             1.007627
| 37>   H                      8.045949             -0.406475            0.930814
| 38>   H                      7.486048             -0.087081            3.004934
| 39>   H                      7.841240             1.695538             2.765298
| 40>   H                      6.188296             0.937388             2.320612
| 41>   C                    : 3.721256             2.865454             0.278842
| 42>   O                    : 3.810652             4.224513             0.718855
| 43>   H                    : 3.847158             4.251311             1.654711
| 44>   H                    : 4.630489             2.337793             0.330650
| 45>   H                    : 3.118835             2.213713             0.975832
| 46>   H                    : 3.309772             2.784025             -0.718189
| 47> *
| 48>
| 49> #Run DFT-D3 single point of the particle with dimer basis set
| 50> $new_job
| 51> %base "7-73_DFT_B"
| 52> ! wB97X-D3 def2-TZVP TIGHTSCF CHELPG PMODEL
| 53>
| 54> %scf
| 55> MaxIter 1000
| 56> end
| 57>
| 58> * xyz 0 1
| 59>   C                    : 7.285926             0.821066             2.316241
| 60>   O                    : 7.532912             0.471736             1.007627
| 61>   H                    : 8.045949             -0.406475            0.930814
| 62>   H                    : 7.486048             -0.087081            3.004934
| 63>   H                    : 7.841240             1.695538             2.765298
| 64>   H                    : 6.188296             0.937388             2.320612
| 65>   C                      3.721256             2.865454             0.278842
| 66>   O                      3.810652             4.224513             0.718855
| 67>   H                      3.847158             4.251311             1.654711
| 68>   H                      4.630489             2.337793             0.330650
| 69>   H                      3.118835             2.213713             0.975832
| 70>   H                      3.309772             2.784025             -0.718189
| 71> *
| 72>
| 73>                          ****END OF INPUT****
 Total Charge           Charge          ....    0
 Multiplicity           Mult            ....    1
 Number of Electrons    NEL             ....   36
Dispersion correction           -0.001151000
FINAL SINGLE POINT ENERGY      -231.455477184671
Dispersion correction           -0.000256815
FINAL SINGLE POINT ENERGY      -115.723559956579

CARTESIAN COORDINATES (ANGSTROEM)
---------------------------------
  C      7.285926    0.821066    2.316241
  O      7.532912    0.471736    1.007627
  H      8.045949   -0.406475    0.930814
  H      7.486048   -0.087081    3.004934
  H      7.841240    1.695538    2.765298
  H      6.188296    0.937388    2.320612
  C      3.721256    2.865454    0.278842
  O      3.810652    4.224513    0.718855
  H      3.847158    4.251311    1.654711
  H      4.630489    2.337793    0.330650
  H      3.118835    2.213713    0.975832
  H      3.309772    2.784025   -0.718189

 Multiplicity           Mult            ....    1
 Number of Electrons    NEL             ....   18
 Basis Dimension        Dim             ....  172

ORBITAL ENERGIES
----------------

  NO   OCC          E(Eh)            E(eV)
   0   2.0000     -19.229198      -523.2531
   1   2.0000     -10.313540      -280.6457
   2   2.0000      -1.134967       -30.8840
   3   2.0000      -0.802914       -21.8484
   4   2.0000      -0.616959       -16.7883
   5   2.0000      -0.536336       -14.5945
   6   2.0000      -0.525092       -14.2885
   7   2.0000      -0.438218       -11.9245
   8   2.0000      -0.373393       -10.1606
   9   0.0000       0.080602         2.1933
  10   0.0000       0.118546         3.2258
  11   0.0000       0.150765         4.1025
  12   0.0000       0.165175         4.4946
  13   0.0000       0.182166         4.9570

MULLIKEN ATOMIC CHARGES
-----------------------
   0 C :    0.000666
   1 O :   -0.000149
   2 H :   -0.000010
   3 H :    0.000041
   4 H :   -0.000088
   5 H :   -0.000441
   6 C :   -0.171171
   7 O :   -0.472911
   8 H :    0.310822
   9 H :    0.110381
  10 H :    0.095656
  11 H :    0.127204
Sum of atomic charges:    0.0000000

LOEWDIN ATOMIC CHARGES
----------------------
   0 C :   -0.000893
   1 O :   -0.000220
   2 H :   -0.000011
   3 H :   -0.000003
   4 H :   -0.000015
   5 H :   -0.000902
   6 C :   -0.369369
   7 O :   -0.075503
   8 H :    0.152465
   9 H :    0.086180
  10 H :    0.101688
  11 H :    0.106582

  Mayer bond orders larger than 0.1
B(  6-C ,  7-O ) :   0.9986 B(  6-C ,  9-H ) :   0.9689 B(  6-C , 10-H ) :   0.9821
B(  6-C , 11-H ) :   0.9741 B(  7-O ,  8-H ) :   0.9050

Dispersion correction           -0.000256119
FINAL SINGLE POINT ENERGY      -115.731167206713

DIPOLE MOMENT
-------------
                                X             Y             Z
Electronic contribution:      0.14949       1.88292       0.32755
Nuclear contribution   :     -0.14944      -2.43403       0.10305
                        -----------------------------------------
Total Dipole Moment    :      0.00005      -0.55112       0.43059
                        -----------------------------------------
Magnitude (a.u.)       :      0.69938
Magnitude (Debye)      :      1.77769

Rotational constants in cm-1:     4.494721     0.812288     0.774331
Rotational constants in MHz : 134748.352578 24351.777133 23213.854575

                             ****ORCA TERMINATED NORMALLY****
TOTAL RUN TIME: 0 days 0 hours 1 minutes 2 seconds 117 msec
