                         Program Version 4.1.2  - RELEASE  -
|  1> #Run DFT-D3 single point of the dimer
|  2> ! wB97X-D3 def2-TZVP TIGHTSCF CHELPG PMODEL PAL8
|  3>
|  4> %base "1-62_DFT_AB"
|  5>
|  6> %scf
|  7> MaxIter 1000
|  8> end
|  9>
| 10> * xyz 0 1
| 11>   C                      -2.795325            9.217840             5.555766
| 12>   O                      -3.946272            9.686863             6.213946
| 13>   H                      -3.969267            9.351075             7.120477
| 14>   H                      -2.991524            9.209093             4.464861
| 15>   H                      -1.885058            9.769403             5.855998
| 16>   H                      -2.593840            8.207868             5.831886
| 17>   C                      -1.762520            6.941765             7.397373
| 18>   O                      -0.721336            7.823478             7.094080
| 19>   H                      -0.933814            8.336408             6.325097
| 20>   H                      -2.531944            7.407656             8.006269
| 21>   H                      -2.197197            6.657989             6.428430
| 22>   H                      -1.425565            5.995266             7.871045
| 23> *
| 24>
| 25> #Run DFT-D3 single point of the molecule with dimer basis set
| 26> $new_job
| 27> %base "1-62_DFT_A"
| 28> ! wB97X-D3 def2-TZVP TIGHTSCF CHELPG PMODEL
| 29>
| 30> %scf
| 31> MaxIter 1000
| 32> end
| 33>
| 34> * xyz 0 1
| 35>   C                      -2.795325            9.217840             5.555766
| 36>   O                      -3.946272            9.686863             6.213946
| 37>   H                      -3.969267            9.351075             7.120477
| 38>   H                      -2.991524            9.209093             4.464861
| 39>   H                      -1.885058            9.769403             5.855998
| 40>   H                      -2.593840            8.207868             5.831886
| 41>   C                    : -1.762520            6.941765             7.397373
| 42>   O                    : -0.721336            7.823478             7.094080
| 43>   H                    : -0.933814            8.336408             6.325097
| 44>   H                    : -2.531944            7.407656             8.006269
| 45>   H                    : -2.197197            6.657989             6.428430
| 46>   H                    : -1.425565            5.995266             7.871045
| 47> *
| 48>
| 49> #Run DFT-D3 single point of the particle with dimer basis set
| 50> $new_job
| 51> %base "1-62_DFT_B"
| 52> ! wB97X-D3 def2-TZVP TIGHTSCF CHELPG PMODEL
| 53>
| 54> %scf
| 55> MaxIter 1000
| 56> end
| 57>
| 58> * xyz 0 1
| 59>   C                    : -2.795325            9.217840             5.555766
| 60>   O                    : -3.946272            9.686863             6.213946
| 61>   H                    : -3.969267            9.351075             7.120477
| 62>   H                    : -2.991524            9.209093             4.464861
| 63>   H                    : -1.885058            9.769403             5.855998
| 64>   H                    : -2.593840            8.207868             5.831886
| 65>   C                      -1.762520            6.941765             7.397373
| 66>   O                      -0.721336            7.823478             7.094080
| 67>   H                      -0.933814            8.336408             6.325097
| 68>   H                      -2.531944            7.407656             8.006269
| 69>   H                      -2.197197            6.657989             6.428430
| 70>   H                      -1.425565            5.995266             7.871045
| 71> *
| 72>
| 73>                          ****END OF INPUT****
 Total Charge           Charge          ....    0
 Multiplicity           Mult            ....    1
 Number of Electrons    NEL             ....   36
Dispersion correction           -0.002335092
FINAL SINGLE POINT ENERGY      -231.458187243741
Dispersion correction           -0.000237326
FINAL SINGLE POINT ENERGY      -115.734852878820

CARTESIAN COORDINATES (ANGSTROEM)
---------------------------------
  C     -2.795325    9.217840    5.555766
  O     -3.946272    9.686863    6.213946
  H     -3.969267    9.351075    7.120477
  H     -2.991524    9.209093    4.464861
  H     -1.885058    9.769403    5.855998
  H     -2.593840    8.207868    5.831886
  C     -1.762520    6.941765    7.397373
  O     -0.721336    7.823478    7.094080
  H     -0.933814    8.336408    6.325097
  H     -2.531944    7.407656    8.006269
  H     -2.197197    6.657989    6.428430
  H     -1.425565    5.995266    7.871045

 Multiplicity           Mult            ....    1
 Number of Electrons    NEL             ....   18
 Basis Dimension        Dim             ....  172

ORBITAL ENERGIES
----------------

  NO   OCC          E(Eh)            E(eV)
   0   2.0000     -19.227712      -523.2126
   1   2.0000     -10.314334      -280.6673
   2   2.0000      -1.142388       -31.0859
   3   2.0000      -0.795316       -21.6417
   4   2.0000      -0.614799       -16.7295
   5   2.0000      -0.546842       -14.8803
   6   2.0000      -0.533543       -14.5184
   7   2.0000      -0.423892       -11.5347
   8   2.0000      -0.373814       -10.1720
   9   0.0000       0.076431         2.0798
  10   0.0000       0.138610         3.7718
  11   0.0000       0.153855         4.1866
  12   0.0000       0.167007         4.5445
  13   0.0000       0.196408         5.3445

MULLIKEN ATOMIC CHARGES
-----------------------
   0 C :   -0.006022
   1 O :    0.000059
   2 H :   -0.000360
   3 H :   -0.000637
   4 H :   -0.002874
   5 H :   -0.006389
   6 C :   -0.155197
   7 O :   -0.470268
   8 H :    0.320674
   9 H :    0.104029
  10 H :    0.097677
  11 H :    0.119309
Sum of atomic charges:    0.0000000

LOEWDIN ATOMIC CHARGES
----------------------
   0 C :   -0.033536
   1 O :   -0.000277
   2 H :   -0.002123
   3 H :   -0.000317
   4 H :   -0.009733
   5 H :   -0.031187
   6 C :   -0.373834
   7 O :   -0.041003
   8 H :    0.175454
   9 H :    0.097134
  10 H :    0.109532
  11 H :    0.109892

  Mayer bond orders larger than 0.1
B(  6-C ,  7-O ) :   0.9868 B(  6-C ,  9-H ) :   0.9759 B(  6-C , 10-H ) :   0.9961
B(  6-C , 11-H ) :   0.9691 B(  7-O ,  8-H ) :   0.9024

Dispersion correction           -0.000232180
FINAL SINGLE POINT ENERGY      -115.734152795068

DIPOLE MOMENT
-------------
                                X             Y             Z
Electronic contribution:      1.43655       1.09567      -0.16762
Nuclear contribution   :     -1.97474      -1.12901      -0.21971
                        -----------------------------------------
Total Dipole Moment    :     -0.53819      -0.03334      -0.38733
                        -----------------------------------------
Magnitude (a.u.)       :      0.66392
Magnitude (Debye)      :      1.68754

Rotational constants in cm-1:     4.321993     0.843595     0.817095
Rotational constants in MHz : 129570.087282 25290.336604 24495.884418

                             ****ORCA TERMINATED NORMALLY****
TOTAL RUN TIME: 0 days 0 hours 6 minutes 15 seconds 944 msec
