                         Program Version 4.1.2  - RELEASE  -
|  1> #Run DFT-D3 single point of the dimer
|  2> ! wB97X-D3 def2-TZVP TIGHTSCF CHELPG PMODEL PAL8
|  3>
|  4> %base "21-150_DFT_AB"
|  5>
|  6> %scf
|  7> MaxIter 1000
|  8> end
|  9>
| 10> * xyz 0 1
| 11>   C                      -4.797981            5.631424             -2.623240
| 12>   O                      -5.237484            5.394242             -4.010165
| 13>   H                      -5.022059            6.181057             -4.583868
| 14>   H                      -3.706506            5.559531             -2.455493
| 15>   H                      -5.119891            6.579351             -2.201764
| 16>   H                      -5.126361            4.857216             -1.992728
| 17>   C                      -6.318035            2.005671             -5.095048
| 18>   O                      -4.973212            2.520542             -5.011633
| 19>   H                      -5.038629            3.425141             -4.704228
| 20>   H                      -6.272980            0.946138             -5.394079
| 21>   H                      -6.893007            2.105959             -4.134858
| 22>   H                      -6.809048            2.450537             -5.941331
| 23> *
| 24>
| 25> #Run DFT-D3 single point of the molecule with dimer basis set
| 26> $new_job
| 27> %base "21-150_DFT_A"
| 28> ! wB97X-D3 def2-TZVP TIGHTSCF CHELPG PMODEL
| 29>
| 30> %scf
| 31> MaxIter 1000
| 32> end
| 33>
| 34> * xyz 0 1
| 35>   C                      -4.797981            5.631424             -2.623240
| 36>   O                      -5.237484            5.394242             -4.010165
| 37>   H                      -5.022059            6.181057             -4.583868
| 38>   H                      -3.706506            5.559531             -2.455493
| 39>   H                      -5.119891            6.579351             -2.201764
| 40>   H                      -5.126361            4.857216             -1.992728
| 41>   C                    : -6.318035            2.005671             -5.095048
| 42>   O                    : -4.973212            2.520542             -5.011633
| 43>   H                    : -5.038629            3.425141             -4.704228
| 44>   H                    : -6.272980            0.946138             -5.394079
| 45>   H                    : -6.893007            2.105959             -4.134858
| 46>   H                    : -6.809048            2.450537             -5.941331
| 47> *
| 48>
| 49> #Run DFT-D3 single point of the particle with dimer basis set
| 50> $new_job
| 51> %base "21-150_DFT_B"
| 52> ! wB97X-D3 def2-TZVP TIGHTSCF CHELPG PMODEL
| 53>
| 54> %scf
| 55> MaxIter 1000
| 56> end
| 57>
| 58> * xyz 0 1
| 59>   C                    : -4.797981            5.631424             -2.623240
| 60>   O                    : -5.237484            5.394242             -4.010165
| 61>   H                    : -5.022059            6.181057             -4.583868
| 62>   H                    : -3.706506            5.559531             -2.455493
| 63>   H                    : -5.119891            6.579351             -2.201764
| 64>   H                    : -5.126361            4.857216             -1.992728
| 65>   C                      -6.318035            2.005671             -5.095048
| 66>   O                      -4.973212            2.520542             -5.011633
| 67>   H                      -5.038629            3.425141             -4.704228
| 68>   H                      -6.272980            0.946138             -5.394079
| 69>   H                      -6.893007            2.105959             -4.134858
| 70>   H                      -6.809048            2.450537             -5.941331
| 71> *
| 72>
| 73>                          ****END OF INPUT****
 Total Charge           Charge          ....    0
 Multiplicity           Mult            ....    1
 Number of Electrons    NEL             ....   36
Dispersion correction           -0.001656247
FINAL SINGLE POINT ENERGY      -231.472742478251
Dispersion correction           -0.000297283
FINAL SINGLE POINT ENERGY      -115.729600930175

CARTESIAN COORDINATES (ANGSTROEM)
---------------------------------
  C     -4.797981    5.631424   -2.623240
  O     -5.237484    5.394242   -4.010165
  H     -5.022059    6.181057   -4.583868
  H     -3.706506    5.559531   -2.455493
  H     -5.119891    6.579351   -2.201764
  H     -5.126361    4.857216   -1.992728
  C     -6.318035    2.005671   -5.095048
  O     -4.973212    2.520542   -5.011633
  H     -5.038629    3.425141   -4.704228
  H     -6.272980    0.946138   -5.394079
  H     -6.893007    2.105959   -4.134858
  H     -6.809048    2.450537   -5.941331

 Multiplicity           Mult            ....    1
 Number of Electrons    NEL             ....   18
 Basis Dimension        Dim             ....  172

ORBITAL ENERGIES
----------------

  NO   OCC          E(Eh)            E(eV)
   0   2.0000     -19.230119      -523.2781
   1   2.0000     -10.317184      -280.7448
   2   2.0000      -1.128627       -30.7115
   3   2.0000      -0.795549       -21.6480
   4   2.0000      -0.601793       -16.3756
   5   2.0000      -0.545109       -14.8332
   6   2.0000      -0.521212       -14.1829
   7   2.0000      -0.433455       -11.7949
   8   2.0000      -0.376083       -10.2337
   9   0.0000       0.070162         1.9092
  10   0.0000       0.131447         3.5768
  11   0.0000       0.147330         4.0090
  12   0.0000       0.163184         4.4405
  13   0.0000       0.191573         5.2130

MULLIKEN ATOMIC CHARGES
-----------------------
   0 C :   -0.002732
   1 O :   -0.001960
   2 H :   -0.000274
   3 H :    0.000288
   4 H :   -0.000089
   5 H :   -0.000259
   6 C :   -0.172843
   7 O :   -0.475900
   8 H :    0.311681
   9 H :    0.121745
  10 H :    0.109436
  11 H :    0.110906
Sum of atomic charges:   -0.0000000

LOEWDIN ATOMIC CHARGES
----------------------
   0 C :   -0.003191
   1 O :   -0.013239
   2 H :   -0.000895
   3 H :   -0.000085
   4 H :   -0.000081
   5 H :   -0.000398
   6 C :   -0.369169
   7 O :   -0.089343
   8 H :    0.169292
   9 H :    0.111426
  10 H :    0.102772
  11 H :    0.092910

  Mayer bond orders larger than 0.1
B(  6-C ,  7-O ) :   0.9865 B(  6-C ,  9-H ) :   0.9739 B(  6-C , 10-H ) :   0.9690
B(  6-C , 11-H ) :   0.9783 B(  7-O ,  8-H ) :   0.9103

Dispersion correction           -0.000252543
FINAL SINGLE POINT ENERGY      -115.734620554947

DIPOLE MOMENT
-------------
                                X             Y             Z
Electronic contribution:      1.70513       0.55785       0.11806
Nuclear contribution   :     -2.29808      -0.21908       0.01292
                        -----------------------------------------
Total Dipole Moment    :     -0.59295       0.33877       0.13098
                        -----------------------------------------
Magnitude (a.u.)       :      0.69535
Magnitude (Debye)      :      1.76743

Rotational constants in cm-1:     4.236452     0.804678     0.778111
Rotational constants in MHz : 127005.642726 24123.641684 23327.190941

                             ****ORCA TERMINATED NORMALLY****
TOTAL RUN TIME: 0 days 0 hours 1 minutes 4 seconds 362 msec
