                         Program Version 4.1.2  - RELEASE  -
|  1> #Run DFT-D3 single point of the dimer
|  2> ! wB97X-D3 def2-TZVP TIGHTSCF CHELPG PMODEL PAL8
|  3>
|  4> %base "4-64_DFT_AB"
|  5>
|  6> %scf
|  7> MaxIter 1000
|  8> end
|  9>
| 10> * xyz 0 1
| 11>   C                      3.051319             10.744531            -1.095731
| 12>   O                      4.041918             9.795528             -1.066697
| 13>   H                      3.695005             9.045905             -1.508227
| 14>   H                      2.823380             11.193484            -2.079917
| 15>   H                      2.116573             10.257582            -0.937231
| 16>   H                      3.298022             11.551580            -0.358631
| 17>   C                      7.139799             11.030505            -4.060761
| 18>   O                      7.225816             10.885783            -5.419864
| 19>   H                      7.208605             9.944147             -5.620247
| 20>   H                      6.095317             10.984809            -3.796295
| 21>   H                      7.477387             10.165049            -3.499051
| 22>   H                      7.597012             11.857664            -3.601412
| 23> *
| 24>
| 25> #Run DFT-D3 single point of the molecule with dimer basis set
| 26> $new_job
| 27> %base "4-64_DFT_A"
| 28> ! wB97X-D3 def2-TZVP TIGHTSCF CHELPG PMODEL
| 29>
| 30> %scf
| 31> MaxIter 1000
| 32> end
| 33>
| 34> * xyz 0 1
| 35>   C                      3.051319             10.744531            -1.095731
| 36>   O                      4.041918             9.795528             -1.066697
| 37>   H                      3.695005             9.045905             -1.508227
| 38>   H                      2.823380             11.193484            -2.079917
| 39>   H                      2.116573             10.257582            -0.937231
| 40>   H                      3.298022             11.551580            -0.358631
| 41>   C                    : 7.139799             11.030505            -4.060761
| 42>   O                    : 7.225816             10.885783            -5.419864
| 43>   H                    : 7.208605             9.944147             -5.620247
| 44>   H                    : 6.095317             10.984809            -3.796295
| 45>   H                    : 7.477387             10.165049            -3.499051
| 46>   H                    : 7.597012             11.857664            -3.601412
| 47> *
| 48>
| 49> #Run DFT-D3 single point of the particle with dimer basis set
| 50> $new_job
| 51> %base "4-64_DFT_B"
| 52> ! wB97X-D3 def2-TZVP TIGHTSCF CHELPG PMODEL
| 53>
| 54> %scf
| 55> MaxIter 1000
| 56> end
| 57>
| 58> * xyz 0 1
| 59>   C                    : 3.051319             10.744531            -1.095731
| 60>   O                    : 4.041918             9.795528             -1.066697
| 61>   H                    : 3.695005             9.045905             -1.508227
| 62>   H                    : 2.823380             11.193484            -2.079917
| 63>   H                    : 2.116573             10.257582            -0.937231
| 64>   H                    : 3.298022             11.551580            -0.358631
| 65>   C                      7.139799             11.030505            -4.060761
| 66>   O                      7.225816             10.885783            -5.419864
| 67>   H                      7.208605             9.944147             -5.620247
| 68>   H                      6.095317             10.984809            -3.796295
| 69>   H                      7.477387             10.165049            -3.499051
| 70>   H                      7.597012             11.857664            -3.601412
| 71> *
| 72>
| 73>                          ****END OF INPUT****
 Total Charge           Charge          ....    0
 Multiplicity           Mult            ....    1
 Number of Electrons    NEL             ....   36
Dispersion correction           -0.000863662
FINAL SINGLE POINT ENERGY      -231.457437541646
Dispersion correction           -0.000214605
FINAL SINGLE POINT ENERGY      -115.729420911442

CARTESIAN COORDINATES (ANGSTROEM)
---------------------------------
  C      3.051319   10.744531   -1.095731
  O      4.041918    9.795528   -1.066697
  H      3.695005    9.045905   -1.508227
  H      2.823380   11.193484   -2.079917
  H      2.116573   10.257582   -0.937231
  H      3.298022   11.551580   -0.358631
  C      7.139799   11.030505   -4.060761
  O      7.225816   10.885783   -5.419864
  H      7.208605    9.944147   -5.620247
  H      6.095317   10.984809   -3.796295
  H      7.477387   10.165049   -3.499051
  H      7.597012   11.857664   -3.601412

 Multiplicity           Mult            ....    1
 Number of Electrons    NEL             ....   18
 Basis Dimension        Dim             ....  172

ORBITAL ENERGIES
----------------

  NO   OCC          E(Eh)            E(eV)
   0   2.0000     -19.230461      -523.2874
   1   2.0000     -10.301496      -280.3180
   2   2.0000      -1.150473       -31.3060
   3   2.0000      -0.800524       -21.7834
   4   2.0000      -0.625175       -17.0119
   5   2.0000      -0.552904       -15.0453
   6   2.0000      -0.530479       -14.4351
   7   2.0000      -0.432745       -11.7756
   8   2.0000      -0.367030        -9.9874
   9   0.0000       0.081485         2.2173
  10   0.0000       0.114118         3.1053
  11   0.0000       0.151030         4.1097
  12   0.0000       0.169673         4.6170
  13   0.0000       0.186153         5.0655

MULLIKEN ATOMIC CHARGES
-----------------------
   0 C :   -0.000210
   1 O :    0.000029
   2 H :   -0.000058
   3 H :   -0.000136
   4 H :   -0.000012
   5 H :    0.000016
   6 C :   -0.170692
   7 O :   -0.465621
   8 H :    0.321184
   9 H :    0.096792
  10 H :    0.097706
  11 H :    0.121001
Sum of atomic charges:    0.0000000

LOEWDIN ATOMIC CHARGES
----------------------
   0 C :   -0.000543
   1 O :   -0.000203
   2 H :   -0.000089
   3 H :   -0.000196
   4 H :   -0.000008
   5 H :   -0.000008
   6 C :   -0.418689
   7 O :   -0.043939
   8 H :    0.178682
   9 H :    0.093686
  10 H :    0.094602
  11 H :    0.096705

  Mayer bond orders larger than 0.1
B(  6-C ,  7-O ) :   1.0052 B(  6-C ,  9-H ) :   0.9851 B(  6-C , 10-H ) :   0.9855
B(  6-C , 11-H ) :   0.9693 B(  7-O ,  8-H ) :   0.8948

Dispersion correction           -0.000215653
FINAL SINGLE POINT ENERGY      -115.727220501459

DIPOLE MOMENT
-------------
                                X             Y             Z
Electronic contribution:      0.27913       0.11905      -1.91961
Nuclear contribution   :     -0.30879      -0.68918       2.31204
                        -----------------------------------------
Total Dipole Moment    :     -0.02967      -0.57013       0.39243
                        -----------------------------------------
Magnitude (a.u.)       :      0.69277
Magnitude (Debye)      :      1.76088

Rotational constants in cm-1:     4.589618     0.873133     0.836501
Rotational constants in MHz : 137593.299725 26175.878908 25077.656324

                             ****ORCA TERMINATED NORMALLY****
TOTAL RUN TIME: 0 days 0 hours 1 minutes 35 seconds 275 msec
