                         Program Version 4.1.2  - RELEASE  -
|  1> #Run DFT-D3 single point of the dimer
|  2> ! wB97X-D3 def2-TZVP TIGHTSCF CHELPG PMODEL PAL8
|  3>
|  4> %base "9-144_DFT_AB"
|  5>
|  6> %scf
|  7> MaxIter 1000
|  8> end
|  9>
| 10> * xyz 0 1
| 11>   C                      6.522596             -9.160705            -6.076604
| 12>   O                      7.471785             -9.295785            -7.075780
| 13>   H                      8.108140             -8.571411            -7.013238
| 14>   H                      5.930044             -8.265308            -6.293523
| 15>   H                      5.819180             -10.021332           -6.134495
| 16>   H                      6.917140             -9.035215            -5.042595
| 17>   C                      8.927187             -6.153948            -6.651087
| 18>   O                      9.742760             -7.079413            -7.334376
| 19>   H                      10.663905            -6.881292            -7.170989
| 20>   H                      8.980111             -6.173848            -5.565223
| 21>   H                      9.273247             -5.184317            -6.927304
| 22>   H                      7.899191             -6.134945            -6.937249
| 23> *
| 24>
| 25> #Run DFT-D3 single point of the molecule with dimer basis set
| 26> $new_job
| 27> %base "9-144_DFT_A"
| 28> ! wB97X-D3 def2-TZVP TIGHTSCF CHELPG PMODEL
| 29>
| 30> %scf
| 31> MaxIter 1000
| 32> end
| 33>
| 34> * xyz 0 1
| 35>   C                      6.522596             -9.160705            -6.076604
| 36>   O                      7.471785             -9.295785            -7.075780
| 37>   H                      8.108140             -8.571411            -7.013238
| 38>   H                      5.930044             -8.265308            -6.293523
| 39>   H                      5.819180             -10.021332           -6.134495
| 40>   H                      6.917140             -9.035215            -5.042595
| 41>   C                    : 8.927187             -6.153948            -6.651087
| 42>   O                    : 9.742760             -7.079413            -7.334376
| 43>   H                    : 10.663905            -6.881292            -7.170989
| 44>   H                    : 8.980111             -6.173848            -5.565223
| 45>   H                    : 9.273247             -5.184317            -6.927304
| 46>   H                    : 7.899191             -6.134945            -6.937249
| 47> *
| 48>
| 49> #Run DFT-D3 single point of the particle with dimer basis set
| 50> $new_job
| 51> %base "9-144_DFT_B"
| 52> ! wB97X-D3 def2-TZVP TIGHTSCF CHELPG PMODEL
| 53>
| 54> %scf
| 55> MaxIter 1000
| 56> end
| 57>
| 58> * xyz 0 1
| 59>   C                    : 6.522596             -9.160705            -6.076604
| 60>   O                    : 7.471785             -9.295785            -7.075780
| 61>   H                    : 8.108140             -8.571411            -7.013238
| 62>   H                    : 5.930044             -8.265308            -6.293523
| 63>   H                    : 5.819180             -10.021332           -6.134495
| 64>   H                    : 6.917140             -9.035215            -5.042595
| 65>   C                      8.927187             -6.153948            -6.651087
| 66>   O                      9.742760             -7.079413            -7.334376
| 67>   H                      10.663905            -6.881292            -7.170989
| 68>   H                      8.980111             -6.173848            -5.565223
| 69>   H                      9.273247             -5.184317            -6.927304
| 70>   H                      7.899191             -6.134945            -6.937249
| 71> *
| 72>
| 73>                          ****END OF INPUT****
 Total Charge           Charge          ....    0
 Multiplicity           Mult            ....    1
 Number of Electrons    NEL             ....   36
Dispersion correction           -0.001926853
FINAL SINGLE POINT ENERGY      -231.472151520741
Dispersion correction           -0.000234096
FINAL SINGLE POINT ENERGY      -115.735378063283

CARTESIAN COORDINATES (ANGSTROEM)
---------------------------------
  C      6.522596   -9.160705   -6.076604
  O      7.471785   -9.295785   -7.075780
  H      8.108140   -8.571411   -7.013238
  H      5.930044   -8.265308   -6.293523
  H      5.819180  -10.021332   -6.134495
  H      6.917140   -9.035215   -5.042595
  C      8.927187   -6.153948   -6.651087
  O      9.742760   -7.079413   -7.334376
  H     10.663905   -6.881292   -7.170989
  H      8.980111   -6.173848   -5.565223
  H      9.273247   -5.184317   -6.927304
  H      7.899191   -6.134945   -6.937249

 Multiplicity           Mult            ....    1
 Number of Electrons    NEL             ....   18
 Basis Dimension        Dim             ....  172

ORBITAL ENERGIES
----------------

  NO   OCC          E(Eh)            E(eV)
   0   2.0000     -19.229798      -523.2694
   1   2.0000     -10.306554      -280.4556
   2   2.0000      -1.137209       -30.9450
   3   2.0000      -0.803093       -21.8533
   4   2.0000      -0.614975       -16.7343
   5   2.0000      -0.541441       -14.7334
   6   2.0000      -0.535926       -14.5833
   7   2.0000      -0.430810       -11.7229
   8   2.0000      -0.372820       -10.1449
   9   0.0000       0.093582         2.5465
  10   0.0000       0.121415         3.3039
  11   0.0000       0.153953         4.1893
  12   0.0000       0.186403         5.0723
  13   0.0000       0.196248         5.3402

MULLIKEN ATOMIC CHARGES
-----------------------
   0 C :    0.000253
   1 O :   -0.001475
   2 H :   -0.001219
   3 H :   -0.000300
   4 H :    0.000050
   5 H :   -0.000178
   6 C :   -0.173283
   7 O :   -0.475529
   8 H :    0.315379
   9 H :    0.104550
  10 H :    0.104178
  11 H :    0.127574
Sum of atomic charges:    0.0000000

LOEWDIN ATOMIC CHARGES
----------------------
   0 C :   -0.001813
   1 O :   -0.001793
   2 H :   -0.019113
   3 H :   -0.000727
   4 H :   -0.000007
   5 H :   -0.000130
   6 C :   -0.379397
   7 O :   -0.058021
   8 H :    0.167634
   9 H :    0.094277
  10 H :    0.092367
  11 H :    0.106722

  Mayer bond orders larger than 0.1
B(  6-C ,  7-O ) :   0.9872 B(  6-C ,  9-H ) :   0.9719 B(  6-C , 10-H ) :   0.9867
B(  6-C , 11-H ) :   0.9741 B(  7-O ,  8-H ) :   0.8957

Dispersion correction           -0.000236812
FINAL SINGLE POINT ENERGY      -115.731784248487

DIPOLE MOMENT
-------------
                                X             Y             Z
Electronic contribution:      0.87291      -1.39029      -0.91896
Nuclear contribution   :     -0.61422       1.92512       1.27821
                        -----------------------------------------
Total Dipole Moment    :      0.25868       0.53483       0.35924
                        -----------------------------------------
Magnitude (a.u.)       :      0.69427
Magnitude (Debye)      :      1.76470

Rotational constants in cm-1:     4.589246     0.828657     0.800518
Rotational constants in MHz : 137582.139907 24842.504879 23998.911692

                             ****ORCA TERMINATED NORMALLY****
TOTAL RUN TIME: 0 days 0 hours 0 minutes 45 seconds 797 msec
