                         Program Version 4.1.2  - RELEASE  -
|  1> #Run DFT-D3 single point of the dimer
|  2> ! wB97X-D3 def2-TZVP TIGHTSCF CHELPG PMODEL PAL8
|  3>
|  4> %base "5-109_DFT_AB"
|  5>
|  6> %scf
|  7> MaxIter 1000
|  8> end
|  9>
| 10> * xyz 0 1
| 11>   C                      5.879248             6.066946             0.264854
| 12>   O                      4.644750             5.484827             0.033709
| 13>   H                      3.940731             6.087676             0.317555
| 14>   H                      5.948655             7.172369             0.120098
| 15>   H                      6.144315             5.944105             1.290748
| 16>   H                      6.708963             5.622361             -0.348714
| 17>   C                      4.929849             5.519204             -3.312693
| 18>   O                      4.791169             4.298609             -2.691907
| 19>   H                      4.377090             4.461801             -1.862990
| 20>   H                      5.868760             5.594581             -3.957458
| 21>   H                      4.101892             5.726034             -4.045604
| 22>   H                      5.026957             6.366105             -2.589375
| 23> *
| 24>
| 25> #Run DFT-D3 single point of the molecule with dimer basis set
| 26> $new_job
| 27> %base "5-109_DFT_A"
| 28> ! wB97X-D3 def2-TZVP TIGHTSCF CHELPG PMODEL
| 29>
| 30> %scf
| 31> MaxIter 1000
| 32> end
| 33>
| 34> * xyz 0 1
| 35>   C                      5.879248             6.066946             0.264854
| 36>   O                      4.644750             5.484827             0.033709
| 37>   H                      3.940731             6.087676             0.317555
| 38>   H                      5.948655             7.172369             0.120098
| 39>   H                      6.144315             5.944105             1.290748
| 40>   H                      6.708963             5.622361             -0.348714
| 41>   C                    : 4.929849             5.519204             -3.312693
| 42>   O                    : 4.791169             4.298609             -2.691907
| 43>   H                    : 4.377090             4.461801             -1.862990
| 44>   H                    : 5.868760             5.594581             -3.957458
| 45>   H                    : 4.101892             5.726034             -4.045604
| 46>   H                    : 5.026957             6.366105             -2.589375
| 47> *
| 48>
| 49> #Run DFT-D3 single point of the particle with dimer basis set
| 50> $new_job
| 51> %base "5-109_DFT_B"
| 52> ! wB97X-D3 def2-TZVP TIGHTSCF CHELPG PMODEL
| 53>
| 54> %scf
| 55> MaxIter 1000
| 56> end
| 57>
| 58> * xyz 0 1
| 59>   C                    : 5.879248             6.066946             0.264854
| 60>   O                    : 4.644750             5.484827             0.033709
| 61>   H                    : 3.940731             6.087676             0.317555
| 62>   H                    : 5.948655             7.172369             0.120098
| 63>   H                    : 6.144315             5.944105             1.290748
| 64>   H                    : 6.708963             5.622361             -0.348714
| 65>   C                      4.929849             5.519204             -3.312693
| 66>   O                      4.791169             4.298609             -2.691907
| 67>   H                      4.377090             4.461801             -1.862990
| 68>   H                      5.868760             5.594581             -3.957458
| 69>   H                      4.101892             5.726034             -4.045604
| 70>   H                      5.026957             6.366105             -2.589375
| 71> *
| 72>
| 73>                          ****END OF INPUT****
 Total Charge           Charge          ....    0
 Multiplicity           Mult            ....    1
 Number of Electrons    NEL             ....   36
Dispersion correction           -0.002236858
FINAL SINGLE POINT ENERGY      -231.473509347076
Dispersion correction           -0.000244969
FINAL SINGLE POINT ENERGY      -115.733090997912

CARTESIAN COORDINATES (ANGSTROEM)
---------------------------------
  C      5.879248    6.066946    0.264854
  O      4.644750    5.484827    0.033709
  H      3.940731    6.087676    0.317555
  H      5.948655    7.172369    0.120098
  H      6.144315    5.944105    1.290748
  H      6.708963    5.622361   -0.348714
  C      4.929849    5.519204   -3.312693
  O      4.791169    4.298609   -2.691907
  H      4.377090    4.461801   -1.862990
  H      5.868760    5.594581   -3.957458
  H      4.101892    5.726034   -4.045604
  H      5.026957    6.366105   -2.589375

 Multiplicity           Mult            ....    1
 Number of Electrons    NEL             ....   18
 Basis Dimension        Dim             ....  172

ORBITAL ENERGIES
----------------

  NO   OCC          E(Eh)            E(eV)
   0   2.0000     -19.234163      -523.3882
   1   2.0000     -10.321700      -280.8677
   2   2.0000      -1.156475       -31.4693
   3   2.0000      -0.789500       -21.4834
   4   2.0000      -0.621770       -16.9192
   5   2.0000      -0.542200       -14.7540
   6   2.0000      -0.531679       -14.4677
   7   2.0000      -0.430009       -11.7012
   8   2.0000      -0.373367       -10.1598
   9   0.0000       0.070157         1.9091
  10   0.0000       0.135277         3.6811
  11   0.0000       0.145050         3.9470
  12   0.0000       0.167889         4.5685
  13   0.0000       0.185552         5.0491

MULLIKEN ATOMIC CHARGES
-----------------------
   0 C :    0.001222
   1 O :   -0.004185
   2 H :   -0.000269
   3 H :   -0.000677
   4 H :    0.000042
   5 H :   -0.001570
   6 C :   -0.173818
   7 O :   -0.449754
   8 H :    0.316946
   9 H :    0.109391
  10 H :    0.105544
  11 H :    0.097127
Sum of atomic charges:    0.0000000

LOEWDIN ATOMIC CHARGES
----------------------
   0 C :   -0.007792
   1 O :   -0.011542
   2 H :   -0.000745
   3 H :   -0.000600
   4 H :   -0.000060
   5 H :   -0.001543
   6 C :   -0.426269
   7 O :   -0.026927
   8 H :    0.165391
   9 H :    0.111607
  10 H :    0.098674
  11 H :    0.099806

  Mayer bond orders larger than 0.1
B(  6-C ,  7-O ) :   1.0029 B(  6-C ,  9-H ) :   0.9714 B(  6-C , 10-H ) :   0.9783
B(  6-C , 11-H ) :   0.9792 B(  7-O ,  8-H ) :   0.9055

Dispersion correction           -0.000248832
FINAL SINGLE POINT ENERGY      -115.732641953466

DIPOLE MOMENT
-------------
                                X             Y             Z
Electronic contribution:     -0.17838      -1.79591       0.82617
Nuclear contribution   :     -0.02370       2.33686      -0.50671
                        -----------------------------------------
Total Dipole Moment    :     -0.20209       0.54095       0.31946
                        -----------------------------------------
Magnitude (a.u.)       :      0.65994
Magnitude (Debye)      :      1.67743

Rotational constants in cm-1:     4.213624     0.853983     0.824218
Rotational constants in MHz : 126321.277452 25601.777513 24709.442379

                             ****ORCA TERMINATED NORMALLY****
TOTAL RUN TIME: 0 days 0 hours 1 minutes 2 seconds 613 msec
