                         Program Version 4.1.2  - RELEASE  -
|  1> #Run DFT-D3 single point of the dimer
|  2> ! wB97X-D3 def2-TZVP TIGHTSCF CHELPG PMODEL PAL8
|  3>
|  4> %base "14-78_DFT_AB"
|  5>
|  6> %scf
|  7> MaxIter 1000
|  8> end
|  9>
| 10> * xyz 0 1
| 11>   C                      -7.703937            4.864431             7.544231
| 12>   O                      -8.044865            6.226566             7.754114
| 13>   H                      -8.552644            6.657544             7.051836
| 14>   H                      -8.567473            4.275343             7.272627
| 15>   H                      -6.941389            4.675493             6.753926
| 16>   H                      -7.290078            4.411499             8.488377
| 17>   C                      -6.154052            3.958405             3.975718
| 18>   O                      -5.344385            3.991416             5.166101
| 19>   H                      -4.464513            3.618490             4.895154
| 20>   H                      -5.814235            4.644346             3.153076
| 21>   H                      -6.268747            2.967762             3.478861
| 22>   H                      -7.189835            4.229594             4.185290
| 23> *
| 24>
| 25> #Run DFT-D3 single point of the molecule with dimer basis set
| 26> $new_job
| 27> %base "14-78_DFT_A"
| 28> ! wB97X-D3 def2-TZVP TIGHTSCF CHELPG PMODEL
| 29>
| 30> %scf
| 31> MaxIter 1000
| 32> end
| 33>
| 34> * xyz 0 1
| 35>   C                      -7.703937            4.864431             7.544231
| 36>   O                      -8.044865            6.226566             7.754114
| 37>   H                      -8.552644            6.657544             7.051836
| 38>   H                      -8.567473            4.275343             7.272627
| 39>   H                      -6.941389            4.675493             6.753926
| 40>   H                      -7.290078            4.411499             8.488377
| 41>   C                    : -6.154052            3.958405             3.975718
| 42>   O                    : -5.344385            3.991416             5.166101
| 43>   H                    : -4.464513            3.618490             4.895154
| 44>   H                    : -5.814235            4.644346             3.153076
| 45>   H                    : -6.268747            2.967762             3.478861
| 46>   H                    : -7.189835            4.229594             4.185290
| 47> *
| 48>
| 49> #Run DFT-D3 single point of the particle with dimer basis set
| 50> $new_job
| 51> %base "14-78_DFT_B"
| 52> ! wB97X-D3 def2-TZVP TIGHTSCF CHELPG PMODEL
| 53>
| 54> %scf
| 55> MaxIter 1000
| 56> end
| 57>
| 58> * xyz 0 1
| 59>   C                    : -7.703937            4.864431             7.544231
| 60>   O                    : -8.044865            6.226566             7.754114
| 61>   H                    : -8.552644            6.657544             7.051836
| 62>   H                    : -8.567473            4.275343             7.272627
| 63>   H                    : -6.941389            4.675493             6.753926
| 64>   H                    : -7.290078            4.411499             8.488377
| 65>   C                      -6.154052            3.958405             3.975718
| 66>   O                      -5.344385            3.991416             5.166101
| 67>   H                      -4.464513            3.618490             4.895154
| 68>   H                      -5.814235            4.644346             3.153076
| 69>   H                      -6.268747            2.967762             3.478861
| 70>   H                      -7.189835            4.229594             4.185290
| 71> *
| 72>
| 73>                          ****END OF INPUT****
 Total Charge           Charge          ....    0
 Multiplicity           Mult            ....    1
 Number of Electrons    NEL             ....   36
Dispersion correction           -0.001639886
FINAL SINGLE POINT ENERGY      -231.467347874991
Dispersion correction           -0.000279199
FINAL SINGLE POINT ENERGY      -115.733491177453

CARTESIAN COORDINATES (ANGSTROEM)
---------------------------------
  C     -7.703937    4.864431    7.544231
  O     -8.044865    6.226566    7.754114
  H     -8.552644    6.657544    7.051836
  H     -8.567473    4.275343    7.272627
  H     -6.941389    4.675493    6.753926
  H     -7.290078    4.411499    8.488377
  C     -6.154052    3.958405    3.975718
  O     -5.344385    3.991416    5.166101
  H     -4.464513    3.618490    4.895154
  H     -5.814235    4.644346    3.153076
  H     -6.268747    2.967762    3.478861
  H     -7.189835    4.229594    4.185290

 Multiplicity           Mult            ....    1
 Number of Electrons    NEL             ....   18
 Basis Dimension        Dim             ....  172

ORBITAL ENERGIES
----------------

  NO   OCC          E(Eh)            E(eV)
   0   2.0000     -19.240992      -523.5740
   1   2.0000     -10.320305      -280.8298
   2   2.0000      -1.126945       -30.6657
   3   2.0000      -0.792893       -21.5757
   4   2.0000      -0.604537       -16.4503
   5   2.0000      -0.531561       -14.4645
   6   2.0000      -0.522513       -14.2183
   7   2.0000      -0.438793       -11.9402
   8   2.0000      -0.377126       -10.2621
   9   0.0000       0.094708         2.5771
  10   0.0000       0.118458         3.2234
  11   0.0000       0.144835         3.9412
  12   0.0000       0.173763         4.7283
  13   0.0000       0.191639         5.2147

MULLIKEN ATOMIC CHARGES
-----------------------
   0 C :   -0.001384
   1 O :   -0.000003
   2 H :   -0.000017
   3 H :   -0.000158
   4 H :   -0.002860
   5 H :   -0.000218
   6 C :   -0.191073
   7 O :   -0.459017
   8 H :    0.314777
   9 H :    0.107045
  10 H :    0.107170
  11 H :    0.125738
Sum of atomic charges:   -0.0000000

LOEWDIN ATOMIC CHARGES
----------------------
   0 C :   -0.004987
   1 O :   -0.000025
   2 H :   -0.000016
   3 H :   -0.000134
   4 H :   -0.012825
   5 H :   -0.000090
   6 C :   -0.385936
   7 O :   -0.089977
   8 H :    0.188753
   9 H :    0.099620
  10 H :    0.097824
  11 H :    0.107791

  Mayer bond orders larger than 0.1
B(  6-C ,  7-O ) :   1.0061 B(  6-C ,  9-H ) :   0.9700 B(  6-C , 10-H ) :   0.9680
B(  6-C , 11-H ) :   0.9758 B(  7-O ,  8-H ) :   0.8937

Dispersion correction           -0.000281575
FINAL SINGLE POINT ENERGY      -115.732711342990

DIPOLE MOMENT
-------------
                                X             Y             Z
Electronic contribution:      0.99726       0.11707       1.74476
Nuclear contribution   :     -0.79076      -0.36769      -2.37783
                        -----------------------------------------
Total Dipole Moment    :      0.20650      -0.25063      -0.63307
                        -----------------------------------------
Magnitude (a.u.)       :      0.71150
Magnitude (Debye)      :      1.80849

Rotational constants in cm-1:     4.282922     0.790650     0.763020
Rotational constants in MHz : 128398.783879 23703.078653 22874.769635

                             ****ORCA TERMINATED NORMALLY****
TOTAL RUN TIME: 0 days 0 hours 0 minutes 55 seconds 889 msec
