                         Program Version 4.1.2  - RELEASE  -
|  1> #Run DFT-D3 single point of the dimer
|  2> ! wB97X-D3 def2-TZVP TIGHTSCF CHELPG PMODEL PAL8
|  3>
|  4> %base "4-119_DFT_AB"
|  5>
|  6> %scf
|  7> MaxIter 1000
|  8> end
|  9>
| 10> * xyz 0 1
| 11>   C                      3.525039             -9.013006            5.976572
| 12>   O                      4.752287             -9.411188            6.515313
| 13>   H                      4.589304             -9.839890            7.341963
| 14>   H                      2.971183             -8.294431            6.716489
| 15>   H                      3.600566             -8.576698            4.959692
| 16>   H                      2.900982             -9.866116            5.721810
| 17>   C                      3.110129             -9.245183            10.551385
| 18>   O                      3.731565             -9.255811            9.261966
| 19>   H                      4.133934             -8.359812            9.206433
| 20>   H                      2.979121             -8.278599            10.999272
| 21>   H                      2.126853             -9.721099            10.617478
| 22>   H                      3.728925             -9.814413            11.301840
| 23> *
| 24>
| 25> #Run DFT-D3 single point of the molecule with dimer basis set
| 26> $new_job
| 27> %base "4-119_DFT_A"
| 28> ! wB97X-D3 def2-TZVP TIGHTSCF CHELPG PMODEL
| 29>
| 30> %scf
| 31> MaxIter 1000
| 32> end
| 33>
| 34> * xyz 0 1
| 35>   C                      3.525039             -9.013006            5.976572
| 36>   O                      4.752287             -9.411188            6.515313
| 37>   H                      4.589304             -9.839890            7.341963
| 38>   H                      2.971183             -8.294431            6.716489
| 39>   H                      3.600566             -8.576698            4.959692
| 40>   H                      2.900982             -9.866116            5.721810
| 41>   C                    : 3.110129             -9.245183            10.551385
| 42>   O                    : 3.731565             -9.255811            9.261966
| 43>   H                    : 4.133934             -8.359812            9.206433
| 44>   H                    : 2.979121             -8.278599            10.999272
| 45>   H                    : 2.126853             -9.721099            10.617478
| 46>   H                    : 3.728925             -9.814413            11.301840
| 47> *
| 48>
| 49> #Run DFT-D3 single point of the particle with dimer basis set
| 50> $new_job
| 51> %base "4-119_DFT_B"
| 52> ! wB97X-D3 def2-TZVP TIGHTSCF CHELPG PMODEL
| 53>
| 54> %scf
| 55> MaxIter 1000
| 56> end
| 57>
| 58> * xyz 0 1
| 59>   C                    : 3.525039             -9.013006            5.976572
| 60>   O                    : 4.752287             -9.411188            6.515313
| 61>   H                    : 4.589304             -9.839890            7.341963
| 62>   H                    : 2.971183             -8.294431            6.716489
| 63>   H                    : 3.600566             -8.576698            4.959692
| 64>   H                    : 2.900982             -9.866116            5.721810
| 65>   C                      3.110129             -9.245183            10.551385
| 66>   O                      3.731565             -9.255811            9.261966
| 67>   H                      4.133934             -8.359812            9.206433
| 68>   H                      2.979121             -8.278599            10.999272
| 69>   H                      2.126853             -9.721099            10.617478
| 70>   H                      3.728925             -9.814413            11.301840
| 71> *
| 72>
| 73>                          ****END OF INPUT****
 Total Charge           Charge          ....    0
 Multiplicity           Mult            ....    1
 Number of Electrons    NEL             ....   36
Dispersion correction           -0.001746432
FINAL SINGLE POINT ENERGY      -231.468325796011
Dispersion correction           -0.000247679
FINAL SINGLE POINT ENERGY      -115.730499322353

CARTESIAN COORDINATES (ANGSTROEM)
---------------------------------
  C      3.525039   -9.013006    5.976572
  O      4.752287   -9.411188    6.515313
  H      4.589304   -9.839890    7.341963
  H      2.971183   -8.294431    6.716489
  H      3.600566   -8.576698    4.959692
  H      2.900982   -9.866116    5.721810
  C      3.110129   -9.245183   10.551385
  O      3.731565   -9.255811    9.261966
  H      4.133934   -8.359812    9.206433
  H      2.979121   -8.278599   10.999272
  H      2.126853   -9.721099   10.617478
  H      3.728925   -9.814413   11.301840

 Multiplicity           Mult            ....    1
 Number of Electrons    NEL             ....   18
 Basis Dimension        Dim             ....  172

ORBITAL ENERGIES
----------------

  NO   OCC          E(Eh)            E(eV)
   0   2.0000     -19.240237      -523.5535
   1   2.0000     -10.316355      -280.7223
   2   2.0000      -1.132919       -30.8283
   3   2.0000      -0.795080       -21.6352
   4   2.0000      -0.610764       -16.6197
   5   2.0000      -0.531245       -14.4559
   6   2.0000      -0.526175       -14.3180
   7   2.0000      -0.444330       -12.0908
   8   2.0000      -0.374709       -10.1963
   9   0.0000       0.094306         2.5662
  10   0.0000       0.124251         3.3810
  11   0.0000       0.149301         4.0627
  12   0.0000       0.188441         5.1277
  13   0.0000       0.195689         5.3250

MULLIKEN ATOMIC CHARGES
-----------------------
   0 C :    0.005869
   1 O :    0.000489
   2 H :   -0.008622
   3 H :   -0.010390
   4 H :   -0.000451
   5 H :   -0.001237
   6 C :   -0.190984
   7 O :   -0.448770
   8 H :    0.321492
   9 H :    0.111630
  10 H :    0.119650
  11 H :    0.101324
Sum of atomic charges:    0.0000000

LOEWDIN ATOMIC CHARGES
----------------------
   0 C :   -0.008470
   1 O :   -0.003470
   2 H :   -0.021264
   3 H :   -0.006139
   4 H :   -0.000098
   5 H :   -0.000268
   6 C :   -0.386090
   7 O :   -0.064335
   8 H :    0.190863
   9 H :    0.092531
  10 H :    0.104031
  11 H :    0.102709

  Mayer bond orders larger than 0.1
B(  6-C ,  7-O ) :   1.0119 B(  6-C ,  9-H ) :   0.9766 B(  6-C , 10-H ) :   0.9747
B(  6-C , 11-H ) :   0.9764 B(  7-O ,  8-H ) :   0.8933

Dispersion correction           -0.000264922
FINAL SINGLE POINT ENERGY      -115.731363687836

DIPOLE MOMENT
-------------
                                X             Y             Z
Electronic contribution:      0.71762      -0.09255      -1.85150
Nuclear contribution   :     -0.72679       0.68114       2.34054
                        -----------------------------------------
Total Dipole Moment    :     -0.00917       0.58859       0.48903
                        -----------------------------------------
Magnitude (a.u.)       :      0.76530
Magnitude (Debye)      :      1.94523

Rotational constants in cm-1:     4.347957     0.805060     0.775626
Rotational constants in MHz : 130348.484515 24135.079257 23252.694344

                             ****ORCA TERMINATED NORMALLY****
TOTAL RUN TIME: 0 days 0 hours 1 minutes 31 seconds 413 msec
