                         Program Version 4.1.2  - RELEASE  -
|  1> #Run DFT-D3 single point of the dimer
|  2> ! wB97X-D3 def2-TZVP TIGHTSCF CHELPG PMODEL PAL8
|  3>
|  4> %base "19-124_DFT_AB"
|  5>
|  6> %scf
|  7> MaxIter 1000
|  8> end
|  9>
| 10> * xyz 0 1
| 11>   C                      5.736915             6.096399             -5.489844
| 12>   O                      5.154897             4.938208             -6.015251
| 13>   H                      5.492586             4.122501             -5.681083
| 14>   H                      5.357355             6.307799             -4.486453
| 15>   H                      6.834772             6.055645             -5.421734
| 16>   H                      5.315370             6.965713             -6.146136
| 17>   C                      1.958789             7.786652             -8.516235
| 18>   O                      2.687530             7.396123             -7.329947
| 19>   H                      2.140262             7.153206             -6.586185
| 20>   H                      1.182791             8.517347             -8.240774
| 21>   H                      2.628012             8.296971             -9.136527
| 22>   H                      1.555513             6.941600             -9.075943
| 23> *
| 24>
| 25> #Run DFT-D3 single point of the molecule with dimer basis set
| 26> $new_job
| 27> %base "19-124_DFT_A"
| 28> ! wB97X-D3 def2-TZVP TIGHTSCF CHELPG PMODEL
| 29>
| 30> %scf
| 31> MaxIter 1000
| 32> end
| 33>
| 34> * xyz 0 1
| 35>   C                      5.736915             6.096399             -5.489844
| 36>   O                      5.154897             4.938208             -6.015251
| 37>   H                      5.492586             4.122501             -5.681083
| 38>   H                      5.357355             6.307799             -4.486453
| 39>   H                      6.834772             6.055645             -5.421734
| 40>   H                      5.315370             6.965713             -6.146136
| 41>   C                    : 1.958789             7.786652             -8.516235
| 42>   O                    : 2.687530             7.396123             -7.329947
| 43>   H                    : 2.140262             7.153206             -6.586185
| 44>   H                    : 1.182791             8.517347             -8.240774
| 45>   H                    : 2.628012             8.296971             -9.136527
| 46>   H                    : 1.555513             6.941600             -9.075943
| 47> *
| 48>
| 49> #Run DFT-D3 single point of the particle with dimer basis set
| 50> $new_job
| 51> %base "19-124_DFT_B"
| 52> ! wB97X-D3 def2-TZVP TIGHTSCF CHELPG PMODEL
| 53>
| 54> %scf
| 55> MaxIter 1000
| 56> end
| 57>
| 58> * xyz 0 1
| 59>   C                    : 5.736915             6.096399             -5.489844
| 60>   O                    : 5.154897             4.938208             -6.015251
| 61>   H                    : 5.492586             4.122501             -5.681083
| 62>   H                    : 5.357355             6.307799             -4.486453
| 63>   H                    : 6.834772             6.055645             -5.421734
| 64>   H                    : 5.315370             6.965713             -6.146136
| 65>   C                      1.958789             7.786652             -8.516235
| 66>   O                      2.687530             7.396123             -7.329947
| 67>   H                      2.140262             7.153206             -6.586185
| 68>   H                      1.182791             8.517347             -8.240774
| 69>   H                      2.628012             8.296971             -9.136527
| 70>   H                      1.555513             6.941600             -9.075943
| 71> *
| 72>
| 73>                          ****END OF INPUT****
 Total Charge           Charge          ....    0
 Multiplicity           Mult            ....    1
 Number of Electrons    NEL             ....   36
Dispersion correction           -0.001268571
FINAL SINGLE POINT ENERGY      -231.465530935561
Dispersion correction           -0.000259027
FINAL SINGLE POINT ENERGY      -115.731315738782

CARTESIAN COORDINATES (ANGSTROEM)
---------------------------------
  C      5.736915    6.096399   -5.489844
  O      5.154897    4.938208   -6.015251
  H      5.492586    4.122501   -5.681083
  H      5.357355    6.307799   -4.486453
  H      6.834772    6.055645   -5.421734
  H      5.315370    6.965713   -6.146136
  C      1.958789    7.786652   -8.516235
  O      2.687530    7.396123   -7.329947
  H      2.140262    7.153206   -6.586185
  H      1.182791    8.517347   -8.240774
  H      2.628012    8.296971   -9.136527
  H      1.555513    6.941600   -9.075943

 Multiplicity           Mult            ....    1
 Number of Electrons    NEL             ....   18
 Basis Dimension        Dim             ....  172

ORBITAL ENERGIES
----------------

  NO   OCC          E(Eh)            E(eV)
   0   2.0000     -19.225418      -523.1502
   1   2.0000     -10.312021      -280.6044
   2   2.0000      -1.122228       -30.5374
   3   2.0000      -0.804131       -21.8815
   4   2.0000      -0.603702       -16.4276
   5   2.0000      -0.542755       -14.7691
   6   2.0000      -0.529301       -14.4030
   7   2.0000      -0.426081       -11.5943
   8   2.0000      -0.375332       -10.2133
   9   0.0000       0.094422         2.5694
  10   0.0000       0.122511         3.3337
  11   0.0000       0.153211         4.1691
  12   0.0000       0.175602         4.7784
  13   0.0000       0.199444         5.4271

MULLIKEN ATOMIC CHARGES
-----------------------
   0 C :    0.000612
   1 O :   -0.000396
   2 H :   -0.000025
   3 H :   -0.000163
   4 H :   -0.000085
   5 H :   -0.005333
   6 C :   -0.149934
   7 O :   -0.495111
   8 H :    0.315233
   9 H :    0.104409
  10 H :    0.125551
  11 H :    0.105243
Sum of atomic charges:    0.0000000

LOEWDIN ATOMIC CHARGES
----------------------
   0 C :   -0.002869
   1 O :   -0.000695
   2 H :   -0.000038
   3 H :   -0.000056
   4 H :   -0.000022
   5 H :   -0.005359
   6 C :   -0.349093
   7 O :   -0.095607
   8 H :    0.159472
   9 H :    0.100022
  10 H :    0.098011
  11 H :    0.096234

  Mayer bond orders larger than 0.1
B(  6-C ,  7-O ) :   0.9881 B(  6-C ,  9-H ) :   0.9796 B(  6-C , 10-H ) :   0.9761
B(  6-C , 11-H ) :   0.9703 B(  7-O ,  8-H ) :   0.8966

Dispersion correction           -0.000264878
FINAL SINGLE POINT ENERGY      -115.733790404276

DIPOLE MOMENT
-------------
                                X             Y             Z
Electronic contribution:      0.95713      -0.49848       1.33031
Nuclear contribution   :     -1.62942       0.53422      -1.37349
                        -----------------------------------------
Total Dipole Moment    :     -0.67229       0.03574      -0.04318
                        -----------------------------------------
Magnitude (a.u.)       :      0.67463
Magnitude (Debye)      :      1.71477

Rotational constants in cm-1:     4.450427     0.794508     0.777134
Rotational constants in MHz : 133420.455618 23818.758684 23297.888948

                             ****ORCA TERMINATED NORMALLY****
TOTAL RUN TIME: 0 days 0 hours 0 minutes 46 seconds 968 msec
