                         Program Version 4.1.2  - RELEASE  -
|  1> #Run DFT-D3 single point of the dimer
|  2> ! wB97X-D3 def2-TZVP TIGHTSCF CHELPG PMODEL PAL8
|  3>
|  4> %base "13-194_DFT_AB"
|  5>
|  6> %scf
|  7> MaxIter 1000
|  8> end
|  9>
| 10> * xyz 0 1
| 11>   C                      3.491832             5.921540             -1.724368
| 12>   O                      4.824403             6.440656             -1.614964
| 13>   H                      4.836970             7.326476             -2.011523
| 14>   H                      3.471760             5.696661             -2.854899
| 15>   H                      3.418939             5.032817             -1.041004
| 16>   H                      2.725228             6.618922             -1.522611
| 17>   C                      7.133013             9.351744             -3.442943
| 18>   O                      6.083416             8.428329             -3.613483
| 19>   H                      6.059717             8.191707             -4.544615
| 20>   H                      7.063335             10.164188            -4.251506
| 21>   H                      7.025384             9.911702             -2.504174
| 22>   H                      8.140080             8.957841             -3.580131
| 23> *
| 24>
| 25> #Run DFT-D3 single point of the molecule with dimer basis set
| 26> $new_job
| 27> %base "13-194_DFT_A"
| 28> ! wB97X-D3 def2-TZVP TIGHTSCF CHELPG PMODEL
| 29>
| 30> %scf
| 31> MaxIter 1000
| 32> end
| 33>
| 34> * xyz 0 1
| 35>   C                      3.491832             5.921540             -1.724368
| 36>   O                      4.824403             6.440656             -1.614964
| 37>   H                      4.836970             7.326476             -2.011523
| 38>   H                      3.471760             5.696661             -2.854899
| 39>   H                      3.418939             5.032817             -1.041004
| 40>   H                      2.725228             6.618922             -1.522611
| 41>   C                    : 7.133013             9.351744             -3.442943
| 42>   O                    : 6.083416             8.428329             -3.613483
| 43>   H                    : 6.059717             8.191707             -4.544615
| 44>   H                    : 7.063335             10.164188            -4.251506
| 45>   H                    : 7.025384             9.911702             -2.504174
| 46>   H                    : 8.140080             8.957841             -3.580131
| 47> *
| 48>
| 49> #Run DFT-D3 single point of the particle with dimer basis set
| 50> $new_job
| 51> %base "13-194_DFT_B"
| 52> ! wB97X-D3 def2-TZVP TIGHTSCF CHELPG PMODEL
| 53>
| 54> %scf
| 55> MaxIter 1000
| 56> end
| 57>
| 58> * xyz 0 1
| 59>   C                    : 3.491832             5.921540             -1.724368
| 60>   O                    : 4.824403             6.440656             -1.614964
| 61>   H                    : 4.836970             7.326476             -2.011523
| 62>   H                    : 3.471760             5.696661             -2.854899
| 63>   H                    : 3.418939             5.032817             -1.041004
| 64>   H                    : 2.725228             6.618922             -1.522611
| 65>   C                      7.133013             9.351744             -3.442943
| 66>   O                      6.083416             8.428329             -3.613483
| 67>   H                      6.059717             8.191707             -4.544615
| 68>   H                      7.063335             10.164188            -4.251506
| 69>   H                      7.025384             9.911702             -2.504174
| 70>   H                      8.140080             8.957841             -3.580131
| 71> *
| 72>
| 73>                          ****END OF INPUT****
 Total Charge           Charge          ....    0
 Multiplicity           Mult            ....    1
 Number of Electrons    NEL             ....   36
Dispersion correction           -0.001339415
FINAL SINGLE POINT ENERGY      -231.465681131305
Dispersion correction           -0.000228583
FINAL SINGLE POINT ENERGY      -115.727440909077

CARTESIAN COORDINATES (ANGSTROEM)
---------------------------------
  C      3.491832    5.921540   -1.724368
  O      4.824403    6.440656   -1.614964
  H      4.836970    7.326476   -2.011523
  H      3.471760    5.696661   -2.854899
  H      3.418939    5.032817   -1.041004
  H      2.725228    6.618922   -1.522611
  C      7.133013    9.351744   -3.442943
  O      6.083416    8.428329   -3.613483
  H      6.059717    8.191707   -4.544615
  H      7.063335   10.164188   -4.251506
  H      7.025384    9.911702   -2.504174
  H      8.140080    8.957841   -3.580131

 Multiplicity           Mult            ....    1
 Number of Electrons    NEL             ....   18
 Basis Dimension        Dim             ....  172

ORBITAL ENERGIES
----------------

  NO   OCC          E(Eh)            E(eV)
   0   2.0000     -19.233858      -523.3799
   1   2.0000     -10.319462      -280.8068
   2   2.0000      -1.140239       -31.0275
   3   2.0000      -0.792432       -21.5632
   4   2.0000      -0.614669       -16.7260
   5   2.0000      -0.539890       -14.6912
   6   2.0000      -0.526018       -14.3137
   7   2.0000      -0.434283       -11.8174
   8   2.0000      -0.373216       -10.1557
   9   0.0000       0.098225         2.6728
  10   0.0000       0.118203         3.2165
  11   0.0000       0.151935         4.1344
  12   0.0000       0.185800         5.0559
  13   0.0000       0.199810         5.4371

MULLIKEN ATOMIC CHARGES
-----------------------
   0 C :    0.000503
   1 O :   -0.000033
   2 H :   -0.008517
   3 H :   -0.000488
   4 H :   -0.000030
   5 H :   -0.000057
   6 C :   -0.172145
   7 O :   -0.456299
   8 H :    0.314944
   9 H :    0.091435
  10 H :    0.125903
  11 H :    0.104784
Sum of atomic charges:   -0.0000000

LOEWDIN ATOMIC CHARGES
----------------------
   0 C :   -0.000670
   1 O :   -0.003979
   2 H :   -0.019367
   3 H :   -0.000147
   4 H :   -0.000010
   5 H :   -0.000010
   6 C :   -0.397873
   7 O :   -0.052539
   8 H :    0.171757
   9 H :    0.101386
  10 H :    0.109858
  11 H :    0.091595

  Mayer bond orders larger than 0.1
B(  6-C ,  7-O ) :   1.0010 B(  6-C ,  9-H ) :   0.9807 B(  6-C , 10-H ) :   0.9738
B(  6-C , 11-H ) :   0.9647 B(  7-O ,  8-H ) :   0.8964

Dispersion correction           -0.000246680
FINAL SINGLE POINT ENERGY      -115.733639687441

DIPOLE MOMENT
-------------
                                X             Y             Z
Electronic contribution:     -1.37083      -1.35695       0.06315
Nuclear contribution   :      1.75932       1.57464      -0.59042
                        -----------------------------------------
Total Dipole Moment    :      0.38849       0.21769      -0.52728
                        -----------------------------------------
Magnitude (a.u.)       :      0.69017
Magnitude (Debye)      :      1.75428

Rotational constants in cm-1:     4.233026     0.830052     0.797563
Rotational constants in MHz : 126902.926550 24884.328964 23910.338134

                             ****ORCA TERMINATED NORMALLY****
TOTAL RUN TIME: 0 days 0 hours 1 minutes 7 seconds 607 msec
