                         Program Version 4.1.2  - RELEASE  -
|  1> #Run DFT-D3 single point of the dimer
|  2> ! wB97X-D3 def2-TZVP TIGHTSCF CHELPG PMODEL PAL8
|  3>
|  4> %base "16-5_DFT_AB"
|  5>
|  6> %scf
|  7> MaxIter 1000
|  8> end
|  9>
| 10> * xyz 0 1
| 11>   C                      -3.613576            2.949622             3.934506
| 12>   O                      -3.601508            3.698823             5.159507
| 13>   H                      -2.638820            3.713132             5.390762
| 14>   H                      -2.909974            3.467466             3.239017
| 15>   H                      -3.265800            1.935287             3.994618
| 16>   H                      -4.596142            2.930245             3.440482
| 17>   C                      0.073207             3.280420             4.744708
| 18>   O                      -0.777346            4.145417             5.499248
| 19>   H                      -0.465038            4.121903             6.407785
| 20>   H                      1.088714             3.540638             4.926400
| 21>   H                      0.023586             2.303060             5.157050
| 22>   H                      -0.040117            3.339934             3.648191
| 23> *
| 24>
| 25> #Run DFT-D3 single point of the molecule with dimer basis set
| 26> $new_job
| 27> %base "16-5_DFT_A"
| 28> ! wB97X-D3 def2-TZVP TIGHTSCF CHELPG PMODEL
| 29>
| 30> %scf
| 31> MaxIter 1000
| 32> end
| 33>
| 34> * xyz 0 1
| 35>   C                      -3.613576            2.949622             3.934506
| 36>   O                      -3.601508            3.698823             5.159507
| 37>   H                      -2.638820            3.713132             5.390762
| 38>   H                      -2.909974            3.467466             3.239017
| 39>   H                      -3.265800            1.935287             3.994618
| 40>   H                      -4.596142            2.930245             3.440482
| 41>   C                    : 0.073207             3.280420             4.744708
| 42>   O                    : -0.777346            4.145417             5.499248
| 43>   H                    : -0.465038            4.121903             6.407785
| 44>   H                    : 1.088714             3.540638             4.926400
| 45>   H                    : 0.023586             2.303060             5.157050
| 46>   H                    : -0.040117            3.339934             3.648191
| 47> *
| 48>
| 49> #Run DFT-D3 single point of the particle with dimer basis set
| 50> $new_job
| 51> %base "16-5_DFT_B"
| 52> ! wB97X-D3 def2-TZVP TIGHTSCF CHELPG PMODEL
| 53>
| 54> %scf
| 55> MaxIter 1000
| 56> end
| 57>
| 58> * xyz 0 1
| 59>   C                    : -3.613576            2.949622             3.934506
| 60>   O                    : -3.601508            3.698823             5.159507
| 61>   H                    : -2.638820            3.713132             5.390762
| 62>   H                    : -2.909974            3.467466             3.239017
| 63>   H                    : -3.265800            1.935287             3.994618
| 64>   H                    : -4.596142            2.930245             3.440482
| 65>   C                      0.073207             3.280420             4.744708
| 66>   O                      -0.777346            4.145417             5.499248
| 67>   H                      -0.465038            4.121903             6.407785
| 68>   H                      1.088714             3.540638             4.926400
| 69>   H                      0.023586             2.303060             5.157050
| 70>   H                      -0.040117            3.339934             3.648191
| 71> *
| 72>
| 73>                          ****END OF INPUT****
 Total Charge           Charge          ....    0
 Multiplicity           Mult            ....    1
 Number of Electrons    NEL             ....   36
Dispersion correction           -0.002079482
FINAL SINGLE POINT ENERGY      -231.471915773969
Dispersion correction           -0.000238810
FINAL SINGLE POINT ENERGY      -115.732360426441

CARTESIAN COORDINATES (ANGSTROEM)
---------------------------------
  C     -3.613576    2.949622    3.934506
  O     -3.601508    3.698823    5.159507
  H     -2.638820    3.713132    5.390762
  H     -2.909974    3.467466    3.239017
  H     -3.265800    1.935287    3.994618
  H     -4.596142    2.930245    3.440482
  C      0.073207    3.280420    4.744708
  O     -0.777346    4.145417    5.499248
  H     -0.465038    4.121903    6.407785
  H      1.088714    3.540638    4.926400
  H      0.023586    2.303060    5.157050
  H     -0.040117    3.339934    3.648191

 Multiplicity           Mult            ....    1
 Number of Electrons    NEL             ....   18
 Basis Dimension        Dim             ....  172

ORBITAL ENERGIES
----------------

  NO   OCC          E(Eh)            E(eV)
   0   2.0000     -19.229519      -523.2618
   1   2.0000     -10.308912      -280.5198
   2   2.0000      -1.132167       -30.8078
   3   2.0000      -0.800423       -21.7806
   4   2.0000      -0.611729       -16.6460
   5   2.0000      -0.545253       -14.8371
   6   2.0000      -0.525521       -14.3001
   7   2.0000      -0.437917       -11.9163
   8   2.0000      -0.371052       -10.0968
   9   0.0000       0.097018         2.6400
  10   0.0000       0.125796         3.4231
  11   0.0000       0.151876         4.1328
  12   0.0000       0.188252         5.1226
  13   0.0000       0.197074         5.3627

MULLIKEN ATOMIC CHARGES
-----------------------
   0 C :    0.005922
   1 O :    0.000697
   2 H :   -0.016889
   3 H :   -0.001058
   4 H :   -0.000955
   5 H :    0.000034
   6 C :   -0.182272
   7 O :   -0.469920
   8 H :    0.315187
   9 H :    0.107628
  10 H :    0.113009
  11 H :    0.128616
Sum of atomic charges:   -0.0000000

LOEWDIN ATOMIC CHARGES
----------------------
   0 C :   -0.003457
   1 O :   -0.005719
   2 H :   -0.048864
   3 H :   -0.000994
   4 H :   -0.000230
   5 H :   -0.000030
   6 C :   -0.367634
   7 O :   -0.041538
   8 H :    0.170560
   9 H :    0.091787
  10 H :    0.091593
  11 H :    0.114526

  Mayer bond orders larger than 0.1
B(  6-C ,  7-O ) :   0.9716 B(  6-C ,  9-H ) :   0.9770 B(  6-C , 10-H ) :   0.9828
B(  6-C , 11-H ) :   0.9710 B(  7-O ,  8-H ) :   0.8969

Dispersion correction           -0.000222669
FINAL SINGLE POINT ENERGY      -115.730828091316

DIPOLE MOMENT
-------------
                                X             Y             Z
Electronic contribution:     -1.25367       1.10175       0.72346
Nuclear contribution   :      1.84508      -1.46371      -0.45696
                        -----------------------------------------
Total Dipole Moment    :      0.59141      -0.36196       0.26649
                        -----------------------------------------
Magnitude (a.u.)       :      0.74283
Magnitude (Debye)      :      1.88812

Rotational constants in cm-1:     4.432122     0.825982     0.786009
Rotational constants in MHz : 132871.677288 24762.332255 23563.970669

                             ****ORCA TERMINATED NORMALLY****
TOTAL RUN TIME: 0 days 0 hours 1 minutes 9 seconds 79 msec
