                         Program Version 4.1.2  - RELEASE  -
|  1> #Run DFT-D3 single point of the dimer
|  2> ! wB97X-D3 def2-TZVP TIGHTSCF CHELPG PMODEL PAL8
|  3>
|  4> %base "7-165_DFT_AB"
|  5>
|  6> %scf
|  7> MaxIter 1000
|  8> end
|  9>
| 10> * xyz 0 1
| 11>   C                      -2.794217            -0.301711            -3.155988
| 12>   O                      -3.923334            -0.784241            -3.820213
| 13>   H                      -4.707109            -0.830497            -3.193386
| 14>   H                      -1.981174            -0.076518            -3.770836
| 15>   H                      -3.087698            0.587194             -2.615618
| 16>   H                      -2.514014            -0.911451            -2.360211
| 17>   C                      -7.453673            0.976965             -3.183366
| 18>   O                      -6.451320            0.013297             -2.656674
| 19>   H                      -6.002456            0.400927             -1.913924
| 20>   H                      -8.187112            1.278718             -2.413254
| 21>   H                      -6.985537            1.868707             -3.547055
| 22>   H                      -8.053818            0.574105             -4.026436
| 23> *
| 24>
| 25> #Run DFT-D3 single point of the molecule with dimer basis set
| 26> $new_job
| 27> %base "7-165_DFT_A"
| 28> ! wB97X-D3 def2-TZVP TIGHTSCF CHELPG PMODEL
| 29>
| 30> %scf
| 31> MaxIter 1000
| 32> end
| 33>
| 34> * xyz 0 1
| 35>   C                      -2.794217            -0.301711            -3.155988
| 36>   O                      -3.923334            -0.784241            -3.820213
| 37>   H                      -4.707109            -0.830497            -3.193386
| 38>   H                      -1.981174            -0.076518            -3.770836
| 39>   H                      -3.087698            0.587194             -2.615618
| 40>   H                      -2.514014            -0.911451            -2.360211
| 41>   C                    : -7.453673            0.976965             -3.183366
| 42>   O                    : -6.451320            0.013297             -2.656674
| 43>   H                    : -6.002456            0.400927             -1.913924
| 44>   H                    : -8.187112            1.278718             -2.413254
| 45>   H                    : -6.985537            1.868707             -3.547055
| 46>   H                    : -8.053818            0.574105             -4.026436
| 47> *
| 48>
| 49> #Run DFT-D3 single point of the particle with dimer basis set
| 50> $new_job
| 51> %base "7-165_DFT_B"
| 52> ! wB97X-D3 def2-TZVP TIGHTSCF CHELPG PMODEL
| 53>
| 54> %scf
| 55> MaxIter 1000
| 56> end
| 57>
| 58> * xyz 0 1
| 59>   C                    : -2.794217            -0.301711            -3.155988
| 60>   O                    : -3.923334            -0.784241            -3.820213
| 61>   H                    : -4.707109            -0.830497            -3.193386
| 62>   H                    : -1.981174            -0.076518            -3.770836
| 63>   H                    : -3.087698            0.587194             -2.615618
| 64>   H                    : -2.514014            -0.911451            -2.360211
| 65>   C                      -7.453673            0.976965             -3.183366
| 66>   O                      -6.451320            0.013297             -2.656674
| 67>   H                      -6.002456            0.400927             -1.913924
| 68>   H                      -8.187112            1.278718             -2.413254
| 69>   H                      -6.985537            1.868707             -3.547055
| 70>   H                      -8.053818            0.574105             -4.026436
| 71> *
| 72>
| 73>                          ****END OF INPUT****
 Total Charge           Charge          ....    0
 Multiplicity           Mult            ....    1
 Number of Electrons    NEL             ....   36
Dispersion correction           -0.001627490
FINAL SINGLE POINT ENERGY      -231.463590902450
Dispersion correction           -0.000215133
FINAL SINGLE POINT ENERGY      -115.727190952347

CARTESIAN COORDINATES (ANGSTROEM)
---------------------------------
  C     -2.794217   -0.301711   -3.155988
  O     -3.923334   -0.784241   -3.820213
  H     -4.707109   -0.830497   -3.193386
  H     -1.981174   -0.076518   -3.770836
  H     -3.087698    0.587194   -2.615618
  H     -2.514014   -0.911451   -2.360211
  C     -7.453673    0.976965   -3.183366
  O     -6.451320    0.013297   -2.656674
  H     -6.002456    0.400927   -1.913924
  H     -8.187112    1.278718   -2.413254
  H     -6.985537    1.868707   -3.547055
  H     -8.053818    0.574105   -4.026436

 Multiplicity           Mult            ....    1
 Number of Electrons    NEL             ....   18
 Basis Dimension        Dim             ....  172

ORBITAL ENERGIES
----------------

  NO   OCC          E(Eh)            E(eV)
   0   2.0000     -19.231234      -523.3085
   1   2.0000     -10.321402      -280.8596
   2   2.0000      -1.117706       -30.4143
   3   2.0000      -0.801283       -21.8040
   4   2.0000      -0.600042       -16.3280
   5   2.0000      -0.535495       -14.5716
   6   2.0000      -0.521237       -14.1836
   7   2.0000      -0.435896       -11.8613
   8   2.0000      -0.378144       -10.2898
   9   0.0000       0.090423         2.4605
  10   0.0000       0.129264         3.5174
  11   0.0000       0.146780         3.9941
  12   0.0000       0.188180         5.1207
  13   0.0000       0.198095         5.3904

MULLIKEN ATOMIC CHARGES
-----------------------
   0 C :   -0.001138
   1 O :    0.000375
   2 H :   -0.009397
   3 H :   -0.000269
   4 H :   -0.002722
   5 H :    0.000077
   6 C :   -0.181210
   7 O :   -0.476364
   8 H :    0.314103
   9 H :    0.112493
  10 H :    0.115292
  11 H :    0.128761
Sum of atomic charges:   -0.0000000

LOEWDIN ATOMIC CHARGES
----------------------
   0 C :   -0.002610
   1 O :   -0.006866
   2 H :   -0.036375
   3 H :   -0.000045
   4 H :   -0.001256
   5 H :   -0.000035
   6 C :   -0.335619
   7 O :   -0.082682
   8 H :    0.159275
   9 H :    0.100536
  10 H :    0.091630
  11 H :    0.114046

  Mayer bond orders larger than 0.1
B(  6-C ,  7-O ) :   0.9842 B(  6-C ,  9-H ) :   0.9718 B(  6-C , 10-H ) :   0.9727
B(  6-C , 11-H ) :   0.9734 B(  7-O ,  8-H ) :   0.8993

Dispersion correction           -0.000284163
FINAL SINGLE POINT ENERGY      -115.732042716903

DIPOLE MOMENT
-------------
                                X             Y             Z
Electronic contribution:      1.21368      -1.28711       0.53578
Nuclear contribution   :     -1.39063       1.97446      -0.30040
                        -----------------------------------------
Total Dipole Moment    :     -0.17696       0.68735       0.23538
                        -----------------------------------------
Magnitude (a.u.)       :      0.74778
Magnitude (Debye)      :      1.90070

Rotational constants in cm-1:     4.394521     0.756791     0.732464
Rotational constants in MHz : 131744.414245 22688.028741 21958.726584

                             ****ORCA TERMINATED NORMALLY****
TOTAL RUN TIME: 0 days 0 hours 1 minutes 14 seconds 119 msec
