                         Program Version 4.1.2  - RELEASE  -
|  1> #Run DFT-D3 single point of the dimer
|  2> ! wB97X-D3 def2-TZVP TIGHTSCF CHELPG PMODEL PAL8
|  3>
|  4> %base "7-118_DFT_AB"
|  5>
|  6> %scf
|  7> MaxIter 1000
|  8> end
|  9>
| 10> * xyz 0 1
| 11>   C                      8.231847             4.812904             2.218231
| 12>   O                      7.857317             4.358539             3.507066
| 13>   H                      8.511085             3.740002             3.820354
| 14>   H                      9.259510             4.563071             1.868465
| 15>   H                      7.425748             4.418321             1.520043
| 16>   H                      8.132544             5.888729             2.119775
| 17>   C                      7.494727             8.134925             -0.722727
| 18>   O                      8.357593             7.934311             0.404555
| 19>   H                      7.854414             7.635189             1.145632
| 20>   H                      6.762879             8.919248             -0.549559
| 21>   H                      8.154351             8.263676             -1.626165
| 22>   H                      6.913153             7.207974             -0.990278
| 23> *
| 24>
| 25> #Run DFT-D3 single point of the molecule with dimer basis set
| 26> $new_job
| 27> %base "7-118_DFT_A"
| 28> ! wB97X-D3 def2-TZVP TIGHTSCF CHELPG PMODEL
| 29>
| 30> %scf
| 31> MaxIter 1000
| 32> end
| 33>
| 34> * xyz 0 1
| 35>   C                      8.231847             4.812904             2.218231
| 36>   O                      7.857317             4.358539             3.507066
| 37>   H                      8.511085             3.740002             3.820354
| 38>   H                      9.259510             4.563071             1.868465
| 39>   H                      7.425748             4.418321             1.520043
| 40>   H                      8.132544             5.888729             2.119775
| 41>   C                    : 7.494727             8.134925             -0.722727
| 42>   O                    : 8.357593             7.934311             0.404555
| 43>   H                    : 7.854414             7.635189             1.145632
| 44>   H                    : 6.762879             8.919248             -0.549559
| 45>   H                    : 8.154351             8.263676             -1.626165
| 46>   H                    : 6.913153             7.207974             -0.990278
| 47> *
| 48>
| 49> #Run DFT-D3 single point of the particle with dimer basis set
| 50> $new_job
| 51> %base "7-118_DFT_B"
| 52> ! wB97X-D3 def2-TZVP TIGHTSCF CHELPG PMODEL
| 53>
| 54> %scf
| 55> MaxIter 1000
| 56> end
| 57>
| 58> * xyz 0 1
| 59>   C                    : 8.231847             4.812904             2.218231
| 60>   O                    : 7.857317             4.358539             3.507066
| 61>   H                    : 8.511085             3.740002             3.820354
| 62>   H                    : 9.259510             4.563071             1.868465
| 63>   H                    : 7.425748             4.418321             1.520043
| 64>   H                    : 8.132544             5.888729             2.119775
| 65>   C                      7.494727             8.134925             -0.722727
| 66>   O                      8.357593             7.934311             0.404555
| 67>   H                      7.854414             7.635189             1.145632
| 68>   H                      6.762879             8.919248             -0.549559
| 69>   H                      8.154351             8.263676             -1.626165
| 70>   H                      6.913153             7.207974             -0.990278
| 71> *
| 72>
| 73>                          ****END OF INPUT****
 Total Charge           Charge          ....    0
 Multiplicity           Mult            ....    1
 Number of Electrons    NEL             ....   36
Dispersion correction           -0.001485852
FINAL SINGLE POINT ENERGY      -231.466344308887
Dispersion correction           -0.000266412
FINAL SINGLE POINT ENERGY      -115.731874751776

CARTESIAN COORDINATES (ANGSTROEM)
---------------------------------
  C      8.231847    4.812904    2.218231
  O      7.857317    4.358539    3.507066
  H      8.511085    3.740002    3.820354
  H      9.259510    4.563071    1.868465
  H      7.425748    4.418321    1.520043
  H      8.132544    5.888729    2.119775
  C      7.494727    8.134925   -0.722727
  O      8.357593    7.934311    0.404555
  H      7.854414    7.635189    1.145632
  H      6.762879    8.919248   -0.549559
  H      8.154351    8.263676   -1.626165
  H      6.913153    7.207974   -0.990278

 Multiplicity           Mult            ....    1
 Number of Electrons    NEL             ....   18
 Basis Dimension        Dim             ....  172

ORBITAL ENERGIES
----------------

  NO   OCC          E(Eh)            E(eV)
   0   2.0000     -19.230161      -523.2793
   1   2.0000     -10.321745      -280.8690
   2   2.0000      -1.133243       -30.8371
   3   2.0000      -0.794759       -21.6265
   4   2.0000      -0.611229       -16.6324
   5   2.0000      -0.543402       -14.7867
   6   2.0000      -0.515508       -14.0277
   7   2.0000      -0.433547       -11.7974
   8   2.0000      -0.375731       -10.2242
   9   0.0000       0.081633         2.2214
  10   0.0000       0.125881         3.4254
  11   0.0000       0.149647         4.0721
  12   0.0000       0.173078         4.7097
  13   0.0000       0.191786         5.2188

MULLIKEN ATOMIC CHARGES
-----------------------
   0 C :    0.002971
   1 O :   -0.000208
   2 H :   -0.000042
   3 H :   -0.000522
   4 H :   -0.000157
   5 H :   -0.011357
   6 C :   -0.171239
   7 O :   -0.469085
   8 H :    0.311400
   9 H :    0.112498
  10 H :    0.124543
  11 H :    0.101197
Sum of atomic charges:   -0.0000000

LOEWDIN ATOMIC CHARGES
----------------------
   0 C :   -0.005430
   1 O :   -0.000041
   2 H :   -0.000019
   3 H :   -0.000317
   4 H :   -0.000179
   5 H :   -0.008448
   6 C :   -0.376804
   7 O :   -0.075396
   8 H :    0.156893
   9 H :    0.093042
  10 H :    0.117746
  11 H :    0.098954

  Mayer bond orders larger than 0.1
B(  6-C ,  7-O ) :   0.9975 B(  6-C ,  9-H ) :   0.9743 B(  6-C , 10-H ) :   0.9718
B(  6-C , 11-H ) :   0.9708 B(  7-O ,  8-H ) :   0.9024

Dispersion correction           -0.000260196
FINAL SINGLE POINT ENERGY      -115.734196200822

DIPOLE MOMENT
-------------
                                X             Y             Z
Electronic contribution:      1.17793      -0.06714       1.39142
Nuclear contribution   :     -1.85150      -0.04657      -1.39039
                        -----------------------------------------
Total Dipole Moment    :     -0.67356      -0.11370       0.00103
                        -----------------------------------------
Magnitude (a.u.)       :      0.68309
Magnitude (Debye)      :      1.73629

Rotational constants in cm-1:     4.213557     0.808774     0.778944
Rotational constants in MHz : 126319.259640 24246.438160 23352.157280

                             ****ORCA TERMINATED NORMALLY****
TOTAL RUN TIME: 0 days 0 hours 1 minutes 13 seconds 616 msec
