                         Program Version 4.1.2  - RELEASE  -
|  1> #Run DFT-D3 single point of the dimer
|  2> ! wB97X-D3 def2-TZVP TIGHTSCF CHELPG PMODEL PAL8
|  3>
|  4> %base "20-116_DFT_AB"
|  5>
|  6> %scf
|  7> MaxIter 1000
|  8> end
|  9>
| 10> * xyz 0 1
| 11>   C                      9.492134             -4.067995            -5.637031
| 12>   O                      10.793203            -3.694952            -5.312607
| 13>   H                      10.904339            -3.547734            -4.365775
| 14>   H                      9.148676             -3.573289            -6.555278
| 15>   H                      9.361102             -5.168756            -5.751145
| 16>   H                      8.743176             -3.656252            -4.911386
| 17>   C                      9.233327             -0.528763            -4.361532
| 18>   O                      9.761373             -0.754829            -3.092881
| 19>   H                      10.513552            -0.142675            -2.990355
| 20>   H                      8.569565             -1.431907            -4.631356
| 21>   H                      8.690811             0.403372             -4.442943
| 22>   H                      10.105521            -0.462022            -5.026567
| 23> *
| 24>
| 25> #Run DFT-D3 single point of the molecule with dimer basis set
| 26> $new_job
| 27> %base "20-116_DFT_A"
| 28> ! wB97X-D3 def2-TZVP TIGHTSCF CHELPG PMODEL
| 29>
| 30> %scf
| 31> MaxIter 1000
| 32> end
| 33>
| 34> * xyz 0 1
| 35>   C                      9.492134             -4.067995            -5.637031
| 36>   O                      10.793203            -3.694952            -5.312607
| 37>   H                      10.904339            -3.547734            -4.365775
| 38>   H                      9.148676             -3.573289            -6.555278
| 39>   H                      9.361102             -5.168756            -5.751145
| 40>   H                      8.743176             -3.656252            -4.911386
| 41>   C                    : 9.233327             -0.528763            -4.361532
| 42>   O                    : 9.761373             -0.754829            -3.092881
| 43>   H                    : 10.513552            -0.142675            -2.990355
| 44>   H                    : 8.569565             -1.431907            -4.631356
| 45>   H                    : 8.690811             0.403372             -4.442943
| 46>   H                    : 10.105521            -0.462022            -5.026567
| 47> *
| 48>
| 49> #Run DFT-D3 single point of the particle with dimer basis set
| 50> $new_job
| 51> %base "20-116_DFT_B"
| 52> ! wB97X-D3 def2-TZVP TIGHTSCF CHELPG PMODEL
| 53>
| 54> %scf
| 55> MaxIter 1000
| 56> end
| 57>
| 58> * xyz 0 1
| 59>   C                    : 9.492134             -4.067995            -5.637031
| 60>   O                    : 10.793203            -3.694952            -5.312607
| 61>   H                    : 10.904339            -3.547734            -4.365775
| 62>   H                    : 9.148676             -3.573289            -6.555278
| 63>   H                    : 9.361102             -5.168756            -5.751145
| 64>   H                    : 8.743176             -3.656252            -4.911386
| 65>   C                      9.233327             -0.528763            -4.361532
| 66>   O                      9.761373             -0.754829            -3.092881
| 67>   H                      10.513552            -0.142675            -2.990355
| 68>   H                      8.569565             -1.431907            -4.631356
| 69>   H                      8.690811             0.403372             -4.442943
| 70>   H                      10.105521            -0.462022            -5.026567
| 71> *
| 72>
| 73>                          ****END OF INPUT****
 Total Charge           Charge          ....    0
 Multiplicity           Mult            ....    1
 Number of Electrons    NEL             ....   36
Dispersion correction           -0.002031697
FINAL SINGLE POINT ENERGY      -231.468940660779
Dispersion correction           -0.000260033
FINAL SINGLE POINT ENERGY      -115.734011559031

CARTESIAN COORDINATES (ANGSTROEM)
---------------------------------
  C      9.492134   -4.067995   -5.637031
  O     10.793203   -3.694952   -5.312607
  H     10.904339   -3.547734   -4.365775
  H      9.148676   -3.573289   -6.555278
  H      9.361102   -5.168756   -5.751145
  H      8.743176   -3.656252   -4.911386
  C      9.233327   -0.528763   -4.361532
  O      9.761373   -0.754829   -3.092881
  H     10.513552   -0.142675   -2.990355
  H      8.569565   -1.431907   -4.631356
  H      8.690811    0.403372   -4.442943
  H     10.105521   -0.462022   -5.026567

 Multiplicity           Mult            ....    1
 Number of Electrons    NEL             ....   18
 Basis Dimension        Dim             ....  172

ORBITAL ENERGIES
----------------

  NO   OCC          E(Eh)            E(eV)
   0   2.0000     -19.229587      -523.2637
   1   2.0000     -10.316344      -280.7220
   2   2.0000      -1.141431       -31.0599
   3   2.0000      -0.786571       -21.4037
   4   2.0000      -0.614193       -16.7130
   5   2.0000      -0.546288       -14.8653
   6   2.0000      -0.523980       -14.2582
   7   2.0000      -0.430754       -11.7214
   8   2.0000      -0.370201       -10.0737
   9   0.0000       0.089157         2.4261
  10   0.0000       0.115079         3.1315
  11   0.0000       0.158330         4.3084
  12   0.0000       0.172320         4.6891
  13   0.0000       0.185444         5.0462

MULLIKEN ATOMIC CHARGES
-----------------------
   0 C :   -0.003236
   1 O :    0.000849
   2 H :   -0.002088
   3 H :   -0.000073
   4 H :    0.000040
   5 H :    0.002401
   6 C :   -0.163690
   7 O :   -0.470357
   8 H :    0.314796
   9 H :    0.117952
  10 H :    0.106369
  11 H :    0.097038
Sum of atomic charges:    0.0000000

LOEWDIN ATOMIC CHARGES
----------------------
   0 C :   -0.006144
   1 O :   -0.000389
   2 H :   -0.002240
   3 H :   -0.000725
   4 H :   -0.000030
   5 H :   -0.004587
   6 C :   -0.404606
   7 O :   -0.071084
   8 H :    0.179405
   9 H :    0.125292
  10 H :    0.089174
  11 H :    0.095934

  Mayer bond orders larger than 0.1
B(  6-C ,  7-O ) :   0.9956 B(  6-C ,  9-H ) :   0.9705 B(  6-C , 10-H ) :   0.9648
B(  6-C , 11-H ) :   0.9946 B(  7-O ,  8-H ) :   0.8970

Dispersion correction           -0.000218712
FINAL SINGLE POINT ENERGY      -115.731939944091

DIPOLE MOMENT
-------------
                                X             Y             Z
Electronic contribution:      0.49393      -0.33708       1.66479
Nuclear contribution   :     -0.21002       0.81685      -2.07687
                        -----------------------------------------
Total Dipole Moment    :      0.28391       0.47977      -0.41208
                        -----------------------------------------
Magnitude (a.u.)       :      0.69325
Magnitude (Debye)      :      1.76210

Rotational constants in cm-1:     4.073970     0.864318     0.821366
Rotational constants in MHz : 122134.553405 25911.610853 24623.925059

                             ****ORCA TERMINATED NORMALLY****
TOTAL RUN TIME: 0 days 0 hours 1 minutes 5 seconds 966 msec
