                         Program Version 4.1.2  - RELEASE  -
|  1> #Run DFT-D3 single point of the dimer
|  2> ! wB97X-D3 def2-TZVP TIGHTSCF CHELPG PMODEL PAL8
|  3>
|  4> %base "4-134_DFT_AB"
|  5>
|  6> %scf
|  7> MaxIter 1000
|  8> end
|  9>
| 10> * xyz 0 1
| 11>   C                      2.765020             -4.179074            5.805482
| 12>   O                      3.311683             -5.446056            6.177687
| 13>   H                      3.331339             -5.364676            7.148464
| 14>   H                      2.715584             -4.021929            4.701500
| 15>   H                      1.758848             -4.116859            6.285104
| 16>   H                      3.338024             -3.374553            6.326295
| 17>   C                      0.326346             -7.849366            4.907157
| 18>   O                      0.905791             -6.751774            4.223884
| 19>   H                      1.663626             -6.322167            4.710736
| 20>   H                      0.423714             -8.748136            4.252815
| 21>   H                      0.760862             -7.984091            5.887132
| 22>   H                      -0.774862            -7.694248            4.986652
| 23> *
| 24>
| 25> #Run DFT-D3 single point of the molecule with dimer basis set
| 26> $new_job
| 27> %base "4-134_DFT_A"
| 28> ! wB97X-D3 def2-TZVP TIGHTSCF CHELPG PMODEL
| 29>
| 30> %scf
| 31> MaxIter 1000
| 32> end
| 33>
| 34> * xyz 0 1
| 35>   C                      2.765020             -4.179074            5.805482
| 36>   O                      3.311683             -5.446056            6.177687
| 37>   H                      3.331339             -5.364676            7.148464
| 38>   H                      2.715584             -4.021929            4.701500
| 39>   H                      1.758848             -4.116859            6.285104
| 40>   H                      3.338024             -3.374553            6.326295
| 41>   C                    : 0.326346             -7.849366            4.907157
| 42>   O                    : 0.905791             -6.751774            4.223884
| 43>   H                    : 1.663626             -6.322167            4.710736
| 44>   H                    : 0.423714             -8.748136            4.252815
| 45>   H                    : 0.760862             -7.984091            5.887132
| 46>   H                    : -0.774862            -7.694248            4.986652
| 47> *
| 48>
| 49> #Run DFT-D3 single point of the particle with dimer basis set
| 50> $new_job
| 51> %base "4-134_DFT_B"
| 52> ! wB97X-D3 def2-TZVP TIGHTSCF CHELPG PMODEL
| 53>
| 54> %scf
| 55> MaxIter 1000
| 56> end
| 57>
| 58> * xyz 0 1
| 59>   C                    : 2.765020             -4.179074            5.805482
| 60>   O                    : 3.311683             -5.446056            6.177687
| 61>   H                    : 3.331339             -5.364676            7.148464
| 62>   H                    : 2.715584             -4.021929            4.701500
| 63>   H                    : 1.758848             -4.116859            6.285104
| 64>   H                    : 3.338024             -3.374553            6.326295
| 65>   C                      0.326346             -7.849366            4.907157
| 66>   O                      0.905791             -6.751774            4.223884
| 67>   H                      1.663626             -6.322167            4.710736
| 68>   H                      0.423714             -8.748136            4.252815
| 69>   H                      0.760862             -7.984091            5.887132
| 70>   H                      -0.774862            -7.694248            4.986652
| 71> *
| 72>
| 73>                          ****END OF INPUT****
 Total Charge           Charge          ....    0
 Multiplicity           Mult            ....    1
 Number of Electrons    NEL             ....   36
Dispersion correction           -0.001700221
FINAL SINGLE POINT ENERGY      -231.469320288973
Dispersion correction           -0.000218761
FINAL SINGLE POINT ENERGY      -115.731238154410

CARTESIAN COORDINATES (ANGSTROEM)
---------------------------------
  C      2.765020   -4.179074    5.805482
  O      3.311683   -5.446056    6.177687
  H      3.331339   -5.364676    7.148464
  H      2.715584   -4.021929    4.701500
  H      1.758848   -4.116859    6.285104
  H      3.338024   -3.374553    6.326295
  C      0.326346   -7.849366    4.907157
  O      0.905791   -6.751774    4.223884
  H      1.663626   -6.322167    4.710736
  H      0.423714   -8.748136    4.252815
  H      0.760862   -7.984091    5.887132
  H     -0.774862   -7.694248    4.986652

 Multiplicity           Mult            ....    1
 Number of Electrons    NEL             ....   18
 Basis Dimension        Dim             ....  172

ORBITAL ENERGIES
----------------

  NO   OCC          E(Eh)            E(eV)
   0   2.0000     -19.229500      -523.2613
   1   2.0000     -10.316546      -280.7275
   2   2.0000      -1.124100       -30.5883
   3   2.0000      -0.791517       -21.5383
   4   2.0000      -0.607801       -16.5391
   5   2.0000      -0.533249       -14.5105
   6   2.0000      -0.529440       -14.4068
   7   2.0000      -0.428995       -11.6736
   8   2.0000      -0.366553        -9.9744
   9   0.0000       0.067925         1.8483
  10   0.0000       0.132960         3.6180
  11   0.0000       0.148266         4.0345
  12   0.0000       0.164005         4.4628
  13   0.0000       0.190545         5.1850

MULLIKEN ATOMIC CHARGES
-----------------------
   0 C :   -0.005176
   1 O :   -0.000664
   2 H :    0.000007
   3 H :    0.000775
   4 H :   -0.000664
   5 H :   -0.000239
   6 C :   -0.152973
   7 O :   -0.486765
   8 H :    0.318417
   9 H :    0.109541
  10 H :    0.107787
  11 H :    0.109955
Sum of atomic charges:    0.0000000

LOEWDIN ATOMIC CHARGES
----------------------
   0 C :   -0.009577
   1 O :   -0.005232
   2 H :   -0.000263
   3 H :   -0.001087
   4 H :   -0.001393
   5 H :   -0.000154
   6 C :   -0.383626
   7 O :   -0.095291
   8 H :    0.193444
   9 H :    0.104625
  10 H :    0.093799
  11 H :    0.104754

  Mayer bond orders larger than 0.1
B(  6-C ,  7-O ) :   0.9947 B(  6-C ,  9-H ) :   0.9788 B(  6-C , 10-H ) :   0.9784
B(  6-C , 11-H ) :   0.9723 B(  7-O ,  8-H ) :   0.8949

Dispersion correction           -0.000260036
FINAL SINGLE POINT ENERGY      -115.732403923304

DIPOLE MOMENT
-------------
                                X             Y             Z
Electronic contribution:      0.70400       1.34386      -0.84054
Nuclear contribution   :     -0.45200      -1.51670       1.44631
                        -----------------------------------------
Total Dipole Moment    :      0.25200      -0.17285       0.60577
                        -----------------------------------------
Magnitude (a.u.)       :      0.67848
Magnitude (Debye)      :      1.72457

Rotational constants in cm-1:     4.206017     0.824253     0.789769
Rotational constants in MHz : 126093.204244 24710.486174 23676.671584

                             ****ORCA TERMINATED NORMALLY****
TOTAL RUN TIME: 0 days 0 hours 1 minutes 29 seconds 543 msec
