                         Program Version 4.1.2  - RELEASE  -
|  1> #Run DFT-D3 single point of the dimer
|  2> ! wB97X-D3 def2-TZVP TIGHTSCF CHELPG PMODEL PAL8
|  3>
|  4> %base "4-148_DFT_AB"
|  5>
|  6> %scf
|  7> MaxIter 1000
|  8> end
|  9>
| 10> * xyz 0 1
| 11>   C                      -5.506058            -1.317867            -8.266987
| 12>   O                      -6.144623            -0.197786            -7.648836
| 13>   H                      -6.625206            0.214050             -8.380967
| 14>   H                      -6.295067            -1.864258            -8.774842
| 15>   H                      -4.853261            -0.980029            -9.058349
| 16>   H                      -4.979811            -1.980948            -7.508206
| 17>   C                      -5.627436            2.843415             -9.896232
| 18>   O                      -4.473519            3.478313             -9.440908
| 19>   H                      -4.272801            3.089341             -8.579657
| 20>   H                      -6.004657            3.140295             -10.907771
| 21>   H                      -5.486322            1.728012             -9.944384
| 22>   H                      -6.470970            3.073968             -9.297097
| 23> *
| 24>
| 25> #Run DFT-D3 single point of the molecule with dimer basis set
| 26> $new_job
| 27> %base "4-148_DFT_A"
| 28> ! wB97X-D3 def2-TZVP TIGHTSCF CHELPG PMODEL
| 29>
| 30> %scf
| 31> MaxIter 1000
| 32> end
| 33>
| 34> * xyz 0 1
| 35>   C                      -5.506058            -1.317867            -8.266987
| 36>   O                      -6.144623            -0.197786            -7.648836
| 37>   H                      -6.625206            0.214050             -8.380967
| 38>   H                      -6.295067            -1.864258            -8.774842
| 39>   H                      -4.853261            -0.980029            -9.058349
| 40>   H                      -4.979811            -1.980948            -7.508206
| 41>   C                    : -5.627436            2.843415             -9.896232
| 42>   O                    : -4.473519            3.478313             -9.440908
| 43>   H                    : -4.272801            3.089341             -8.579657
| 44>   H                    : -6.004657            3.140295             -10.907771
| 45>   H                    : -5.486322            1.728012             -9.944384
| 46>   H                    : -6.470970            3.073968             -9.297097
| 47> *
| 48>
| 49> #Run DFT-D3 single point of the particle with dimer basis set
| 50> $new_job
| 51> %base "4-148_DFT_B"
| 52> ! wB97X-D3 def2-TZVP TIGHTSCF CHELPG PMODEL
| 53>
| 54> %scf
| 55> MaxIter 1000
| 56> end
| 57>
| 58> * xyz 0 1
| 59>   C                    : -5.506058            -1.317867            -8.266987
| 60>   O                    : -6.144623            -0.197786            -7.648836
| 61>   H                    : -6.625206            0.214050             -8.380967
| 62>   H                    : -6.295067            -1.864258            -8.774842
| 63>   H                    : -4.853261            -0.980029            -9.058349
| 64>   H                    : -4.979811            -1.980948            -7.508206
| 65>   C                      -5.627436            2.843415             -9.896232
| 66>   O                      -4.473519            3.478313             -9.440908
| 67>   H                      -4.272801            3.089341             -8.579657
| 68>   H                      -6.004657            3.140295             -10.907771
| 69>   H                      -5.486322            1.728012             -9.944384
| 70>   H                      -6.470970            3.073968             -9.297097
| 71> *
| 72>
| 73>                          ****END OF INPUT****
 Total Charge           Charge          ....    0
 Multiplicity           Mult            ....    1
 Number of Electrons    NEL             ....   36
Dispersion correction           -0.001538630
FINAL SINGLE POINT ENERGY      -231.465816584254
Dispersion correction           -0.000216502
FINAL SINGLE POINT ENERGY      -115.732385170347

CARTESIAN COORDINATES (ANGSTROEM)
---------------------------------
  C     -5.506058   -1.317867   -8.266987
  O     -6.144623   -0.197786   -7.648836
  H     -6.625206    0.214050   -8.380967
  H     -6.295067   -1.864258   -8.774842
  H     -4.853261   -0.980029   -9.058349
  H     -4.979811   -1.980948   -7.508206
  C     -5.627436    2.843415   -9.896232
  O     -4.473519    3.478313   -9.440908
  H     -4.272801    3.089341   -8.579657
  H     -6.004657    3.140295  -10.907771
  H     -5.486322    1.728012   -9.944384
  H     -6.470970    3.073968   -9.297097

 Multiplicity           Mult            ....    1
 Number of Electrons    NEL             ....   18
 Basis Dimension        Dim             ....  172

ORBITAL ENERGIES
----------------

  NO   OCC          E(Eh)            E(eV)
   0   2.0000     -19.233595      -523.3727
   1   2.0000     -10.313972      -280.6574
   2   2.0000      -1.143953       -31.1285
   3   2.0000      -0.793665       -21.5967
   4   2.0000      -0.613301       -16.6888
   5   2.0000      -0.547462       -14.8972
   6   2.0000      -0.530494       -14.4355
   7   2.0000      -0.426848       -11.6151
   8   2.0000      -0.374529       -10.1914
   9   0.0000       0.078901         2.1470
  10   0.0000       0.120331         3.2744
  11   0.0000       0.147930         4.0254
  12   0.0000       0.172482         4.6935
  13   0.0000       0.184023         5.0075

MULLIKEN ATOMIC CHARGES
-----------------------
   0 C :    0.000351
   1 O :    0.000526
   2 H :   -0.002623
   3 H :   -0.000002
   4 H :    0.000081
   5 H :   -0.000023
   6 C :   -0.170477
   7 O :   -0.466795
   8 H :    0.320427
   9 H :    0.111499
  10 H :    0.100724
  11 H :    0.106311
Sum of atomic charges:   -0.0000000

LOEWDIN ATOMIC CHARGES
----------------------
   0 C :   -0.001503
   1 O :   -0.000679
   2 H :   -0.004647
   3 H :   -0.000017
   4 H :   -0.000930
   5 H :   -0.000014
   6 C :   -0.409025
   7 O :   -0.063158
   8 H :    0.178351
   9 H :    0.112683
  10 H :    0.102008
  11 H :    0.086930

  Mayer bond orders larger than 0.1
B(  6-C ,  7-O ) :   1.0014 B(  6-C ,  9-H ) :   0.9690 B(  6-C , 10-H ) :   0.9807
B(  6-C , 11-H ) :   0.9769 B(  7-O ,  8-H ) :   0.8942

Dispersion correction           -0.000236206
FINAL SINGLE POINT ENERGY      -115.731718802134

DIPOLE MOMENT
-------------
                                X             Y             Z
Electronic contribution:      1.59905       1.00017       0.51604
Nuclear contribution   :     -1.92824      -1.46531      -0.14816
                        -----------------------------------------
Total Dipole Moment    :     -0.32919      -0.46515       0.36788
                        -----------------------------------------
Magnitude (a.u.)       :      0.67828
Magnitude (Debye)      :      1.72404

Rotational constants in cm-1:     4.365019     0.839547     0.810980
Rotational constants in MHz : 130859.981511 25168.981923 24312.560140

                             ****ORCA TERMINATED NORMALLY****
TOTAL RUN TIME: 0 days 0 hours 1 minutes 35 seconds 786 msec
