                         Program Version 4.1.2  - RELEASE  -
|  1> #Run DFT-D3 single point of the dimer
|  2> ! wB97X-D3 def2-TZVP TIGHTSCF CHELPG PMODEL PAL8
|  3>
|  4> %base "9-128_DFT_AB"
|  5>
|  6> %scf
|  7> MaxIter 1000
|  8> end
|  9>
| 10> * xyz 0 1
| 11>   C                      -1.356228            -0.340846            0.709262
| 12>   O                      -0.810618            -0.266674            -0.606625
| 13>   H                      -1.477171            -0.764683            -1.013376
| 14>   H                      -0.663269            0.163702             1.446102
| 15>   H                      -2.321533            0.255748             0.727861
| 16>   H                      -1.548935            -1.338380            1.075579
| 17>   C                      -3.851081            -1.093824            -2.794576
| 18>   O                      -3.060111            -1.624212            -1.694422
| 19>   H                      -3.039155            -2.578958            -1.755241
| 20>   H                      -3.759878            -0.027850            -2.916973
| 21>   H                      -3.478767            -1.509491            -3.727089
| 22>   H                      -4.876227            -1.432638            -2.692189
| 23> *
| 24>
| 25> #Run DFT-D3 single point of the molecule with dimer basis set
| 26> $new_job
| 27> %base "9-128_DFT_A"
| 28> ! wB97X-D3 def2-TZVP TIGHTSCF CHELPG PMODEL
| 29>
| 30> %scf
| 31> MaxIter 1000
| 32> end
| 33>
| 34> * xyz 0 1
| 35>   C                      -1.356228            -0.340846            0.709262
| 36>   O                      -0.810618            -0.266674            -0.606625
| 37>   H                      -1.477171            -0.764683            -1.013376
| 38>   H                      -0.663269            0.163702             1.446102
| 39>   H                      -2.321533            0.255748             0.727861
| 40>   H                      -1.548935            -1.338380            1.075579
| 41>   C                    : -3.851081            -1.093824            -2.794576
| 42>   O                    : -3.060111            -1.624212            -1.694422
| 43>   H                    : -3.039155            -2.578958            -1.755241
| 44>   H                    : -3.759878            -0.027850            -2.916973
| 45>   H                    : -3.478767            -1.509491            -3.727089
| 46>   H                    : -4.876227            -1.432638            -2.692189
| 47> *
| 48>
| 49> #Run DFT-D3 single point of the particle with dimer basis set
| 50> $new_job
| 51> %base "9-128_DFT_B"
| 52> ! wB97X-D3 def2-TZVP TIGHTSCF CHELPG PMODEL
| 53>
| 54> %scf
| 55> MaxIter 1000
| 56> end
| 57>
| 58> * xyz 0 1
| 59>   C                    : -1.356228            -0.340846            0.709262
| 60>   O                    : -0.810618            -0.266674            -0.606625
| 61>   H                    : -1.477171            -0.764683            -1.013376
| 62>   H                    : -0.663269            0.163702             1.446102
| 63>   H                    : -2.321533            0.255748             0.727861
| 64>   H                    : -1.548935            -1.338380            1.075579
| 65>   C                      -3.851081            -1.093824            -2.794576
| 66>   O                      -3.060111            -1.624212            -1.694422
| 67>   H                      -3.039155            -2.578958            -1.755241
| 68>   H                      -3.759878            -0.027850            -2.916973
| 69>   H                      -3.478767            -1.509491            -3.727089
| 70>   H                      -4.876227            -1.432638            -2.692189
| 71> *
| 72>
| 73>                          ****END OF INPUT****
 Total Charge           Charge          ....    0
 Multiplicity           Mult            ....    1
 Number of Electrons    NEL             ....   36
Dispersion correction           -0.001850731
FINAL SINGLE POINT ENERGY      -231.472514697844
Dispersion correction           -0.000222809
FINAL SINGLE POINT ENERGY      -115.729358434170

CARTESIAN COORDINATES (ANGSTROEM)
---------------------------------
  C     -1.356228   -0.340846    0.709262
  O     -0.810618   -0.266674   -0.606625
  H     -1.477171   -0.764683   -1.013376
  H     -0.663269    0.163702    1.446102
  H     -2.321533    0.255748    0.727861
  H     -1.548935   -1.338380    1.075579
  C     -3.851081   -1.093824   -2.794576
  O     -3.060111   -1.624212   -1.694422
  H     -3.039155   -2.578958   -1.755241
  H     -3.759878   -0.027850   -2.916973
  H     -3.478767   -1.509491   -3.727089
  H     -4.876227   -1.432638   -2.692189

 Multiplicity           Mult            ....    1
 Number of Electrons    NEL             ....   18
 Basis Dimension        Dim             ....  172

ORBITAL ENERGIES
----------------

  NO   OCC          E(Eh)            E(eV)
   0   2.0000     -19.228109      -523.2234
   1   2.0000     -10.314435      -280.6701
   2   2.0000      -1.123450       -30.5706
   3   2.0000      -0.800987       -21.7960
   4   2.0000      -0.603359       -16.4182
   5   2.0000      -0.543614       -14.7925
   6   2.0000      -0.526119       -14.3164
   7   2.0000      -0.434269       -11.8171
   8   2.0000      -0.373567       -10.1653
   9   0.0000       0.100632         2.7383
  10   0.0000       0.128761         3.5038
  11   0.0000       0.151317         4.1175
  12   0.0000       0.190784         5.1915
  13   0.0000       0.202183         5.5017

MULLIKEN ATOMIC CHARGES
-----------------------
   0 C :    0.011191
   1 O :   -0.000646
   2 H :   -0.015850
   3 H :   -0.000261
   4 H :   -0.004188
   5 H :   -0.003860
   6 C :   -0.159664
   7 O :   -0.482439
   8 H :    0.312871
   9 H :    0.131060
  10 H :    0.101124
  11 H :    0.110662
Sum of atomic charges:    0.0000000

LOEWDIN ATOMIC CHARGES
----------------------
   0 C :   -0.009936
   1 O :   -0.005810
   2 H :   -0.044296
   3 H :   -0.000107
   4 H :   -0.001521
   5 H :   -0.001369
   6 C :   -0.344774
   7 O :   -0.054604
   8 H :    0.163301
   9 H :    0.106752
  10 H :    0.095337
  11 H :    0.097028

  Mayer bond orders larger than 0.1
B(  6-C ,  7-O ) :   0.9750 B(  6-C ,  9-H ) :   0.9733 B(  6-C , 10-H ) :   0.9806
B(  6-C , 11-H ) :   0.9737 B(  7-O ,  8-H ) :   0.8985

Dispersion correction           -0.000244176
FINAL SINGLE POINT ENERGY      -115.733932503471

DIPOLE MOMENT
-------------
                                X             Y             Z
Electronic contribution:      0.94295      -0.40743       1.44426
Nuclear contribution   :     -1.27109       0.02792      -1.98214
                        -----------------------------------------
Total Dipole Moment    :     -0.32813      -0.37952      -0.53788
                        -----------------------------------------
Magnitude (a.u.)       :      0.73554
Magnitude (Debye)      :      1.86960

Rotational constants in cm-1:     4.378290     0.794863     0.767316
Rotational constants in MHz : 131257.820699 23829.379796 23003.564175

                             ****ORCA TERMINATED NORMALLY****
TOTAL RUN TIME: 0 days 0 hours 0 minutes 46 seconds 517 msec
