                         Program Version 4.1.2  - RELEASE  -
|  1> #Run DFT-D3 single point of the dimer
|  2> ! wB97X-D3 def2-TZVP TIGHTSCF CHELPG PMODEL PAL8
|  3>
|  4> %base "21-154_DFT_AB"
|  5>
|  6> %scf
|  7> MaxIter 1000
|  8> end
|  9>
| 10> * xyz 0 1
| 11>   C                      5.398878             -5.549373            -9.768657
| 12>   O                      6.151562             -4.934993            -8.756105
| 13>   H                      6.269744             -5.501653            -7.966790
| 14>   H                      5.244938             -4.844621            -10.561838
| 15>   H                      5.819859             -6.446248            -10.290927
| 16>   H                      4.414631             -5.822922            -9.411986
| 17>   C                      9.529779             -3.734456            -7.888648
| 18>   O                      8.537099             -2.944454            -8.420546
| 19>   H                      7.770596             -3.505597            -8.623501
| 20>   H                      9.170968             -4.743425            -7.737205
| 21>   H                      10.429349            -3.879150            -8.555951
| 22>   H                      9.961874             -3.350867            -7.001502
| 23> *
| 24>
| 25> #Run DFT-D3 single point of the molecule with dimer basis set
| 26> $new_job
| 27> %base "21-154_DFT_A"
| 28> ! wB97X-D3 def2-TZVP TIGHTSCF CHELPG PMODEL
| 29>
| 30> %scf
| 31> MaxIter 1000
| 32> end
| 33>
| 34> * xyz 0 1
| 35>   C                      5.398878             -5.549373            -9.768657
| 36>   O                      6.151562             -4.934993            -8.756105
| 37>   H                      6.269744             -5.501653            -7.966790
| 38>   H                      5.244938             -4.844621            -10.561838
| 39>   H                      5.819859             -6.446248            -10.290927
| 40>   H                      4.414631             -5.822922            -9.411986
| 41>   C                    : 9.529779             -3.734456            -7.888648
| 42>   O                    : 8.537099             -2.944454            -8.420546
| 43>   H                    : 7.770596             -3.505597            -8.623501
| 44>   H                    : 9.170968             -4.743425            -7.737205
| 45>   H                    : 10.429349            -3.879150            -8.555951
| 46>   H                    : 9.961874             -3.350867            -7.001502
| 47> *
| 48>
| 49> #Run DFT-D3 single point of the particle with dimer basis set
| 50> $new_job
| 51> %base "21-154_DFT_B"
| 52> ! wB97X-D3 def2-TZVP TIGHTSCF CHELPG PMODEL
| 53>
| 54> %scf
| 55> MaxIter 1000
| 56> end
| 57>
| 58> * xyz 0 1
| 59>   C                    : 5.398878             -5.549373            -9.768657
| 60>   O                    : 6.151562             -4.934993            -8.756105
| 61>   H                    : 6.269744             -5.501653            -7.966790
| 62>   H                    : 5.244938             -4.844621            -10.561838
| 63>   H                    : 5.819859             -6.446248            -10.290927
| 64>   H                    : 4.414631             -5.822922            -9.411986
| 65>   C                      9.529779             -3.734456            -7.888648
| 66>   O                      8.537099             -2.944454            -8.420546
| 67>   H                      7.770596             -3.505597            -8.623501
| 68>   H                      9.170968             -4.743425            -7.737205
| 69>   H                      10.429349            -3.879150            -8.555951
| 70>   H                      9.961874             -3.350867            -7.001502
| 71> *
| 72>
| 73>                          ****END OF INPUT****
 Total Charge           Charge          ....    0
 Multiplicity           Mult            ....    1
 Number of Electrons    NEL             ....   36
Dispersion correction           -0.001587936
FINAL SINGLE POINT ENERGY      -231.473969230151
Dispersion correction           -0.000268010
FINAL SINGLE POINT ENERGY      -115.734609028424

CARTESIAN COORDINATES (ANGSTROEM)
---------------------------------
  C      5.398878   -5.549373   -9.768657
  O      6.151562   -4.934993   -8.756105
  H      6.269744   -5.501653   -7.966790
  H      5.244938   -4.844621  -10.561838
  H      5.819859   -6.446248  -10.290927
  H      4.414631   -5.822922   -9.411986
  C      9.529779   -3.734456   -7.888648
  O      8.537099   -2.944454   -8.420546
  H      7.770596   -3.505597   -8.623501
  H      9.170968   -4.743425   -7.737205
  H     10.429349   -3.879150   -8.555951
  H      9.961874   -3.350867   -7.001502

 Multiplicity           Mult            ....    1
 Number of Electrons    NEL             ....   18
 Basis Dimension        Dim             ....  172

ORBITAL ENERGIES
----------------

  NO   OCC          E(Eh)            E(eV)
   0   2.0000     -19.233341      -523.3658
   1   2.0000     -10.308526      -280.5093
   2   2.0000      -1.147684       -31.2301
   3   2.0000      -0.795719       -21.6526
   4   2.0000      -0.622095       -16.9281
   5   2.0000      -0.545654       -14.8480
   6   2.0000      -0.532115       -14.4796
   7   2.0000      -0.431838       -11.7509
   8   2.0000      -0.369528       -10.0554
   9   0.0000       0.066617         1.8128
  10   0.0000       0.123737         3.3670
  11   0.0000       0.151157         4.1132
  12   0.0000       0.167231         4.5506
  13   0.0000       0.192610         5.2412

MULLIKEN ATOMIC CHARGES
-----------------------
   0 C :   -0.001151
   1 O :   -0.002158
   2 H :   -0.000219
   3 H :    0.000131
   4 H :    0.000029
   5 H :   -0.000000
   6 C :   -0.151143
   7 O :   -0.461900
   8 H :    0.319927
   9 H :    0.097796
  10 H :    0.089667
  11 H :    0.109019
Sum of atomic charges:    0.0000000

LOEWDIN ATOMIC CHARGES
----------------------
   0 C :   -0.001233
   1 O :   -0.010853
   2 H :   -0.001229
   3 H :   -0.000080
   4 H :   -0.000019
   5 H :   -0.000041
   6 C :   -0.414288
   7 O :   -0.045005
   8 H :    0.185873
   9 H :    0.093839
  10 H :    0.100510
  11 H :    0.092524

  Mayer bond orders larger than 0.1
B(  6-C ,  7-O ) :   1.0116 B(  6-C ,  9-H ) :   0.9894 B(  6-C , 10-H ) :   0.9748
B(  6-C , 11-H ) :   0.9765 B(  7-O ,  8-H ) :   0.9032

Dispersion correction           -0.000240878
FINAL SINGLE POINT ENERGY      -115.731399128204

DIPOLE MOMENT
-------------
                                X             Y             Z
Electronic contribution:     -1.35161       1.25090      -0.60873
Nuclear contribution   :      1.20819      -1.91805       0.69472
                        -----------------------------------------
Total Dipole Moment    :     -0.14342      -0.66714       0.08599
                        -----------------------------------------
Magnitude (a.u.)       :      0.68778
Magnitude (Debye)      :      1.74821

Rotational constants in cm-1:     4.440281     0.862134     0.825351
Rotational constants in MHz : 133116.271822 25846.120782 24743.405057

                             ****ORCA TERMINATED NORMALLY****
TOTAL RUN TIME: 0 days 0 hours 1 minutes 3 seconds 956 msec
