                         Program Version 4.1.2  - RELEASE  -
|  1> #Run DFT-D3 single point of the dimer
|  2> ! wB97X-D3 def2-TZVP TIGHTSCF CHELPG PMODEL PAL8
|  3>
|  4> %base "7-179_DFT_AB"
|  5>
|  6> %scf
|  7> MaxIter 1000
|  8> end
|  9>
| 10> * xyz 0 1
| 11>   C                      -1.555646            5.231252             -6.405208
| 12>   O                      -0.346762            4.541400             -6.399865
| 13>   H                      0.267018             4.970165             -5.812395
| 14>   H                      -1.461585            6.358154             -6.598062
| 15>   H                      -2.193016            4.839029             -7.166690
| 16>   H                      -2.062145            5.051455             -5.484070
| 17>   C                      3.290816             2.639390             -6.435223
| 18>   O                      2.221507             3.210297             -7.185437
| 19>   H                      1.960015             3.895836             -6.607853
| 20>   H                      3.608396             1.654702             -6.888811
| 21>   H                      4.077403             3.324916             -6.281360
| 22>   H                      2.889501             2.348891             -5.371082
| 23> *
| 24>
| 25> #Run DFT-D3 single point of the molecule with dimer basis set
| 26> $new_job
| 27> %base "7-179_DFT_A"
| 28> ! wB97X-D3 def2-TZVP TIGHTSCF CHELPG PMODEL
| 29>
| 30> %scf
| 31> MaxIter 1000
| 32> end
| 33>
| 34> * xyz 0 1
| 35>   C                      -1.555646            5.231252             -6.405208
| 36>   O                      -0.346762            4.541400             -6.399865
| 37>   H                      0.267018             4.970165             -5.812395
| 38>   H                      -1.461585            6.358154             -6.598062
| 39>   H                      -2.193016            4.839029             -7.166690
| 40>   H                      -2.062145            5.051455             -5.484070
| 41>   C                    : 3.290816             2.639390             -6.435223
| 42>   O                    : 2.221507             3.210297             -7.185437
| 43>   H                    : 1.960015             3.895836             -6.607853
| 44>   H                    : 3.608396             1.654702             -6.888811
| 45>   H                    : 4.077403             3.324916             -6.281360
| 46>   H                    : 2.889501             2.348891             -5.371082
| 47> *
| 48>
| 49> #Run DFT-D3 single point of the particle with dimer basis set
| 50> $new_job
| 51> %base "7-179_DFT_B"
| 52> ! wB97X-D3 def2-TZVP TIGHTSCF CHELPG PMODEL
| 53>
| 54> %scf
| 55> MaxIter 1000
| 56> end
| 57>
| 58> * xyz 0 1
| 59>   C                    : -1.555646            5.231252             -6.405208
| 60>   O                    : -0.346762            4.541400             -6.399865
| 61>   H                    : 0.267018             4.970165             -5.812395
| 62>   H                    : -1.461585            6.358154             -6.598062
| 63>   H                    : -2.193016            4.839029             -7.166690
| 64>   H                    : -2.062145            5.051455             -5.484070
| 65>   C                      3.290816             2.639390             -6.435223
| 66>   O                      2.221507             3.210297             -7.185437
| 67>   H                      1.960015             3.895836             -6.607853
| 68>   H                      3.608396             1.654702             -6.888811
| 69>   H                      4.077403             3.324916             -6.281360
| 70>   H                      2.889501             2.348891             -5.371082
| 71> *
| 72>
| 73>                          ****END OF INPUT****
 Total Charge           Charge          ....    0
 Multiplicity           Mult            ....    1
 Number of Electrons    NEL             ....   36
Dispersion correction           -0.001283928
FINAL SINGLE POINT ENERGY      -231.459456967968
Dispersion correction           -0.000237677
FINAL SINGLE POINT ENERGY      -115.734374134484

CARTESIAN COORDINATES (ANGSTROEM)
---------------------------------
  C     -1.555646    5.231252   -6.405208
  O     -0.346762    4.541400   -6.399865
  H      0.267018    4.970165   -5.812395
  H     -1.461585    6.358154   -6.598062
  H     -2.193016    4.839029   -7.166690
  H     -2.062145    5.051455   -5.484070
  C      3.290816    2.639390   -6.435223
  O      2.221507    3.210297   -7.185437
  H      1.960015    3.895836   -6.607853
  H      3.608396    1.654702   -6.888811
  H      4.077403    3.324916   -6.281360
  H      2.889501    2.348891   -5.371082

 Multiplicity           Mult            ....    1
 Number of Electrons    NEL             ....   18
 Basis Dimension        Dim             ....  172

ORBITAL ENERGIES
----------------

  NO   OCC          E(Eh)            E(eV)
   0   2.0000     -19.231382      -523.3125
   1   2.0000     -10.323711      -280.9224
   2   2.0000      -1.145069       -31.1589
   3   2.0000      -0.789779       -21.4910
   4   2.0000      -0.612383       -16.6638
   5   2.0000      -0.543239       -14.7823
   6   2.0000      -0.521199       -14.1825
   7   2.0000      -0.442166       -12.0319
   8   2.0000      -0.374691       -10.1958
   9   0.0000       0.080131         2.1805
  10   0.0000       0.118617         3.2277
  11   0.0000       0.150880         4.1056
  12   0.0000       0.186936         5.0868
  13   0.0000       0.192803         5.2464

MULLIKEN ATOMIC CHARGES
-----------------------
   0 C :   -0.000828
   1 O :   -0.002306
   2 H :   -0.001501
   3 H :    0.000003
   4 H :    0.000080
   5 H :    0.000008
   6 C :   -0.179971
   7 O :   -0.450838
   8 H :    0.308487
   9 H :    0.120960
  10 H :    0.115995
  11 H :    0.089912
Sum of atomic charges:   -0.0000000

LOEWDIN ATOMIC CHARGES
----------------------
   0 C :   -0.000431
   1 O :   -0.007370
   2 H :   -0.004274
   3 H :   -0.000008
   4 H :   -0.000014
   5 H :   -0.000011
   6 C :   -0.383092
   7 O :   -0.065383
   8 H :    0.155914
   9 H :    0.115537
  10 H :    0.084554
  11 H :    0.104578

  Mayer bond orders larger than 0.1
B(  6-C ,  7-O ) :   0.9948 B(  6-C ,  9-H ) :   0.9716 B(  6-C , 10-H ) :   0.9722
B(  6-C , 11-H ) :   0.9795 B(  7-O ,  8-H ) :   0.9108

Dispersion correction           -0.000225697
FINAL SINGLE POINT ENERGY      -115.728734775239

DIPOLE MOMENT
-------------
                                X             Y             Z
Electronic contribution:     -1.21291       0.72378      -1.25333
Nuclear contribution   :      1.48103      -0.51899       1.88524
                        -----------------------------------------
Total Dipole Moment    :      0.26811       0.20479       0.63191
                        -----------------------------------------
Magnitude (a.u.)       :      0.71633
Magnitude (Debye)      :      1.82078

Rotational constants in cm-1:     4.092421     0.828711     0.795079
Rotational constants in MHz : 122687.697309 24844.138572 23835.855509

                             ****ORCA TERMINATED NORMALLY****
TOTAL RUN TIME: 0 days 0 hours 1 minutes 7 seconds 845 msec
