                         Program Version 4.1.2  - RELEASE  -
|  1> #Run DFT-D3 single point of the dimer
|  2> ! wB97X-D3 def2-TZVP TIGHTSCF CHELPG PMODEL PAL8
|  3>
|  4> %base "15-65_DFT_AB"
|  5>
|  6> %scf
|  7> MaxIter 1000
|  8> end
|  9>
| 10> * xyz 0 1
| 11>   C                      0.395747             0.499302             3.166637
| 12>   O                      -0.741435            1.109411             2.820772
| 13>   H                      -1.443136            0.800324             3.428644
| 14>   H                      0.572906             0.753819             4.234277
| 15>   H                      0.320529             -0.597235            3.056164
| 16>   H                      1.203881             0.845296             2.442496
| 17>   C                      -0.016333            -2.488242            -0.118915
| 18>   O                      1.397039             -2.664913            -0.010818
| 19>   H                      1.520192             -3.372147            0.554595
| 20>   H                      -0.521164            -3.413662            -0.468075
| 21>   H                      -0.463068            -2.346561            0.852921
| 22>   H                      -0.441045            -1.658200            -0.760794
| 23> *
| 24>
| 25> #Run DFT-D3 single point of the molecule with dimer basis set
| 26> $new_job
| 27> %base "15-65_DFT_A"
| 28> ! wB97X-D3 def2-TZVP TIGHTSCF CHELPG PMODEL
| 29>
| 30> %scf
| 31> MaxIter 1000
| 32> end
| 33>
| 34> * xyz 0 1
| 35>   C                      0.395747             0.499302             3.166637
| 36>   O                      -0.741435            1.109411             2.820772
| 37>   H                      -1.443136            0.800324             3.428644
| 38>   H                      0.572906             0.753819             4.234277
| 39>   H                      0.320529             -0.597235            3.056164
| 40>   H                      1.203881             0.845296             2.442496
| 41>   C                    : -0.016333            -2.488242            -0.118915
| 42>   O                    : 1.397039             -2.664913            -0.010818
| 43>   H                    : 1.520192             -3.372147            0.554595
| 44>   H                    : -0.521164            -3.413662            -0.468075
| 45>   H                    : -0.463068            -2.346561            0.852921
| 46>   H                    : -0.441045            -1.658200            -0.760794
| 47> *
| 48>
| 49> #Run DFT-D3 single point of the particle with dimer basis set
| 50> $new_job
| 51> %base "15-65_DFT_B"
| 52> ! wB97X-D3 def2-TZVP TIGHTSCF CHELPG PMODEL
| 53>
| 54> %scf
| 55> MaxIter 1000
| 56> end
| 57>
| 58> * xyz 0 1
| 59>   C                    : 0.395747             0.499302             3.166637
| 60>   O                    : -0.741435            1.109411             2.820772
| 61>   H                    : -1.443136            0.800324             3.428644
| 62>   H                    : 0.572906             0.753819             4.234277
| 63>   H                    : 0.320529             -0.597235            3.056164
| 64>   H                    : 1.203881             0.845296             2.442496
| 65>   C                      -0.016333            -2.488242            -0.118915
| 66>   O                      1.397039             -2.664913            -0.010818
| 67>   H                      1.520192             -3.372147            0.554595
| 68>   H                      -0.521164            -3.413662            -0.468075
| 69>   H                      -0.463068            -2.346561            0.852921
| 70>   H                      -0.441045            -1.658200            -0.760794
| 71> *
| 72>
| 73>                          ****END OF INPUT****
 Total Charge           Charge          ....    0
 Multiplicity           Mult            ....    1
 Number of Electrons    NEL             ....   36
Dispersion correction           -0.001140260
FINAL SINGLE POINT ENERGY      -231.456463276188
Dispersion correction           -0.000199292
FINAL SINGLE POINT ENERGY      -115.728199808310

CARTESIAN COORDINATES (ANGSTROEM)
---------------------------------
  C      0.395747    0.499302    3.166637
  O     -0.741435    1.109411    2.820772
  H     -1.443136    0.800324    3.428644
  H      0.572906    0.753819    4.234277
  H      0.320529   -0.597235    3.056164
  H      1.203881    0.845296    2.442496
  C     -0.016333   -2.488242   -0.118915
  O      1.397039   -2.664913   -0.010818
  H      1.520192   -3.372147    0.554595
  H     -0.521164   -3.413662   -0.468075
  H     -0.463068   -2.346561    0.852921
  H     -0.441045   -1.658200   -0.760794

 Multiplicity           Mult            ....    1
 Number of Electrons    NEL             ....   18
 Basis Dimension        Dim             ....  172

ORBITAL ENERGIES
----------------

  NO   OCC          E(Eh)            E(eV)
   0   2.0000     -19.229970      -523.2741
   1   2.0000     -10.320011      -280.8218
   2   2.0000      -1.145075       -31.1591
   3   2.0000      -0.798753       -21.7352
   4   2.0000      -0.617623       -16.8064
   5   2.0000      -0.533738       -14.5237
   6   2.0000      -0.530285       -14.4298
   7   2.0000      -0.437354       -11.9010
   8   2.0000      -0.374680       -10.1956
   9   0.0000       0.086333         2.3492
  10   0.0000       0.122835         3.3425
  11   0.0000       0.146819         3.9951
  12   0.0000       0.171673         4.6715
  13   0.0000       0.187386         5.0990

MULLIKEN ATOMIC CHARGES
-----------------------
   0 C :   -0.000072
   1 O :   -0.000042
   2 H :    0.000004
   3 H :    0.000050
   4 H :    0.000988
   5 H :   -0.000317
   6 C :   -0.190147
   7 O :   -0.460164
   8 H :    0.307322
   9 H :    0.106708
  10 H :    0.107153
  11 H :    0.128517
Sum of atomic charges:   -0.0000000

LOEWDIN ATOMIC CHARGES
----------------------
   0 C :   -0.000648
   1 O :   -0.000042
   2 H :   -0.000018
   3 H :   -0.000004
   4 H :   -0.000788
   5 H :   -0.000106
   6 C :   -0.383530
   7 O :   -0.061165
   8 H :    0.140177
   9 H :    0.097089
  10 H :    0.090729
  11 H :    0.118306

  Mayer bond orders larger than 0.1
B(  6-C ,  7-O ) :   0.9879 B(  6-C ,  9-H ) :   0.9804 B(  6-C , 10-H ) :   0.9770
B(  6-C , 11-H ) :   0.9699 B(  7-O ,  8-H ) :   0.9096

Dispersion correction           -0.000250070
FINAL SINGLE POINT ENERGY      -115.727573531878

DIPOLE MOMENT
-------------
                                X             Y             Z
Electronic contribution:      2.00239      -0.03022       0.00232
Nuclear contribution   :     -2.50653      -0.35681       0.33456
                        -----------------------------------------
Total Dipole Moment    :     -0.50414      -0.38703       0.33687
                        -----------------------------------------
Magnitude (a.u.)       :      0.71933
Magnitude (Debye)      :      1.82839

Rotational constants in cm-1:     4.483386     0.807080     0.775436
Rotational constants in MHz : 134408.540148 24195.644332 23246.977461

                             ****ORCA TERMINATED NORMALLY****
TOTAL RUN TIME: 0 days 0 hours 1 minutes 1 seconds 26 msec
