                         Program Version 4.1.2  - RELEASE  -
|  1> #Run DFT-D3 single point of the dimer
|  2> ! wB97X-D3 def2-TZVP TIGHTSCF CHELPG PMODEL PAL8
|  3>
|  4> %base "3-22_DFT_AB"
|  5>
|  6> %scf
|  7> MaxIter 1000
|  8> end
|  9>
| 10> * xyz 0 1
| 11>   C                      -1.479890            -2.782146            -10.347695
| 12>   O                      -2.119262            -3.328411            -11.446586
| 13>   H                      -1.445049            -3.506653            -12.123038
| 14>   H                      -2.045989            -2.790401            -9.457301
| 15>   H                      -0.487859            -3.274771            -10.077993
| 16>   H                      -1.208709            -1.733125            -10.415487
| 17>   C                      2.699402             -3.634339            -11.448789
| 18>   O                      3.095201             -3.066923            -10.252742
| 19>   H                      3.010599             -3.773326            -9.633671
| 20>   H                      2.888609             -4.616307            -11.672325
| 21>   H                      1.616299             -3.610211            -11.627145
| 22>   H                      3.167318             -3.013800            -12.175437
| 23> *
| 24>
| 25> #Run DFT-D3 single point of the molecule with dimer basis set
| 26> $new_job
| 27> %base "3-22_DFT_A"
| 28> ! wB97X-D3 def2-TZVP TIGHTSCF CHELPG PMODEL
| 29>
| 30> %scf
| 31> MaxIter 1000
| 32> end
| 33>
| 34> * xyz 0 1
| 35>   C                      -1.479890            -2.782146            -10.347695
| 36>   O                      -2.119262            -3.328411            -11.446586
| 37>   H                      -1.445049            -3.506653            -12.123038
| 38>   H                      -2.045989            -2.790401            -9.457301
| 39>   H                      -0.487859            -3.274771            -10.077993
| 40>   H                      -1.208709            -1.733125            -10.415487
| 41>   C                    : 2.699402             -3.634339            -11.448789
| 42>   O                    : 3.095201             -3.066923            -10.252742
| 43>   H                    : 3.010599             -3.773326            -9.633671
| 44>   H                    : 2.888609             -4.616307            -11.672325
| 45>   H                    : 1.616299             -3.610211            -11.627145
| 46>   H                    : 3.167318             -3.013800            -12.175437
| 47> *
| 48>
| 49> #Run DFT-D3 single point of the particle with dimer basis set
| 50> $new_job
| 51> %base "3-22_DFT_B"
| 52> ! wB97X-D3 def2-TZVP TIGHTSCF CHELPG PMODEL
| 53>
| 54> %scf
| 55> MaxIter 1000
| 56> end
| 57>
| 58> * xyz 0 1
| 59>   C                    : -1.479890            -2.782146            -10.347695
| 60>   O                    : -2.119262            -3.328411            -11.446586
| 61>   H                    : -1.445049            -3.506653            -12.123038
| 62>   H                    : -2.045989            -2.790401            -9.457301
| 63>   H                    : -0.487859            -3.274771            -10.077993
| 64>   H                    : -1.208709            -1.733125            -10.415487
| 65>   C                      2.699402             -3.634339            -11.448789
| 66>   O                      3.095201             -3.066923            -10.252742
| 67>   H                      3.010599             -3.773326            -9.633671
| 68>   H                      2.888609             -4.616307            -11.672325
| 69>   H                      1.616299             -3.610211            -11.627145
| 70>   H                      3.167318             -3.013800            -12.175437
| 71> *
| 72>
| 73>                          ****END OF INPUT****
 Total Charge           Charge          ....    0
 Multiplicity           Mult            ....    1
 Number of Electrons    NEL             ....   36
Dispersion correction           -0.001330051
FINAL SINGLE POINT ENERGY      -231.458254977437
Dispersion correction           -0.000252274
FINAL SINGLE POINT ENERGY      -115.731346274392

CARTESIAN COORDINATES (ANGSTROEM)
---------------------------------
  C     -1.479890   -2.782146  -10.347695
  O     -2.119262   -3.328411  -11.446586
  H     -1.445049   -3.506653  -12.123038
  H     -2.045989   -2.790401   -9.457301
  H     -0.487859   -3.274771  -10.077993
  H     -1.208709   -1.733125  -10.415487
  C      2.699402   -3.634339  -11.448789
  O      3.095201   -3.066923  -10.252742
  H      3.010599   -3.773326   -9.633671
  H      2.888609   -4.616307  -11.672325
  H      1.616299   -3.610211  -11.627145
  H      3.167318   -3.013800  -12.175437

 Multiplicity           Mult            ....    1
 Number of Electrons    NEL             ....   18
 Basis Dimension        Dim             ....  172

ORBITAL ENERGIES
----------------

  NO   OCC          E(Eh)            E(eV)
   0   2.0000     -19.233854      -523.3798
   1   2.0000     -10.297888      -280.2198
   2   2.0000      -1.154991       -31.4289
   3   2.0000      -0.803952       -21.8766
   4   2.0000      -0.633037       -17.2258
   5   2.0000      -0.539005       -14.6671
   6   2.0000      -0.526569       -14.3287
   7   2.0000      -0.448734       -12.2107
   8   2.0000      -0.372706       -10.1418
   9   0.0000       0.085782         2.3342
  10   0.0000       0.122112         3.3228
  11   0.0000       0.150281         4.0894
  12   0.0000       0.178199         4.8490
  13   0.0000       0.195005         5.3064

MULLIKEN ATOMIC CHARGES
-----------------------
   0 C :   -0.001028
   1 O :   -0.000085
   2 H :   -0.000100
   3 H :    0.000146
   4 H :    0.002444
   5 H :   -0.000155
   6 C :   -0.164499
   7 O :   -0.452116
   8 H :    0.308592
   9 H :    0.110074
  10 H :    0.081836
  11 H :    0.114891
Sum of atomic charges:    0.0000000

LOEWDIN ATOMIC CHARGES
----------------------
   0 C :   -0.001692
   1 O :   -0.000064
   2 H :   -0.000940
   3 H :   -0.000007
   4 H :   -0.001597
   5 H :   -0.000053
   6 C :   -0.406416
   7 O :   -0.033893
   8 H :    0.162990
   9 H :    0.080213
  10 H :    0.095468
  11 H :    0.105989

  Mayer bond orders larger than 0.1
B(  6-C ,  7-O ) :   1.0157 B(  6-C ,  9-H ) :   0.9738 B(  6-C , 10-H ) :   0.9712
B(  6-C , 11-H ) :   0.9868 B(  7-O ,  8-H ) :   0.9081

Dispersion correction           -0.000222267
FINAL SINGLE POINT ENERGY      -115.726078361956

DIPOLE MOMENT
-------------
                                X             Y             Z
Electronic contribution:      0.66175       0.76799       1.62629
Nuclear contribution   :     -0.83279      -1.44940      -1.66951
                        -----------------------------------------
Total Dipole Moment    :     -0.17104      -0.68141      -0.04322
                        -----------------------------------------
Magnitude (a.u.)       :      0.70388
Magnitude (Debye)      :      1.78911

Rotational constants in cm-1:     4.628265     0.870630     0.833538
Rotational constants in MHz : 138751.903465 26100.845188 24988.832504

                             ****ORCA TERMINATED NORMALLY****
TOTAL RUN TIME: 0 days 0 hours 6 minutes 15 seconds 909 msec
