                         Program Version 4.1.2  - RELEASE  -
|  1> #Run DFT-D3 single point of the dimer
|  2> ! wB97X-D3 def2-TZVP TIGHTSCF CHELPG PMODEL PAL8
|  3>
|  4> %base "3-82_DFT_AB"
|  5>
|  6> %scf
|  7> MaxIter 1000
|  8> end
|  9>
| 10> * xyz 0 1
| 11>   C                      -1.179622            -0.680025            6.462159
| 12>   O                      -1.994517            0.038928             7.405688
| 13>   H                      -2.109912            0.907878             7.079844
| 14>   H                      -0.109920            -0.503745            6.727623
| 15>   H                      -1.354234            -1.756892            6.522703
| 16>   H                      -1.366128            -0.313220            5.402350
| 17>   C                      3.223815             -1.120758            5.515775
| 18>   O                      2.667111             -0.042912            6.132013
| 19>   H                      1.858254             0.090101             5.682670
| 20>   H                      3.470362             -1.950153            6.248320
| 21>   H                      2.540332             -1.571278            4.775863
| 22>   H                      4.135189             -0.855422            5.051932
| 23> *
| 24>
| 25> #Run DFT-D3 single point of the molecule with dimer basis set
| 26> $new_job
| 27> %base "3-82_DFT_A"
| 28> ! wB97X-D3 def2-TZVP TIGHTSCF CHELPG PMODEL
| 29>
| 30> %scf
| 31> MaxIter 1000
| 32> end
| 33>
| 34> * xyz 0 1
| 35>   C                      -1.179622            -0.680025            6.462159
| 36>   O                      -1.994517            0.038928             7.405688
| 37>   H                      -2.109912            0.907878             7.079844
| 38>   H                      -0.109920            -0.503745            6.727623
| 39>   H                      -1.354234            -1.756892            6.522703
| 40>   H                      -1.366128            -0.313220            5.402350
| 41>   C                    : 3.223815             -1.120758            5.515775
| 42>   O                    : 2.667111             -0.042912            6.132013
| 43>   H                    : 1.858254             0.090101             5.682670
| 44>   H                    : 3.470362             -1.950153            6.248320
| 45>   H                    : 2.540332             -1.571278            4.775863
| 46>   H                    : 4.135189             -0.855422            5.051932
| 47> *
| 48>
| 49> #Run DFT-D3 single point of the particle with dimer basis set
| 50> $new_job
| 51> %base "3-82_DFT_B"
| 52> ! wB97X-D3 def2-TZVP TIGHTSCF CHELPG PMODEL
| 53>
| 54> %scf
| 55> MaxIter 1000
| 56> end
| 57>
| 58> * xyz 0 1
| 59>   C                    : -1.179622            -0.680025            6.462159
| 60>   O                    : -1.994517            0.038928             7.405688
| 61>   H                    : -2.109912            0.907878             7.079844
| 62>   H                    : -0.109920            -0.503745            6.727623
| 63>   H                    : -1.354234            -1.756892            6.522703
| 64>   H                    : -1.366128            -0.313220            5.402350
| 65>   C                      3.223815             -1.120758            5.515775
| 66>   O                      2.667111             -0.042912            6.132013
| 67>   H                      1.858254             0.090101             5.682670
| 68>   H                      3.470362             -1.950153            6.248320
| 69>   H                      2.540332             -1.571278            4.775863
| 70>   H                      4.135189             -0.855422            5.051932
| 71> *
| 72>
| 73>                          ****END OF INPUT****
 Total Charge           Charge          ....    0
 Multiplicity           Mult            ....    1
 Number of Electrons    NEL             ....   36
Dispersion correction           -0.001367584
FINAL SINGLE POINT ENERGY      -231.464989300860
Dispersion correction           -0.000253585
FINAL SINGLE POINT ENERGY      -115.733857338235

CARTESIAN COORDINATES (ANGSTROEM)
---------------------------------
  C     -1.179622   -0.680025    6.462159
  O     -1.994517    0.038928    7.405688
  H     -2.109912    0.907878    7.079844
  H     -0.109920   -0.503745    6.727623
  H     -1.354234   -1.756892    6.522703
  H     -1.366128   -0.313220    5.402350
  C      3.223815   -1.120758    5.515775
  O      2.667111   -0.042912    6.132013
  H      1.858254    0.090101    5.682670
  H      3.470362   -1.950153    6.248320
  H      2.540332   -1.571278    4.775863
  H      4.135189   -0.855422    5.051932

 Multiplicity           Mult            ....    1
 Number of Electrons    NEL             ....   18
 Basis Dimension        Dim             ....  172

ORBITAL ENERGIES
----------------

  NO   OCC          E(Eh)            E(eV)
   0   2.0000     -19.230413      -523.2861
   1   2.0000     -10.309770      -280.5431
   2   2.0000      -1.163128       -31.6503
   3   2.0000      -0.793844       -21.6016
   4   2.0000      -0.626643       -17.0518
   5   2.0000      -0.549927       -14.9643
   6   2.0000      -0.534876       -14.5547
   7   2.0000      -0.434613       -11.8264
   8   2.0000      -0.371753       -10.1159
   9   0.0000       0.075363         2.0507
  10   0.0000       0.125021         3.4020
  11   0.0000       0.157970         4.2986
  12   0.0000       0.167689         4.5631
  13   0.0000       0.184244         5.0135

MULLIKEN ATOMIC CHARGES
-----------------------
   0 C :    0.005476
   1 O :   -0.000114
   2 H :   -0.000058
   3 H :   -0.015389
   4 H :   -0.000221
   5 H :    0.000061
   6 C :   -0.163493
   7 O :   -0.444492
   8 H :    0.317453
   9 H :    0.096710
  10 H :    0.096462
  11 H :    0.107605
Sum of atomic charges:   -0.0000000

LOEWDIN ATOMIC CHARGES
----------------------
   0 C :   -0.002244
   1 O :   -0.000025
   2 H :   -0.000002
   3 H :   -0.007119
   4 H :   -0.000020
   5 H :   -0.000106
   6 C :   -0.426162
   7 O :   -0.017844
   8 H :    0.161252
   9 H :    0.105148
  10 H :    0.097629
  11 H :    0.089493

  Mayer bond orders larger than 0.1
B(  6-C ,  7-O ) :   1.0118 B(  6-C ,  9-H ) :   0.9744 B(  6-C , 10-H ) :   0.9910
B(  6-C , 11-H ) :   0.9787 B(  7-O ,  8-H ) :   0.9029

Dispersion correction           -0.000219620
FINAL SINGLE POINT ENERGY      -115.730922689407

DIPOLE MOMENT
-------------
                                X             Y             Z
Electronic contribution:     -0.62853       1.56002       0.86647
Nuclear contribution   :      0.30860      -1.85078      -1.39956
                        -----------------------------------------
Total Dipole Moment    :     -0.31993      -0.29076      -0.53309
                        -----------------------------------------
Magnitude (a.u.)       :      0.68635
Magnitude (Debye)      :      1.74457

Rotational constants in cm-1:     4.315765     0.889508     0.852888
Rotational constants in MHz : 129383.381769 26666.783036 25568.947621

                             ****ORCA TERMINATED NORMALLY****
TOTAL RUN TIME: 0 days 0 hours 6 minutes 24 seconds 413 msec
