                         Program Version 4.1.2  - RELEASE  -
|  1> #Run DFT-D3 single point of the dimer
|  2> ! wB97X-D3 def2-TZVP TIGHTSCF CHELPG PMODEL PAL8
|  3>
|  4> %base "6-21_DFT_AB"
|  5>
|  6> %scf
|  7> MaxIter 1000
|  8> end
|  9>
| 10> * xyz 0 1
| 11>   C                      -0.715228            1.050743             2.453242
| 12>   O                      -1.854007            0.340821             2.144338
| 13>   H                      -2.633239            0.803480             2.639829
| 14>   H                      -0.871798            2.130612             2.284487
| 15>   H                      -0.449429            0.971583             3.539397
| 16>   H                      0.102194             0.804007             1.757111
| 17>   C                      1.357554             3.752919             0.927399
| 18>   O                      2.636666             3.112207             1.170774
| 19>   H                      3.170213             3.525869             0.504691
| 20>   H                      1.409759             4.871002             1.051048
| 21>   H                      0.903366             3.512577             -0.023999
| 22>   H                      0.608316             3.462401             1.670895
| 23> *
| 24>
| 25> #Run DFT-D3 single point of the molecule with dimer basis set
| 26> $new_job
| 27> %base "6-21_DFT_A"
| 28> ! wB97X-D3 def2-TZVP TIGHTSCF CHELPG PMODEL
| 29>
| 30> %scf
| 31> MaxIter 1000
| 32> end
| 33>
| 34> * xyz 0 1
| 35>   C                      -0.715228            1.050743             2.453242
| 36>   O                      -1.854007            0.340821             2.144338
| 37>   H                      -2.633239            0.803480             2.639829
| 38>   H                      -0.871798            2.130612             2.284487
| 39>   H                      -0.449429            0.971583             3.539397
| 40>   H                      0.102194             0.804007             1.757111
| 41>   C                    : 1.357554             3.752919             0.927399
| 42>   O                    : 2.636666             3.112207             1.170774
| 43>   H                    : 3.170213             3.525869             0.504691
| 44>   H                    : 1.409759             4.871002             1.051048
| 45>   H                    : 0.903366             3.512577             -0.023999
| 46>   H                    : 0.608316             3.462401             1.670895
| 47> *
| 48>
| 49> #Run DFT-D3 single point of the particle with dimer basis set
| 50> $new_job
| 51> %base "6-21_DFT_B"
| 52> ! wB97X-D3 def2-TZVP TIGHTSCF CHELPG PMODEL
| 53>
| 54> %scf
| 55> MaxIter 1000
| 56> end
| 57>
| 58> * xyz 0 1
| 59>   C                    : -0.715228            1.050743             2.453242
| 60>   O                    : -1.854007            0.340821             2.144338
| 61>   H                    : -2.633239            0.803480             2.639829
| 62>   H                    : -0.871798            2.130612             2.284487
| 63>   H                    : -0.449429            0.971583             3.539397
| 64>   H                    : 0.102194             0.804007             1.757111
| 65>   C                      1.357554             3.752919             0.927399
| 66>   O                      2.636666             3.112207             1.170774
| 67>   H                      3.170213             3.525869             0.504691
| 68>   H                      1.409759             4.871002             1.051048
| 69>   H                      0.903366             3.512577             -0.023999
| 70>   H                      0.608316             3.462401             1.670895
| 71> *
| 72>
| 73>                          ****END OF INPUT****
 Total Charge           Charge          ....    0
 Multiplicity           Mult            ....    1
 Number of Electrons    NEL             ....   36
Dispersion correction           -0.001573423
FINAL SINGLE POINT ENERGY      -231.462253923761
Dispersion correction           -0.000228270
FINAL SINGLE POINT ENERGY      -115.729167895462

CARTESIAN COORDINATES (ANGSTROEM)
---------------------------------
  C     -0.715228    1.050743    2.453242
  O     -1.854007    0.340821    2.144338
  H     -2.633239    0.803480    2.639829
  H     -0.871798    2.130612    2.284487
  H     -0.449429    0.971583    3.539397
  H      0.102194    0.804007    1.757111
  C      1.357554    3.752919    0.927399
  O      2.636666    3.112207    1.170774
  H      3.170213    3.525869    0.504691
  H      1.409759    4.871002    1.051048
  H      0.903366    3.512577   -0.023999
  H      0.608316    3.462401    1.670895

 Multiplicity           Mult            ....    1
 Number of Electrons    NEL             ....   18
 Basis Dimension        Dim             ....  172

ORBITAL ENERGIES
----------------

  NO   OCC          E(Eh)            E(eV)
   0   2.0000     -19.234977      -523.4103
   1   2.0000     -10.318738      -280.7871
   2   2.0000      -1.134026       -30.8584
   3   2.0000      -0.796004       -21.6604
   4   2.0000      -0.603312       -16.4170
   5   2.0000      -0.539881       -14.6909
   6   2.0000      -0.522478       -14.2174
   7   2.0000      -0.441355       -12.0099
   8   2.0000      -0.379743       -10.3333
   9   0.0000       0.089635         2.4391
  10   0.0000       0.119417         3.2495
  11   0.0000       0.151465         4.1216
  12   0.0000       0.175265         4.7692
  13   0.0000       0.188762         5.1365

MULLIKEN ATOMIC CHARGES
-----------------------
   0 C :    0.002322
   1 O :    0.000119
   2 H :    0.000014
   3 H :   -0.002403
   4 H :   -0.000353
   5 H :    0.000096
   6 C :   -0.200140
   7 O :   -0.460945
   8 H :    0.312183
   9 H :    0.109514
  10 H :    0.113071
  11 H :    0.126520
Sum of atomic charges:    0.0000000

LOEWDIN ATOMIC CHARGES
----------------------
   0 C :   -0.006482
   1 O :   -0.000023
   2 H :   -0.000002
   3 H :   -0.008042
   4 H :   -0.000110
   5 H :   -0.001128
   6 C :   -0.367388
   7 O :   -0.090679
   8 H :    0.162362
   9 H :    0.102594
  10 H :    0.093946
  11 H :    0.114952

  Mayer bond orders larger than 0.1
B(  6-C ,  7-O ) :   1.0046 B(  6-C ,  9-H ) :   0.9724 B(  6-C , 10-H ) :   0.9727
B(  6-C , 11-H ) :   0.9746 B(  7-O ,  8-H ) :   0.9065

Dispersion correction           -0.000255191
FINAL SINGLE POINT ENERGY      -115.732902648707

DIPOLE MOMENT
-------------
                                X             Y             Z
Electronic contribution:      1.64964      -0.98842       0.37286
Nuclear contribution   :     -1.84515       1.49102      -0.86976
                        -----------------------------------------
Total Dipole Moment    :     -0.19551       0.50260      -0.49690
                        -----------------------------------------
Magnitude (a.u.)       :      0.73331
Magnitude (Debye)      :      1.86393

Rotational constants in cm-1:     4.311152     0.791928     0.769175
Rotational constants in MHz : 129245.092826 23741.397699 23059.282158

                             ****ORCA TERMINATED NORMALLY****
TOTAL RUN TIME: 0 days 0 hours 1 minutes 1 seconds 527 msec
