                         Program Version 4.1.2  - RELEASE  -
|  1> #Run DFT-D3 single point of the dimer
|  2> ! wB97X-D3 def2-TZVP TIGHTSCF CHELPG PMODEL PAL8
|  3>
|  4> %base "20-51_DFT_AB"
|  5>
|  6> %scf
|  7> MaxIter 1000
|  8> end
|  9>
| 10> * xyz 0 1
| 11>   C                      10.369788            -1.022027            1.137112
| 12>   O                      9.385676             -0.662923            2.037067
| 13>   H                      8.915815             -1.406507            2.396030
| 14>   H                      9.951602             -1.529467            0.290434
| 15>   H                      10.979370            -0.132618            0.842871
| 16>   H                      10.919377            -1.856796            1.581003
| 17>   C                      7.356633             -0.427867            5.014311
| 18>   O                      7.640773             0.095332             6.288135
| 19>   H                      6.963374             0.785339             6.456965
| 20>   H                      8.218673             -0.569521            4.371192
| 21>   H                      6.895203             -1.361880            5.066783
| 22>   H                      6.580939             0.181751             4.566550
| 23> *
| 24>
| 25> #Run DFT-D3 single point of the molecule with dimer basis set
| 26> $new_job
| 27> %base "20-51_DFT_A"
| 28> ! wB97X-D3 def2-TZVP TIGHTSCF CHELPG PMODEL
| 29>
| 30> %scf
| 31> MaxIter 1000
| 32> end
| 33>
| 34> * xyz 0 1
| 35>   C                      10.369788            -1.022027            1.137112
| 36>   O                      9.385676             -0.662923            2.037067
| 37>   H                      8.915815             -1.406507            2.396030
| 38>   H                      9.951602             -1.529467            0.290434
| 39>   H                      10.979370            -0.132618            0.842871
| 40>   H                      10.919377            -1.856796            1.581003
| 41>   C                    : 7.356633             -0.427867            5.014311
| 42>   O                    : 7.640773             0.095332             6.288135
| 43>   H                    : 6.963374             0.785339             6.456965
| 44>   H                    : 8.218673             -0.569521            4.371192
| 45>   H                    : 6.895203             -1.361880            5.066783
| 46>   H                    : 6.580939             0.181751             4.566550
| 47> *
| 48>
| 49> #Run DFT-D3 single point of the particle with dimer basis set
| 50> $new_job
| 51> %base "20-51_DFT_B"
| 52> ! wB97X-D3 def2-TZVP TIGHTSCF CHELPG PMODEL
| 53>
| 54> %scf
| 55> MaxIter 1000
| 56> end
| 57>
| 58> * xyz 0 1
| 59>   C                    : 10.369788            -1.022027            1.137112
| 60>   O                    : 9.385676             -0.662923            2.037067
| 61>   H                    : 8.915815             -1.406507            2.396030
| 62>   H                    : 9.951602             -1.529467            0.290434
| 63>   H                    : 10.979370            -0.132618            0.842871
| 64>   H                    : 10.919377            -1.856796            1.581003
| 65>   C                      7.356633             -0.427867            5.014311
| 66>   O                      7.640773             0.095332             6.288135
| 67>   H                      6.963374             0.785339             6.456965
| 68>   H                      8.218673             -0.569521            4.371192
| 69>   H                      6.895203             -1.361880            5.066783
| 70>   H                      6.580939             0.181751             4.566550
| 71> *
| 72>
| 73>                          ****END OF INPUT****
 Total Charge           Charge          ....    0
 Multiplicity           Mult            ....    1
 Number of Electrons    NEL             ....   36
Dispersion correction           -0.001216180
FINAL SINGLE POINT ENERGY      -231.459902064940
Dispersion correction           -0.000216196
FINAL SINGLE POINT ENERGY      -115.730175882640

CARTESIAN COORDINATES (ANGSTROEM)
---------------------------------
  C     10.369788   -1.022027    1.137112
  O      9.385676   -0.662923    2.037067
  H      8.915815   -1.406507    2.396030
  H      9.951602   -1.529467    0.290434
  H     10.979370   -0.132618    0.842871
  H     10.919377   -1.856796    1.581003
  C      7.356633   -0.427867    5.014311
  O      7.640773    0.095332    6.288135
  H      6.963374    0.785339    6.456965
  H      8.218673   -0.569521    4.371192
  H      6.895203   -1.361880    5.066783
  H      6.580939    0.181751    4.566550

 Multiplicity           Mult            ....    1
 Number of Electrons    NEL             ....   18
 Basis Dimension        Dim             ....  172

ORBITAL ENERGIES
----------------

  NO   OCC          E(Eh)            E(eV)
   0   2.0000     -19.230823      -523.2973
   1   2.0000     -10.304116      -280.3893
   2   2.0000      -1.135272       -30.8923
   3   2.0000      -0.798759       -21.7353
   4   2.0000      -0.612985       -16.6802
   5   2.0000      -0.539367       -14.6769
   6   2.0000      -0.537347       -14.6219
   7   2.0000      -0.433262       -11.7897
   8   2.0000      -0.371326       -10.1043
   9   0.0000       0.086557         2.3553
  10   0.0000       0.108890         2.9631
  11   0.0000       0.144894         3.9428
  12   0.0000       0.187102         5.0913
  13   0.0000       0.192132         5.2282

MULLIKEN ATOMIC CHARGES
-----------------------
   0 C :   -0.000384
   1 O :   -0.000048
   2 H :   -0.000048
   3 H :    0.000001
   4 H :   -0.000001
   5 H :    0.000003
   6 C :   -0.169301
   7 O :   -0.469930
   8 H :    0.319564
   9 H :    0.114932
  10 H :    0.105983
  11 H :    0.099228
Sum of atomic charges:    0.0000000

LOEWDIN ATOMIC CHARGES
----------------------
   0 C :   -0.000261
   1 O :   -0.003932
   2 H :   -0.005104
   3 H :   -0.000006
   4 H :   -0.000006
   5 H :   -0.000010
   6 C :   -0.385053
   7 O :   -0.081274
   8 H :    0.185329
   9 H :    0.105627
  10 H :    0.087359
  11 H :    0.097333

  Mayer bond orders larger than 0.1
B(  6-C ,  7-O ) :   1.0202 B(  6-C ,  9-H ) :   0.9755 B(  6-C , 10-H ) :   0.9714
B(  6-C , 11-H ) :   0.9971 B(  7-O ,  8-H ) :   0.8976

Dispersion correction           -0.000230173
FINAL SINGLE POINT ENERGY      -115.729642510285

DIPOLE MOMENT
-------------
                                X             Y             Z
Electronic contribution:      0.59589       0.58464       1.65127
Nuclear contribution   :     -1.16009      -0.36407      -2.04609
                        -----------------------------------------
Total Dipole Moment    :     -0.56419       0.22057      -0.39481
                        -----------------------------------------
Magnitude (a.u.)       :      0.72308
Magnitude (Debye)      :      1.83792

Rotational constants in cm-1:     4.446759     0.847940     0.804922
Rotational constants in MHz : 133310.473086 25420.616142 24130.953017

                             ****ORCA TERMINATED NORMALLY****
TOTAL RUN TIME: 0 days 0 hours 1 minutes 8 seconds 86 msec
