                         Program Version 4.1.2  - RELEASE  -
|  1> #Run DFT-D3 single point of the dimer
|  2> ! wB97X-D3 def2-TZVP TIGHTSCF CHELPG PMODEL PAL8
|  3>
|  4> %base "9-12_DFT_AB"
|  5>
|  6> %scf
|  7> MaxIter 1000
|  8> end
|  9>
| 10> * xyz 0 1
| 11>   C                      5.326910             4.806322             -3.533113
| 12>   O                      6.034877             3.972360             -4.447765
| 13>   H                      6.237275             3.163824             -3.960999
| 14>   H                      6.014065             5.326131             -2.833834
| 15>   H                      4.817935             5.581777             -4.157801
| 16>   H                      4.623172             4.233674             -2.922331
| 17>   C                      2.403711             2.233500             -2.240277
| 18>   O                      2.961890             1.900304             -3.510987
| 19>   H                      2.285466             2.224040             -4.178838
| 20>   H                      3.212827             2.323104             -1.545528
| 21>   H                      1.740199             3.100437             -2.266122
| 22>   H                      1.691648             1.586078             -1.791668
| 23> *
| 24>
| 25> #Run DFT-D3 single point of the molecule with dimer basis set
| 26> $new_job
| 27> %base "9-12_DFT_A"
| 28> ! wB97X-D3 def2-TZVP TIGHTSCF CHELPG PMODEL
| 29>
| 30> %scf
| 31> MaxIter 1000
| 32> end
| 33>
| 34> * xyz 0 1
| 35>   C                      5.326910             4.806322             -3.533113
| 36>   O                      6.034877             3.972360             -4.447765
| 37>   H                      6.237275             3.163824             -3.960999
| 38>   H                      6.014065             5.326131             -2.833834
| 39>   H                      4.817935             5.581777             -4.157801
| 40>   H                      4.623172             4.233674             -2.922331
| 41>   C                    : 2.403711             2.233500             -2.240277
| 42>   O                    : 2.961890             1.900304             -3.510987
| 43>   H                    : 2.285466             2.224040             -4.178838
| 44>   H                    : 3.212827             2.323104             -1.545528
| 45>   H                    : 1.740199             3.100437             -2.266122
| 46>   H                    : 1.691648             1.586078             -1.791668
| 47> *
| 48>
| 49> #Run DFT-D3 single point of the particle with dimer basis set
| 50> $new_job
| 51> %base "9-12_DFT_B"
| 52> ! wB97X-D3 def2-TZVP TIGHTSCF CHELPG PMODEL
| 53>
| 54> %scf
| 55> MaxIter 1000
| 56> end
| 57>
| 58> * xyz 0 1
| 59>   C                    : 5.326910             4.806322             -3.533113
| 60>   O                    : 6.034877             3.972360             -4.447765
| 61>   H                    : 6.237275             3.163824             -3.960999
| 62>   H                    : 6.014065             5.326131             -2.833834
| 63>   H                    : 4.817935             5.581777             -4.157801
| 64>   H                    : 4.623172             4.233674             -2.922331
| 65>   C                      2.403711             2.233500             -2.240277
| 66>   O                      2.961890             1.900304             -3.510987
| 67>   H                      2.285466             2.224040             -4.178838
| 68>   H                      3.212827             2.323104             -1.545528
| 69>   H                      1.740199             3.100437             -2.266122
| 70>   H                      1.691648             1.586078             -1.791668
| 71> *
| 72>
| 73>                          ****END OF INPUT****
 Total Charge           Charge          ....    0
 Multiplicity           Mult            ....    1
 Number of Electrons    NEL             ....   36
Dispersion correction           -0.001687786
FINAL SINGLE POINT ENERGY      -231.464867694430
Dispersion correction           -0.000242129
FINAL SINGLE POINT ENERGY      -115.735952306848

CARTESIAN COORDINATES (ANGSTROEM)
---------------------------------
  C      5.326910    4.806322   -3.533113
  O      6.034877    3.972360   -4.447765
  H      6.237275    3.163824   -3.960999
  H      6.014065    5.326131   -2.833834
  H      4.817935    5.581777   -4.157801
  H      4.623172    4.233674   -2.922331
  C      2.403711    2.233500   -2.240277
  O      2.961890    1.900304   -3.510987
  H      2.285466    2.224040   -4.178838
  H      3.212827    2.323104   -1.545528
  H      1.740199    3.100437   -2.266122
  H      1.691648    1.586078   -1.791668

 Multiplicity           Mult            ....    1
 Number of Electrons    NEL             ....   18
 Basis Dimension        Dim             ....  172

ORBITAL ENERGIES
----------------

  NO   OCC          E(Eh)            E(eV)
   0   2.0000     -19.239265      -523.5270
   1   2.0000     -10.307910      -280.4925
   2   2.0000      -1.128012       -30.6948
   3   2.0000      -0.800056       -21.7706
   4   2.0000      -0.615593       -16.7511
   5   2.0000      -0.528684       -14.3862
   6   2.0000      -0.524691       -14.2776
   7   2.0000      -0.447099       -12.1662
   8   2.0000      -0.371450       -10.1077
   9   0.0000       0.090615         2.4658
  10   0.0000       0.118141         3.2148
  11   0.0000       0.149205         4.0601
  12   0.0000       0.173224         4.7137
  13   0.0000       0.194600         5.2953

MULLIKEN ATOMIC CHARGES
-----------------------
   0 C :   -0.005005
   1 O :    0.000129
   2 H :   -0.000873
   3 H :   -0.000047
   4 H :    0.000248
   5 H :    0.003807
   6 C :   -0.186642
   7 O :   -0.463463
   8 H :    0.316245
   9 H :    0.123314
  10 H :    0.101922
  11 H :    0.110366
Sum of atomic charges:    0.0000000

LOEWDIN ATOMIC CHARGES
----------------------
   0 C :   -0.004058
   1 O :   -0.000392
   2 H :   -0.000932
   3 H :   -0.000049
   4 H :   -0.000068
   5 H :   -0.003491
   6 C :   -0.384791
   7 O :   -0.093213
   8 H :    0.195998
   9 H :    0.104197
  10 H :    0.097294
  11 H :    0.089505

  Mayer bond orders larger than 0.1
B(  6-C ,  7-O ) :   1.0047 B(  6-C ,  9-H ) :   0.9828 B(  6-C , 10-H ) :   0.9836
B(  6-C , 11-H ) :   0.9618 B(  7-O ,  8-H ) :   0.8963

Dispersion correction           -0.000253635
FINAL SINGLE POINT ENERGY      -115.726873199033

DIPOLE MOMENT
-------------
                                X             Y             Z
Electronic contribution:      0.94075      -0.54590      -1.60370
Nuclear contribution   :     -1.60299       0.86748       1.69864
                        -----------------------------------------
Total Dipole Moment    :     -0.66224       0.32159       0.09494
                        -----------------------------------------
Magnitude (a.u.)       :      0.74229
Magnitude (Debye)      :      1.88675

Rotational constants in cm-1:     4.439930     0.824090     0.774393
Rotational constants in MHz : 133105.744877 24705.605420 23215.716626

                             ****ORCA TERMINATED NORMALLY****
TOTAL RUN TIME: 0 days 0 hours 0 minutes 44 seconds 357 msec
