                         Program Version 4.1.2  - RELEASE  -
|  1> #Run DFT-D3 single point of the dimer
|  2> ! wB97X-D3 def2-TZVP TIGHTSCF CHELPG PMODEL PAL8
|  3>
|  4> %base "3-71_DFT_AB"
|  5>
|  6> %scf
|  7> MaxIter 1000
|  8> end
|  9>
| 10> * xyz 0 1
| 11>   C                      -4.944868            -6.379908            -6.736573
| 12>   O                      -6.142319            -5.643729            -6.610150
| 13>   H                      -6.328640            -5.442620            -7.501184
| 14>   H                      -4.130525            -5.985907            -6.044649
| 15>   H                      -5.172011            -7.357734            -6.328079
| 16>   H                      -4.478197            -6.584611            -7.685240
| 17>   C                      -10.334582           -4.254306            -5.781806
| 18>   O                      -9.139955            -3.452755            -5.800609
| 19>   H                      -8.833748            -3.296327            -6.693903
| 20>   H                      -10.701949           -4.294493            -4.818483
| 21>   H                      -11.133352           -3.759334            -6.328138
| 22>   H                      -10.229096           -5.277931            -6.251611
| 23> *
| 24>
| 25> #Run DFT-D3 single point of the molecule with dimer basis set
| 26> $new_job
| 27> %base "3-71_DFT_A"
| 28> ! wB97X-D3 def2-TZVP TIGHTSCF CHELPG PMODEL
| 29>
| 30> %scf
| 31> MaxIter 1000
| 32> end
| 33>
| 34> * xyz 0 1
| 35>   C                      -4.944868            -6.379908            -6.736573
| 36>   O                      -6.142319            -5.643729            -6.610150
| 37>   H                      -6.328640            -5.442620            -7.501184
| 38>   H                      -4.130525            -5.985907            -6.044649
| 39>   H                      -5.172011            -7.357734            -6.328079
| 40>   H                      -4.478197            -6.584611            -7.685240
| 41>   C                    : -10.334582           -4.254306            -5.781806
| 42>   O                    : -9.139955            -3.452755            -5.800609
| 43>   H                    : -8.833748            -3.296327            -6.693903
| 44>   H                    : -10.701949           -4.294493            -4.818483
| 45>   H                    : -11.133352           -3.759334            -6.328138
| 46>   H                    : -10.229096           -5.277931            -6.251611
| 47> *
| 48>
| 49> #Run DFT-D3 single point of the particle with dimer basis set
| 50> $new_job
| 51> %base "3-71_DFT_B"
| 52> ! wB97X-D3 def2-TZVP TIGHTSCF CHELPG PMODEL
| 53>
| 54> %scf
| 55> MaxIter 1000
| 56> end
| 57>
| 58> * xyz 0 1
| 59>   C                    : -4.944868            -6.379908            -6.736573
| 60>   O                    : -6.142319            -5.643729            -6.610150
| 61>   H                    : -6.328640            -5.442620            -7.501184
| 62>   H                    : -4.130525            -5.985907            -6.044649
| 63>   H                    : -5.172011            -7.357734            -6.328079
| 64>   H                    : -4.478197            -6.584611            -7.685240
| 65>   C                      -10.334582           -4.254306            -5.781806
| 66>   O                      -9.139955            -3.452755            -5.800609
| 67>   H                      -8.833748            -3.296327            -6.693903
| 68>   H                      -10.701949           -4.294493            -4.818483
| 69>   H                      -11.133352           -3.759334            -6.328138
| 70>   H                      -10.229096           -5.277931            -6.251611
| 71> *
| 72>
| 73>                          ****END OF INPUT****
 Total Charge           Charge          ....    0
 Multiplicity           Mult            ....    1
 Number of Electrons    NEL             ....   36
Dispersion correction           -0.000986236
FINAL SINGLE POINT ENERGY      -231.457642977519
Dispersion correction           -0.000252383
FINAL SINGLE POINT ENERGY      -115.726826751555

CARTESIAN COORDINATES (ANGSTROEM)
---------------------------------
  C     -4.944868   -6.379908   -6.736573
  O     -6.142319   -5.643729   -6.610150
  H     -6.328640   -5.442620   -7.501184
  H     -4.130525   -5.985907   -6.044649
  H     -5.172011   -7.357734   -6.328079
  H     -4.478197   -6.584611   -7.685240
  C    -10.334582   -4.254306   -5.781806
  O     -9.139955   -3.452755   -5.800609
  H     -8.833748   -3.296327   -6.693903
  H    -10.701949   -4.294493   -4.818483
  H    -11.133352   -3.759334   -6.328138
  H    -10.229096   -5.277931   -6.251611

 Multiplicity           Mult            ....    1
 Number of Electrons    NEL             ....   18
 Basis Dimension        Dim             ....  172

ORBITAL ENERGIES
----------------

  NO   OCC          E(Eh)            E(eV)
   0   2.0000     -19.229603      -523.2641
   1   2.0000     -10.312059      -280.6054
   2   2.0000      -1.127095       -30.6698
   3   2.0000      -0.803226       -21.8569
   4   2.0000      -0.608020       -16.5451
   5   2.0000      -0.538351       -14.6493
   6   2.0000      -0.527230       -14.3467
   7   2.0000      -0.434966       -11.8360
   8   2.0000      -0.373683       -10.1684
   9   0.0000       0.085455         2.3253
  10   0.0000       0.115400         3.1402
  11   0.0000       0.151366         4.1189
  12   0.0000       0.177315         4.8250
  13   0.0000       0.197901         5.3852

MULLIKEN ATOMIC CHARGES
-----------------------
   0 C :   -0.000215
   1 O :   -0.000831
   2 H :   -0.000962
   3 H :    0.000012
   4 H :    0.000010
   5 H :   -0.000003
   6 C :   -0.161017
   7 O :   -0.485944
   8 H :    0.315489
   9 H :    0.129312
  10 H :    0.102707
  11 H :    0.101442
Sum of atomic charges:   -0.0000000

LOEWDIN ATOMIC CHARGES
----------------------
   0 C :   -0.000080
   1 O :   -0.001150
   2 H :   -0.000671
   3 H :   -0.000001
   4 H :   -0.000002
   5 H :   -0.000002
   6 C :   -0.361220
   7 O :   -0.092087
   8 H :    0.163078
   9 H :    0.094614
  10 H :    0.094715
  11 H :    0.102807

  Mayer bond orders larger than 0.1
B(  6-C ,  7-O ) :   0.9969 B(  6-C ,  9-H ) :   0.9741 B(  6-C , 10-H ) :   0.9798
B(  6-C , 11-H ) :   0.9697 B(  7-O ,  8-H ) :   0.8978

Dispersion correction           -0.000264101
FINAL SINGLE POINT ENERGY      -115.732169851622

DIPOLE MOMENT
-------------
                                X             Y             Z
Electronic contribution:      1.53625       0.96956       0.20412
Nuclear contribution   :     -1.86882      -1.17703      -0.75580
                        -----------------------------------------
Total Dipole Moment    :     -0.33257      -0.20747      -0.55168
                        -----------------------------------------
Magnitude (a.u.)       :      0.67675
Magnitude (Debye)      :      1.72017

Rotational constants in cm-1:     4.441692     0.801481     0.776614
Rotational constants in MHz : 133158.562119 24027.783844 23282.296233

                             ****ORCA TERMINATED NORMALLY****
TOTAL RUN TIME: 0 days 0 hours 6 minutes 19 seconds 979 msec
