                         Program Version 4.1.2  - RELEASE  -
|  1> #Run DFT-D3 single point of the dimer
|  2> ! wB97X-D3 def2-TZVP TIGHTSCF CHELPG PMODEL PAL8
|  3>
|  4> %base "5-23_DFT_AB"
|  5>
|  6> %scf
|  7> MaxIter 1000
|  8> end
|  9>
| 10> * xyz 0 1
| 11>   C                      2.739132             -3.942480            -1.008213
| 12>   O                      1.753076             -3.898102            -0.067553
| 13>   H                      2.322324             -4.076974            0.640020
| 14>   H                      3.466281             -4.735064            -0.636827
| 15>   H                      2.402265             -4.144417            -2.020121
| 16>   H                      3.256188             -3.012980            -0.955926
| 17>   C                      -0.177212            -3.464075            -5.008626
| 18>   O                      0.599243             -4.170282            -5.964657
| 19>   H                      0.221244             -3.985069            -6.835843
| 20>   H                      -0.052295            -2.377234            -5.075351
| 21>   H                      -1.279764            -3.683136            -5.182851
| 22>   H                      0.041622             -3.838165            -4.030560
| 23> *
| 24>
| 25> #Run DFT-D3 single point of the molecule with dimer basis set
| 26> $new_job
| 27> %base "5-23_DFT_A"
| 28> ! wB97X-D3 def2-TZVP TIGHTSCF CHELPG PMODEL
| 29>
| 30> %scf
| 31> MaxIter 1000
| 32> end
| 33>
| 34> * xyz 0 1
| 35>   C                      2.739132             -3.942480            -1.008213
| 36>   O                      1.753076             -3.898102            -0.067553
| 37>   H                      2.322324             -4.076974            0.640020
| 38>   H                      3.466281             -4.735064            -0.636827
| 39>   H                      2.402265             -4.144417            -2.020121
| 40>   H                      3.256188             -3.012980            -0.955926
| 41>   C                    : -0.177212            -3.464075            -5.008626
| 42>   O                    : 0.599243             -4.170282            -5.964657
| 43>   H                    : 0.221244             -3.985069            -6.835843
| 44>   H                    : -0.052295            -2.377234            -5.075351
| 45>   H                    : -1.279764            -3.683136            -5.182851
| 46>   H                    : 0.041622             -3.838165            -4.030560
| 47> *
| 48>
| 49> #Run DFT-D3 single point of the particle with dimer basis set
| 50> $new_job
| 51> %base "5-23_DFT_B"
| 52> ! wB97X-D3 def2-TZVP TIGHTSCF CHELPG PMODEL
| 53>
| 54> %scf
| 55> MaxIter 1000
| 56> end
| 57>
| 58> * xyz 0 1
| 59>   C                    : 2.739132             -3.942480            -1.008213
| 60>   O                    : 1.753076             -3.898102            -0.067553
| 61>   H                    : 2.322324             -4.076974            0.640020
| 62>   H                    : 3.466281             -4.735064            -0.636827
| 63>   H                    : 2.402265             -4.144417            -2.020121
| 64>   H                    : 3.256188             -3.012980            -0.955926
| 65>   C                      -0.177212            -3.464075            -5.008626
| 66>   O                      0.599243             -4.170282            -5.964657
| 67>   H                      0.221244             -3.985069            -6.835843
| 68>   H                      -0.052295            -2.377234            -5.075351
| 69>   H                      -1.279764            -3.683136            -5.182851
| 70>   H                      0.041622             -3.838165            -4.030560
| 71> *
| 72>
| 73>                          ****END OF INPUT****
 Total Charge           Charge          ....    0
 Multiplicity           Mult            ....    1
 Number of Electrons    NEL             ....   36
Dispersion correction           -0.000771223
FINAL SINGLE POINT ENERGY      -231.455946395285
Dispersion correction           -0.000170215
FINAL SINGLE POINT ENERGY      -115.719840789191

CARTESIAN COORDINATES (ANGSTROEM)
---------------------------------
  C      2.739132   -3.942480   -1.008213
  O      1.753076   -3.898102   -0.067553
  H      2.322324   -4.076974    0.640020
  H      3.466281   -4.735064   -0.636827
  H      2.402265   -4.144417   -2.020121
  H      3.256188   -3.012980   -0.955926
  C     -0.177212   -3.464075   -5.008626
  O      0.599243   -4.170282   -5.964657
  H      0.221244   -3.985069   -6.835843
  H     -0.052295   -2.377234   -5.075351
  H     -1.279764   -3.683136   -5.182851
  H      0.041622   -3.838165   -4.030560

 Multiplicity           Mult            ....    1
 Number of Electrons    NEL             ....   18
 Basis Dimension        Dim             ....  172

ORBITAL ENERGIES
----------------

  NO   OCC          E(Eh)            E(eV)
   0   2.0000     -19.230570      -523.2904
   1   2.0000     -10.316036      -280.7136
   2   2.0000      -1.133361       -30.8403
   3   2.0000      -0.793365       -21.5886
   4   2.0000      -0.607866       -16.5409
   5   2.0000      -0.540678       -14.7126
   6   2.0000      -0.526648       -14.3308
   7   2.0000      -0.434808       -11.8317
   8   2.0000      -0.372637       -10.1400
   9   0.0000       0.089607         2.4383
  10   0.0000       0.113613         3.0916
  11   0.0000       0.150930         4.1070
  12   0.0000       0.172453         4.6927
  13   0.0000       0.183922         5.0048

MULLIKEN ATOMIC CHARGES
-----------------------
   0 C :   -0.000712
   1 O :    0.000018
   2 H :   -0.000002
   3 H :    0.000015
   4 H :    0.000993
   5 H :    0.000016
   6 C :   -0.171470
   7 O :   -0.474386
   8 H :    0.316114
   9 H :    0.106743
  10 H :    0.098920
  11 H :    0.123751
Sum of atomic charges:    0.0000000

LOEWDIN ATOMIC CHARGES
----------------------
   0 C :   -0.000259
   1 O :   -0.000005
   2 H :   -0.000000
   3 H :   -0.000001
   4 H :   -0.000402
   5 H :   -0.000003
   6 C :   -0.383515
   7 O :   -0.086288
   8 H :    0.172851
   9 H :    0.094222
  10 H :    0.101477
  11 H :    0.101922

  Mayer bond orders larger than 0.1
B(  6-C ,  7-O ) :   0.9996 B(  6-C ,  9-H ) :   0.9698 B(  6-C , 10-H ) :   0.9829
B(  6-C , 11-H ) :   0.9730 B(  7-O ,  8-H ) :   0.8984

Dispersion correction           -0.000240475
FINAL SINGLE POINT ENERGY      -115.735382058422

DIPOLE MOMENT
-------------
                                X             Y             Z
Electronic contribution:      1.20403      -0.91212      -1.05214
Nuclear contribution   :     -1.74451       1.29566       0.89080
                        -----------------------------------------
Total Dipole Moment    :     -0.54048       0.38354      -0.16134
                        -----------------------------------------
Magnitude (a.u.)       :      0.68209
Magnitude (Debye)      :      1.73374

Rotational constants in cm-1:     4.208580     0.825526     0.797264
Rotational constants in MHz : 126170.039589 24748.640147 23901.368330

                             ****ORCA TERMINATED NORMALLY****
TOTAL RUN TIME: 0 days 0 hours 0 minutes 52 seconds 238 msec
