                         Program Version 4.1.2  - RELEASE  -
|  1> #Run DFT-D3 single point of the dimer
|  2> ! wB97X-D3 def2-TZVP TIGHTSCF CHELPG PMODEL PAL8
|  3>
|  4> %base "8-12_DFT_AB"
|  5>
|  6> %scf
|  7> MaxIter 1000
|  8> end
|  9>
| 10> * xyz 0 1
| 11>   C                      -9.226378            6.819918             10.298666
| 12>   O                      -9.148091            8.189575             10.728169
| 13>   H                      -8.323087            8.375170             11.172389
| 14>   H                      -9.134527            6.692401             9.233474
| 15>   H                      -8.394565            6.254475             10.685698
| 16>   H                      -10.206823           6.394376             10.486377
| 17>   C                      -5.857692            3.293914             9.827698
| 18>   O                      -6.747446            4.192622             10.427490
| 19>   H                      -7.442084            4.299272             9.837414
| 20>   H                      -5.000361            3.085157             10.455396
| 21>   H                      -6.315586            2.270541             9.609744
| 22>   H                      -5.414708            3.642596             8.841099
| 23> *
| 24>
| 25> #Run DFT-D3 single point of the molecule with dimer basis set
| 26> $new_job
| 27> %base "8-12_DFT_A"
| 28> ! wB97X-D3 def2-TZVP TIGHTSCF CHELPG PMODEL
| 29>
| 30> %scf
| 31> MaxIter 1000
| 32> end
| 33>
| 34> * xyz 0 1
| 35>   C                      -9.226378            6.819918             10.298666
| 36>   O                      -9.148091            8.189575             10.728169
| 37>   H                      -8.323087            8.375170             11.172389
| 38>   H                      -9.134527            6.692401             9.233474
| 39>   H                      -8.394565            6.254475             10.685698
| 40>   H                      -10.206823           6.394376             10.486377
| 41>   C                    : -5.857692            3.293914             9.827698
| 42>   O                    : -6.747446            4.192622             10.427490
| 43>   H                    : -7.442084            4.299272             9.837414
| 44>   H                    : -5.000361            3.085157             10.455396
| 45>   H                    : -6.315586            2.270541             9.609744
| 46>   H                    : -5.414708            3.642596             8.841099
| 47> *
| 48>
| 49> #Run DFT-D3 single point of the particle with dimer basis set
| 50> $new_job
| 51> %base "8-12_DFT_B"
| 52> ! wB97X-D3 def2-TZVP TIGHTSCF CHELPG PMODEL
| 53>
| 54> %scf
| 55> MaxIter 1000
| 56> end
| 57>
| 58> * xyz 0 1
| 59>   C                    : -9.226378            6.819918             10.298666
| 60>   O                    : -9.148091            8.189575             10.728169
| 61>   H                    : -8.323087            8.375170             11.172389
| 62>   H                    : -9.134527            6.692401             9.233474
| 63>   H                    : -8.394565            6.254475             10.685698
| 64>   H                    : -10.206823           6.394376             10.486377
| 65>   C                      -5.857692            3.293914             9.827698
| 66>   O                      -6.747446            4.192622             10.427490
| 67>   H                      -7.442084            4.299272             9.837414
| 68>   H                      -5.000361            3.085157             10.455396
| 69>   H                      -6.315586            2.270541             9.609744
| 70>   H                      -5.414708            3.642596             8.841099
| 71> *
| 72>
| 73>                          ****END OF INPUT****
 Total Charge           Charge          ....    0
 Multiplicity           Mult            ....    1
 Number of Electrons    NEL             ....   36
Dispersion correction           -0.001340964
FINAL SINGLE POINT ENERGY      -231.465324976776
Dispersion correction           -0.000261324
FINAL SINGLE POINT ENERGY      -115.731655655695

CARTESIAN COORDINATES (ANGSTROEM)
---------------------------------
  C     -9.226378    6.819918   10.298666
  O     -9.148091    8.189575   10.728169
  H     -8.323087    8.375170   11.172389
  H     -9.134527    6.692401    9.233474
  H     -8.394565    6.254475   10.685698
  H    -10.206823    6.394376   10.486377
  C     -5.857692    3.293914    9.827698
  O     -6.747446    4.192622   10.427490
  H     -7.442084    4.299272    9.837414
  H     -5.000361    3.085157   10.455396
  H     -6.315586    2.270541    9.609744
  H     -5.414708    3.642596    8.841099

 Multiplicity           Mult            ....    1
 Number of Electrons    NEL             ....   18
 Basis Dimension        Dim             ....  172

ORBITAL ENERGIES
----------------

  NO   OCC          E(Eh)            E(eV)
   0   2.0000     -19.233153      -523.3607
   1   2.0000     -10.321532      -280.8632
   2   2.0000      -1.154050       -31.4033
   3   2.0000      -0.795563       -21.6484
   4   2.0000      -0.619431       -16.8556
   5   2.0000      -0.534599       -14.5472
   6   2.0000      -0.533744       -14.5239
   7   2.0000      -0.437128       -11.8949
   8   2.0000      -0.375787       -10.2257
   9   0.0000       0.084509         2.2996
  10   0.0000       0.126562         3.4439
  11   0.0000       0.151152         4.1131
  12   0.0000       0.173369         4.7176
  13   0.0000       0.196643         5.3509

MULLIKEN ATOMIC CHARGES
-----------------------
   0 C :    0.000438
   1 O :    0.000047
   2 H :   -0.000012
   3 H :   -0.000341
   4 H :   -0.006014
   5 H :   -0.000061
   6 C :   -0.174547
   7 O :   -0.444702
   8 H :    0.311884
   9 H :    0.124778
  10 H :    0.095330
  11 H :    0.093199
Sum of atomic charges:   -0.0000000

LOEWDIN ATOMIC CHARGES
----------------------
   0 C :   -0.003464
   1 O :   -0.000028
   2 H :   -0.000007
   3 H :   -0.000402
   4 H :   -0.006214
   5 H :   -0.000033
   6 C :   -0.406096
   7 O :   -0.033934
   8 H :    0.146754
   9 H :    0.105243
  10 H :    0.099862
  11 H :    0.098319

  Mayer bond orders larger than 0.1
B(  6-C ,  7-O ) :   1.0045 B(  6-C ,  9-H ) :   0.9753 B(  6-C , 10-H ) :   0.9736
B(  6-C , 11-H ) :   0.9711 B(  7-O ,  8-H ) :   0.9051

Dispersion correction           -0.000254922
FINAL SINGLE POINT ENERGY      -115.732693729257

DIPOLE MOMENT
-------------
                                X             Y             Z
Electronic contribution:     -1.14652       1.30510       0.99978
Nuclear contribution   :      1.05245      -1.57740      -1.58429
                        -----------------------------------------
Total Dipole Moment    :     -0.09407      -0.27230      -0.58451
                        -----------------------------------------
Magnitude (a.u.)       :      0.65166
Magnitude (Debye)      :      1.65638

Rotational constants in cm-1:     4.317816     0.829140     0.805616
Rotational constants in MHz : 129444.859904 24857.004096 24151.759261

                             ****ORCA TERMINATED NORMALLY****
TOTAL RUN TIME: 0 days 0 hours 0 minutes 45 seconds 70 msec
