                         Program Version 4.1.2  - RELEASE  -
|  1> #Run DFT-D3 single point of the dimer
|  2> ! wB97X-D3 def2-TZVP TIGHTSCF CHELPG PMODEL PAL8
|  3>
|  4> %base "8-20_DFT_AB"
|  5>
|  6> %scf
|  7> MaxIter 1000
|  8> end
|  9>
| 10> * xyz 0 1
| 11>   C                      0.003535             -5.877715            10.140912
| 12>   O                      0.318346             -4.605744            10.783172
| 13>   H                      1.007645             -4.757691            11.420423
| 14>   H                      -0.478516            -5.721957            9.157673
| 15>   H                      0.881340             -6.498868            10.075310
| 16>   H                      -0.767575            -6.350094            10.780891
| 17>   C                      1.287699             -10.807181           7.175785
| 18>   O                      0.970395             -11.955731           7.957377
| 19>   H                      1.683097             -11.967201           8.636519
| 20>   H                      0.541193             -10.685245           6.400318
| 21>   H                      1.188107             -9.926228            7.855099
| 22>   H                      2.275731             -10.846685           6.724405
| 23> *
| 24>
| 25> #Run DFT-D3 single point of the molecule with dimer basis set
| 26> $new_job
| 27> %base "8-20_DFT_A"
| 28> ! wB97X-D3 def2-TZVP TIGHTSCF CHELPG PMODEL
| 29>
| 30> %scf
| 31> MaxIter 1000
| 32> end
| 33>
| 34> * xyz 0 1
| 35>   C                      0.003535             -5.877715            10.140912
| 36>   O                      0.318346             -4.605744            10.783172
| 37>   H                      1.007645             -4.757691            11.420423
| 38>   H                      -0.478516            -5.721957            9.157673
| 39>   H                      0.881340             -6.498868            10.075310
| 40>   H                      -0.767575            -6.350094            10.780891
| 41>   C                    : 1.287699             -10.807181           7.175785
| 42>   O                    : 0.970395             -11.955731           7.957377
| 43>   H                    : 1.683097             -11.967201           8.636519
| 44>   H                    : 0.541193             -10.685245           6.400318
| 45>   H                    : 1.188107             -9.926228            7.855099
| 46>   H                    : 2.275731             -10.846685           6.724405
| 47> *
| 48>
| 49> #Run DFT-D3 single point of the particle with dimer basis set
| 50> $new_job
| 51> %base "8-20_DFT_B"
| 52> ! wB97X-D3 def2-TZVP TIGHTSCF CHELPG PMODEL
| 53>
| 54> %scf
| 55> MaxIter 1000
| 56> end
| 57>
| 58> * xyz 0 1
| 59>   C                    : 0.003535             -5.877715            10.140912
| 60>   O                    : 0.318346             -4.605744            10.783172
| 61>   H                    : 1.007645             -4.757691            11.420423
| 62>   H                    : -0.478516            -5.721957            9.157673
| 63>   H                    : 0.881340             -6.498868            10.075310
| 64>   H                    : -0.767575            -6.350094            10.780891
| 65>   C                      1.287699             -10.807181           7.175785
| 66>   O                      0.970395             -11.955731           7.957377
| 67>   H                      1.683097             -11.967201           8.636519
| 68>   H                      0.541193             -10.685245           6.400318
| 69>   H                      1.188107             -9.926228            7.855099
| 70>   H                      2.275731             -10.846685           6.724405
| 71> *
| 72>
| 73>                          ****END OF INPUT****
 Total Charge           Charge          ....    0
 Multiplicity           Mult            ....    1
 Number of Electrons    NEL             ....   36
Dispersion correction           -0.000596069
FINAL SINGLE POINT ENERGY      -231.468112468802
Dispersion correction           -0.000249233
FINAL SINGLE POINT ENERGY      -115.733451581366

CARTESIAN COORDINATES (ANGSTROEM)
---------------------------------
  C      0.003535   -5.877715   10.140912
  O      0.318346   -4.605744   10.783172
  H      1.007645   -4.757691   11.420423
  H     -0.478516   -5.721957    9.157673
  H      0.881340   -6.498868   10.075310
  H     -0.767575   -6.350094   10.780891
  C      1.287699  -10.807181    7.175785
  O      0.970395  -11.955731    7.957377
  H      1.683097  -11.967201    8.636519
  H      0.541193  -10.685245    6.400318
  H      1.188107   -9.926228    7.855099
  H      2.275731  -10.846685    6.724405

 Multiplicity           Mult            ....    1
 Number of Electrons    NEL             ....   18
 Basis Dimension        Dim             ....  172

ORBITAL ENERGIES
----------------

  NO   OCC          E(Eh)            E(eV)
   0   2.0000     -19.232078      -523.3315
   1   2.0000     -10.314263      -280.6654
   2   2.0000      -1.130970       -30.7753
   3   2.0000      -0.790651       -21.5147
   4   2.0000      -0.603124       -16.4118
   5   2.0000      -0.543637       -14.7931
   6   2.0000      -0.525039       -14.2870
   7   2.0000      -0.437730       -11.9112
   8   2.0000      -0.372554       -10.1377
   9   0.0000       0.083681         2.2771
  10   0.0000       0.111833         3.0431
  11   0.0000       0.147220         4.0061
  12   0.0000       0.166196         4.5224
  13   0.0000       0.182018         4.9530

MULLIKEN ATOMIC CHARGES
-----------------------
   0 C :    0.000044
   1 O :   -0.000002
   2 H :   -0.000000
   3 H :   -0.000013
   4 H :   -0.000127
   5 H :   -0.000008
   6 C :   -0.168342
   7 O :   -0.471970
   8 H :    0.314642
   9 H :    0.118681
  10 H :    0.100375
  11 H :    0.106721
Sum of atomic charges:   -0.0000000

LOEWDIN ATOMIC CHARGES
----------------------
   0 C :   -0.000058
   1 O :   -0.000001
   2 H :   -0.000000
   3 H :   -0.000005
   4 H :   -0.000073
   5 H :   -0.000001
   6 C :   -0.382707
   7 O :   -0.098242
   8 H :    0.183554
   9 H :    0.105086
  10 H :    0.099706
  11 H :    0.092740

  Mayer bond orders larger than 0.1
B(  6-C ,  7-O ) :   0.9972 B(  6-C ,  9-H ) :   0.9735 B(  6-C , 10-H ) :   0.9843
B(  6-C , 11-H ) :   0.9698 B(  7-O ,  8-H ) :   0.8994

Dispersion correction           -0.000225772
FINAL SINGLE POINT ENERGY      -115.734666443017

DIPOLE MOMENT
-------------
                                X             Y             Z
Electronic contribution:     -0.48278      -1.54115       0.80478
Nuclear contribution   :      1.03263       1.98245      -0.71023
                        -----------------------------------------
Total Dipole Moment    :      0.54986       0.44130       0.09455
                        -----------------------------------------
Magnitude (a.u.)       :      0.71135
Magnitude (Debye)      :      1.80812

Rotational constants in cm-1:     4.152612     0.828068     0.799426
Rotational constants in MHz : 124492.183698 24824.864434 23966.176288

                             ****ORCA TERMINATED NORMALLY****
TOTAL RUN TIME: 0 days 0 hours 0 minutes 37 seconds 873 msec
