                         Program Version 4.1.2  - RELEASE  -
|  1> #Run DFT-D3 single point of the dimer
|  2> ! wB97X-D3 def2-TZVP TIGHTSCF CHELPG PMODEL PAL8
|  3>
|  4> %base "6-0_DFT_AB"
|  5>
|  6> %scf
|  7> MaxIter 1000
|  8> end
|  9>
| 10> * xyz 0 1
| 11>   C                      3.221137             7.634066             8.195643
| 12>   O                      3.982834             7.118366             9.205529
| 13>   H                      4.894659             7.152275             8.965242
| 14>   H                      3.626544             8.552249             7.826368
| 15>   H                      3.290289             6.915142             7.335799
| 16>   H                      2.201108             7.700457             8.443460
| 17>   C                      0.171239             3.868132             9.450334
| 18>   O                      -0.209914            3.238640             10.630685
| 19>   H                      0.561177             2.798170             11.029478
| 20>   H                      1.166986             3.610783             9.100167
| 21>   H                      -0.447695            3.453236             8.613938
| 22>   H                      0.012283             4.950917             9.402501
| 23> *
| 24>
| 25> #Run DFT-D3 single point of the molecule with dimer basis set
| 26> $new_job
| 27> %base "6-0_DFT_A"
| 28> ! wB97X-D3 def2-TZVP TIGHTSCF CHELPG PMODEL
| 29>
| 30> %scf
| 31> MaxIter 1000
| 32> end
| 33>
| 34> * xyz 0 1
| 35>   C                      3.221137             7.634066             8.195643
| 36>   O                      3.982834             7.118366             9.205529
| 37>   H                      4.894659             7.152275             8.965242
| 38>   H                      3.626544             8.552249             7.826368
| 39>   H                      3.290289             6.915142             7.335799
| 40>   H                      2.201108             7.700457             8.443460
| 41>   C                    : 0.171239             3.868132             9.450334
| 42>   O                    : -0.209914            3.238640             10.630685
| 43>   H                    : 0.561177             2.798170             11.029478
| 44>   H                    : 1.166986             3.610783             9.100167
| 45>   H                    : -0.447695            3.453236             8.613938
| 46>   H                    : 0.012283             4.950917             9.402501
| 47> *
| 48>
| 49> #Run DFT-D3 single point of the particle with dimer basis set
| 50> $new_job
| 51> %base "6-0_DFT_B"
| 52> ! wB97X-D3 def2-TZVP TIGHTSCF CHELPG PMODEL
| 53>
| 54> %scf
| 55> MaxIter 1000
| 56> end
| 57>
| 58> * xyz 0 1
| 59>   C                    : 3.221137             7.634066             8.195643
| 60>   O                    : 3.982834             7.118366             9.205529
| 61>   H                    : 4.894659             7.152275             8.965242
| 62>   H                    : 3.626544             8.552249             7.826368
| 63>   H                    : 3.290289             6.915142             7.335799
| 64>   H                    : 2.201108             7.700457             8.443460
| 65>   C                      0.171239             3.868132             9.450334
| 66>   O                      -0.209914            3.238640             10.630685
| 67>   H                      0.561177             2.798170             11.029478
| 68>   H                      1.166986             3.610783             9.100167
| 69>   H                      -0.447695            3.453236             8.613938
| 70>   H                      0.012283             4.950917             9.402501
| 71> *
| 72>
| 73>                          ****END OF INPUT****
 Total Charge           Charge          ....    0
 Multiplicity           Mult            ....    1
 Number of Electrons    NEL             ....   36
Dispersion correction           -0.000788128
FINAL SINGLE POINT ENERGY      -231.463889880053
Dispersion correction           -0.000203949
FINAL SINGLE POINT ENERGY      -115.731313679078

CARTESIAN COORDINATES (ANGSTROEM)
---------------------------------
  C      3.221137    7.634066    8.195643
  O      3.982834    7.118366    9.205529
  H      4.894659    7.152275    8.965242
  H      3.626544    8.552249    7.826368
  H      3.290289    6.915142    7.335799
  H      2.201108    7.700457    8.443460
  C      0.171239    3.868132    9.450334
  O     -0.209914    3.238640   10.630685
  H      0.561177    2.798170   11.029478
  H      1.166986    3.610783    9.100167
  H     -0.447695    3.453236    8.613938
  H      0.012283    4.950917    9.402501

 Multiplicity           Mult            ....    1
 Number of Electrons    NEL             ....   18
 Basis Dimension        Dim             ....  172

ORBITAL ENERGIES
----------------

  NO   OCC          E(Eh)            E(eV)
   0   2.0000     -19.233426      -523.3681
   1   2.0000     -10.312735      -280.6238
   2   2.0000      -1.141244       -31.0548
   3   2.0000      -0.794120       -21.6091
   4   2.0000      -0.618480       -16.8297
   5   2.0000      -0.541769       -14.7423
   6   2.0000      -0.525636       -14.3033
   7   2.0000      -0.430635       -11.7182
   8   2.0000      -0.370790       -10.0897
   9   0.0000       0.082315         2.2399
  10   0.0000       0.113240         3.0814
  11   0.0000       0.143089         3.8937
  12   0.0000       0.167128         4.5478
  13   0.0000       0.184589         5.0229

MULLIKEN ATOMIC CHARGES
-----------------------
   0 C :   -0.000052
   1 O :    0.000027
   2 H :    0.000002
   3 H :   -0.000017
   4 H :   -0.000017
   5 H :   -0.000270
   6 C :   -0.164722
   7 O :   -0.469778
   8 H :    0.322098
   9 H :    0.101819
  10 H :    0.099597
  11 H :    0.111313
Sum of atomic charges:    0.0000000

LOEWDIN ATOMIC CHARGES
----------------------
   0 C :   -0.000228
   1 O :   -0.000009
   2 H :   -0.000001
   3 H :   -0.000004
   4 H :   -0.000027
   5 H :   -0.000230
   6 C :   -0.412707
   7 O :   -0.064939
   8 H :    0.180861
   9 H :    0.093926
  10 H :    0.104736
  11 H :    0.098622

  Mayer bond orders larger than 0.1
B(  6-C ,  7-O ) :   1.0184 B(  6-C ,  9-H ) :   0.9833 B(  6-C , 10-H ) :   0.9778
B(  6-C , 11-H ) :   0.9712 B(  7-O ,  8-H ) :   0.8938

Dispersion correction           -0.000256473
FINAL SINGLE POINT ENERGY      -115.732038013003

DIPOLE MOMENT
-------------
                                X             Y             Z
Electronic contribution:     -0.54518      -0.70402       1.72437
Nuclear contribution   :      1.20956       0.63437      -1.92040
                        -----------------------------------------
Total Dipole Moment    :      0.66437      -0.06965      -0.19602
                        -----------------------------------------
Magnitude (a.u.)       :      0.69618
Magnitude (Debye)      :      1.76955

Rotational constants in cm-1:     4.374615     0.840155     0.810406
Rotational constants in MHz : 131147.660143 25187.222463 24295.349316

                             ****ORCA TERMINATED NORMALLY****
TOTAL RUN TIME: 0 days 0 hours 1 minutes 0 seconds 962 msec
