                         Program Version 4.1.2  - RELEASE  -
|  1> #Run DFT-D3 single point of the dimer
|  2> ! wB97X-D3 def2-TZVP TIGHTSCF CHELPG PMODEL PAL8
|  3>
|  4> %base "11-112_DFT_AB"
|  5>
|  6> %scf
|  7> MaxIter 1000
|  8> end
|  9>
| 10> * xyz 0 1
| 11>   C                      -4.783363            4.112619             -2.570429
| 12>   O                      -6.170966            4.051347             -2.271669
| 13>   H                      -6.396381            3.112215             -2.297182
| 14>   H                      -4.677063            4.150604             -3.633048
| 15>   H                      -4.392991            5.100541             -2.206898
| 16>   H                      -4.210136            3.298748             -2.150329
| 17>   C                      -5.044066            0.404302             -1.663991
| 18>   O                      -6.434132            0.548854             -1.331317
| 19>   H                      -6.609572            0.645943             -0.347889
| 20>   H                      -4.488674            1.043460             -0.975449
| 21>   H                      -4.723905            -0.685298            -1.583405
| 22>   H                      -4.810426            0.769304             -2.685732
| 23> *
| 24>
| 25> #Run DFT-D3 single point of the molecule with dimer basis set
| 26> $new_job
| 27> %base "11-112_DFT_A"
| 28> ! wB97X-D3 def2-TZVP TIGHTSCF CHELPG PMODEL
| 29>
| 30> %scf
| 31> MaxIter 1000
| 32> end
| 33>
| 34> * xyz 0 1
| 35>   C                      -4.783363            4.112619             -2.570429
| 36>   O                      -6.170966            4.051347             -2.271669
| 37>   H                      -6.396381            3.112215             -2.297182
| 38>   H                      -4.677063            4.150604             -3.633048
| 39>   H                      -4.392991            5.100541             -2.206898
| 40>   H                      -4.210136            3.298748             -2.150329
| 41>   C                    : -5.044066            0.404302             -1.663991
| 42>   O                    : -6.434132            0.548854             -1.331317
| 43>   H                    : -6.609572            0.645943             -0.347889
| 44>   H                    : -4.488674            1.043460             -0.975449
| 45>   H                    : -4.723905            -0.685298            -1.583405
| 46>   H                    : -4.810426            0.769304             -2.685732
| 47> *
| 48>
| 49> #Run DFT-D3 single point of the particle with dimer basis set
| 50> $new_job
| 51> %base "11-112_DFT_B"
| 52> ! wB97X-D3 def2-TZVP TIGHTSCF CHELPG PMODEL
| 53>
| 54> %scf
| 55> MaxIter 1000
| 56> end
| 57>
| 58> * xyz 0 1
| 59>   C                    : -4.783363            4.112619             -2.570429
| 60>   O                    : -6.170966            4.051347             -2.271669
| 61>   H                    : -6.396381            3.112215             -2.297182
| 62>   H                    : -4.677063            4.150604             -3.633048
| 63>   H                    : -4.392991            5.100541             -2.206898
| 64>   H                    : -4.210136            3.298748             -2.150329
| 65>   C                      -5.044066            0.404302             -1.663991
| 66>   O                      -6.434132            0.548854             -1.331317
| 67>   H                      -6.609572            0.645943             -0.347889
| 68>   H                      -4.488674            1.043460             -0.975449
| 69>   H                      -4.723905            -0.685298            -1.583405
| 70>   H                      -4.810426            0.769304             -2.685732
| 71> *
| 72>
| 73>                          ****END OF INPUT****
 Total Charge           Charge          ....    0
 Multiplicity           Mult            ....    1
 Number of Electrons    NEL             ....   36
Dispersion correction           -0.002076497
FINAL SINGLE POINT ENERGY      -231.469795127560
Dispersion correction           -0.000231413
FINAL SINGLE POINT ENERGY      -115.734803916751

CARTESIAN COORDINATES (ANGSTROEM)
---------------------------------
  C     -4.783363    4.112619   -2.570429
  O     -6.170966    4.051347   -2.271669
  H     -6.396381    3.112215   -2.297182
  H     -4.677063    4.150604   -3.633048
  H     -4.392991    5.100541   -2.206898
  H     -4.210136    3.298748   -2.150329
  C     -5.044066    0.404302   -1.663991
  O     -6.434132    0.548854   -1.331317
  H     -6.609572    0.645943   -0.347889
  H     -4.488674    1.043460   -0.975449
  H     -4.723905   -0.685298   -1.583405
  H     -4.810426    0.769304   -2.685732

 Multiplicity           Mult            ....    1
 Number of Electrons    NEL             ....   18
 Basis Dimension        Dim             ....  172

ORBITAL ENERGIES
----------------

  NO   OCC          E(Eh)            E(eV)
   0   2.0000     -19.230318      -523.2836
   1   2.0000     -10.322269      -280.8832
   2   2.0000      -1.117560       -30.4104
   3   2.0000      -0.789929       -21.4951
   4   2.0000      -0.599202       -16.3051
   5   2.0000      -0.537093       -14.6150
   6   2.0000      -0.527380       -14.3507
   7   2.0000      -0.420903       -11.4533
   8   2.0000      -0.371512       -10.1094
   9   0.0000       0.088448         2.4068
  10   0.0000       0.114205         3.1077
  11   0.0000       0.151932         4.1343
  12   0.0000       0.177338         4.8256
  13   0.0000       0.190628         5.1872

MULLIKEN ATOMIC CHARGES
-----------------------
   0 C :    0.001457
   1 O :    0.000079
   2 H :   -0.005046
   3 H :   -0.000159
   4 H :   -0.000089
   5 H :   -0.003412
   6 C :   -0.152884
   7 O :   -0.498677
   8 H :    0.322793
   9 H :    0.106473
  10 H :    0.107606
  11 H :    0.121860
Sum of atomic charges:    0.0000000

LOEWDIN ATOMIC CHARGES
----------------------
   0 C :   -0.002885
   1 O :   -0.000622
   2 H :   -0.008604
   3 H :   -0.000090
   4 H :   -0.000011
   5 H :   -0.003827
   6 C :   -0.372153
   7 O :   -0.114600
   8 H :    0.190980
   9 H :    0.096669
  10 H :    0.104120
  11 H :    0.111023

  Mayer bond orders larger than 0.1
B(  6-C ,  7-O ) :   0.9815 B(  6-C ,  9-H ) :   0.9863 B(  6-C , 10-H ) :   0.9658
B(  6-C , 11-H ) :   0.9714 B(  7-O ,  8-H ) :   0.8858

Dispersion correction           -0.000268001
FINAL SINGLE POINT ENERGY      -115.730571910938

DIPOLE MOMENT
-------------
                                X             Y             Z
Electronic contribution:     -1.74567       0.16373       0.24219
Nuclear contribution   :      2.22036      -0.14176       0.25080
                        -----------------------------------------
Total Dipole Moment    :      0.47469       0.02197       0.49299
                        -----------------------------------------
Magnitude (a.u.)       :      0.68473
Magnitude (Debye)      :      1.74044

Rotational constants in cm-1:     4.157837     0.795536     0.775168
Rotational constants in MHz : 124648.824934 23849.563754 23238.941044

                             ****ORCA TERMINATED NORMALLY****
TOTAL RUN TIME: 0 days 0 hours 1 minutes 3 seconds 247 msec
