                         Program Version 4.1.2  - RELEASE  -
|  1> #Run DFT-D3 single point of the dimer
|  2> ! wB97X-D3 def2-TZVP TIGHTSCF CHELPG PMODEL PAL8
|  3>
|  4> %base "18-175_DFT_AB"
|  5>
|  6> %scf
|  7> MaxIter 1000
|  8> end
|  9>
| 10> * xyz 0 1
| 11>   C                      9.925954             -6.420002            5.620889
| 12>   O                      10.490536            -5.272316            4.984802
| 13>   H                      11.428557            -5.430266            4.760001
| 14>   H                      10.501692            -6.727917            6.512279
| 15>   H                      8.910272             -6.117019            5.875770
| 16>   H                      9.872958             -7.286562            4.970070
| 17>   C                      7.378320             -3.954781            4.521676
| 18>   O                      8.116649             -4.506537            3.446853
| 19>   H                      8.873261             -4.907880            3.859805
| 20>   H                      6.495553             -4.630764            4.758738
| 21>   H                      7.928167             -3.749875            5.420283
| 22>   H                      6.891392             -3.055149            4.237696
| 23> *
| 24>
| 25> #Run DFT-D3 single point of the molecule with dimer basis set
| 26> $new_job
| 27> %base "18-175_DFT_A"
| 28> ! wB97X-D3 def2-TZVP TIGHTSCF CHELPG PMODEL
| 29>
| 30> %scf
| 31> MaxIter 1000
| 32> end
| 33>
| 34> * xyz 0 1
| 35>   C                      9.925954             -6.420002            5.620889
| 36>   O                      10.490536            -5.272316            4.984802
| 37>   H                      11.428557            -5.430266            4.760001
| 38>   H                      10.501692            -6.727917            6.512279
| 39>   H                      8.910272             -6.117019            5.875770
| 40>   H                      9.872958             -7.286562            4.970070
| 41>   C                    : 7.378320             -3.954781            4.521676
| 42>   O                    : 8.116649             -4.506537            3.446853
| 43>   H                    : 8.873261             -4.907880            3.859805
| 44>   H                    : 6.495553             -4.630764            4.758738
| 45>   H                    : 7.928167             -3.749875            5.420283
| 46>   H                    : 6.891392             -3.055149            4.237696
| 47> *
| 48>
| 49> #Run DFT-D3 single point of the particle with dimer basis set
| 50> $new_job
| 51> %base "18-175_DFT_B"
| 52> ! wB97X-D3 def2-TZVP TIGHTSCF CHELPG PMODEL
| 53>
| 54> %scf
| 55> MaxIter 1000
| 56> end
| 57>
| 58> * xyz 0 1
| 59>   C                    : 9.925954             -6.420002            5.620889
| 60>   O                    : 10.490536            -5.272316            4.984802
| 61>   H                    : 11.428557            -5.430266            4.760001
| 62>   H                    : 10.501692            -6.727917            6.512279
| 63>   H                    : 8.910272             -6.117019            5.875770
| 64>   H                    : 9.872958             -7.286562            4.970070
| 65>   C                      7.378320             -3.954781            4.521676
| 66>   O                      8.116649             -4.506537            3.446853
| 67>   H                      8.873261             -4.907880            3.859805
| 68>   H                      6.495553             -4.630764            4.758738
| 69>   H                      7.928167             -3.749875            5.420283
| 70>   H                      6.891392             -3.055149            4.237696
| 71> *
| 72>
| 73>                          ****END OF INPUT****
 Total Charge           Charge          ....    0
 Multiplicity           Mult            ....    1
 Number of Electrons    NEL             ....   36
Dispersion correction           -0.002172749
FINAL SINGLE POINT ENERGY      -231.477228096599
Dispersion correction           -0.000253291
FINAL SINGLE POINT ENERGY      -115.736804276663

CARTESIAN COORDINATES (ANGSTROEM)
---------------------------------
  C      9.925954   -6.420002    5.620889
  O     10.490536   -5.272316    4.984802
  H     11.428557   -5.430266    4.760001
  H     10.501692   -6.727917    6.512279
  H      8.910272   -6.117019    5.875770
  H      9.872958   -7.286562    4.970070
  C      7.378320   -3.954781    4.521676
  O      8.116649   -4.506537    3.446853
  H      8.873261   -4.907880    3.859805
  H      6.495553   -4.630764    4.758738
  H      7.928167   -3.749875    5.420283
  H      6.891392   -3.055149    4.237696

 Multiplicity           Mult            ....    1
 Number of Electrons    NEL             ....   18
 Basis Dimension        Dim             ....  172

ORBITAL ENERGIES
----------------

  NO   OCC          E(Eh)            E(eV)
   0   2.0000     -19.233357      -523.3663
   1   2.0000     -10.311719      -280.5961
   2   2.0000      -1.141126       -31.0516
   3   2.0000      -0.797938       -21.7130
   4   2.0000      -0.615290       -16.7429
   5   2.0000      -0.532802       -14.4983
   6   2.0000      -0.531720       -14.4688
   7   2.0000      -0.445333       -12.1181
   8   2.0000      -0.371817       -10.1176
   9   0.0000       0.068644         1.8679
  10   0.0000       0.139842         3.8053
  11   0.0000       0.148320         4.0360
  12   0.0000       0.166319         4.5258
  13   0.0000       0.185235         5.0405

MULLIKEN ATOMIC CHARGES
-----------------------
   0 C :   -0.009104
   1 O :   -0.003851
   2 H :   -0.000452
   3 H :   -0.000311
   4 H :    0.002753
   5 H :    0.001030
   6 C :   -0.177454
   7 O :   -0.458246
   8 H :    0.314207
   9 H :    0.096443
  10 H :    0.112940
  11 H :    0.122044
Sum of atomic charges:    0.0000000

LOEWDIN ATOMIC CHARGES
----------------------
   0 C :   -0.011115
   1 O :   -0.015102
   2 H :   -0.000752
   3 H :   -0.000192
   4 H :   -0.003459
   5 H :   -0.000532
   6 C :   -0.382504
   7 O :   -0.056054
   8 H :    0.172561
   9 H :    0.105346
  10 H :    0.094226
  11 H :    0.097578

  Mayer bond orders larger than 0.1
B(  6-C ,  7-O ) :   0.9933 B(  6-C ,  9-H ) :   0.9797 B(  6-C , 10-H ) :   0.9745
B(  6-C , 11-H ) :   0.9784 B(  7-O ,  8-H ) :   0.9140

Dispersion correction           -0.000248062
FINAL SINGLE POINT ENERGY      -115.732944236881

DIPOLE MOMENT
-------------
                                X             Y             Z
Electronic contribution:      1.02210      -0.60053      -1.48592
Nuclear contribution   :     -0.82465       0.59984       2.16160
                        -----------------------------------------
Total Dipole Moment    :      0.19745      -0.00069       0.67568
                        -----------------------------------------
Magnitude (a.u.)       :      0.70394
Magnitude (Debye)      :      1.78927

Rotational constants in cm-1:     4.372848     0.828909     0.798092
Rotational constants in MHz : 131094.691894 24850.061808 23926.187324

                             ****ORCA TERMINATED NORMALLY****
TOTAL RUN TIME: 0 days 0 hours 1 minutes 2 seconds 200 msec
