                         Program Version 4.1.2  - RELEASE  -
|  1> #Run DFT-D3 single point of the dimer
|  2> ! wB97X-D3 def2-TZVP TIGHTSCF CHELPG PMODEL PAL8
|  3>
|  4> %base "17-160_DFT_AB"
|  5>
|  6> %scf
|  7> MaxIter 1000
|  8> end
|  9>
| 10> * xyz 0 1
| 11>   C                      3.960648             0.192770             -3.652873
| 12>   O                      4.726235             -0.559414            -4.649434
| 13>   H                      5.378450             -1.079402            -4.089084
| 14>   H                      3.013368             0.544674             -4.063479
| 15>   H                      3.811145             -0.298943            -2.709975
| 16>   H                      4.454191             1.085975             -3.448863
| 17>   C                      5.883173             0.533306             -8.003842
| 18>   O                      5.021030             -0.564613            -7.820799
| 19>   H                      4.841940             -0.573416            -6.877146
| 20>   H                      6.488032             0.635416             -7.090840
| 21>   H                      6.629714             0.371416             -8.743524
| 22>   H                      5.350123             1.407600             -8.375128
| 23> *
| 24>
| 25> #Run DFT-D3 single point of the molecule with dimer basis set
| 26> $new_job
| 27> %base "17-160_DFT_A"
| 28> ! wB97X-D3 def2-TZVP TIGHTSCF CHELPG PMODEL
| 29>
| 30> %scf
| 31> MaxIter 1000
| 32> end
| 33>
| 34> * xyz 0 1
| 35>   C                      3.960648             0.192770             -3.652873
| 36>   O                      4.726235             -0.559414            -4.649434
| 37>   H                      5.378450             -1.079402            -4.089084
| 38>   H                      3.013368             0.544674             -4.063479
| 39>   H                      3.811145             -0.298943            -2.709975
| 40>   H                      4.454191             1.085975             -3.448863
| 41>   C                    : 5.883173             0.533306             -8.003842
| 42>   O                    : 5.021030             -0.564613            -7.820799
| 43>   H                    : 4.841940             -0.573416            -6.877146
| 44>   H                    : 6.488032             0.635416             -7.090840
| 45>   H                    : 6.629714             0.371416             -8.743524
| 46>   H                    : 5.350123             1.407600             -8.375128
| 47> *
| 48>
| 49> #Run DFT-D3 single point of the particle with dimer basis set
| 50> $new_job
| 51> %base "17-160_DFT_B"
| 52> ! wB97X-D3 def2-TZVP TIGHTSCF CHELPG PMODEL
| 53>
| 54> %scf
| 55> MaxIter 1000
| 56> end
| 57>
| 58> * xyz 0 1
| 59>   C                    : 3.960648             0.192770             -3.652873
| 60>   O                    : 4.726235             -0.559414            -4.649434
| 61>   H                    : 5.378450             -1.079402            -4.089084
| 62>   H                    : 3.013368             0.544674             -4.063479
| 63>   H                    : 3.811145             -0.298943            -2.709975
| 64>   H                    : 4.454191             1.085975             -3.448863
| 65>   C                      5.883173             0.533306             -8.003842
| 66>   O                      5.021030             -0.564613            -7.820799
| 67>   H                      4.841940             -0.573416            -6.877146
| 68>   H                      6.488032             0.635416             -7.090840
| 69>   H                      6.629714             0.371416             -8.743524
| 70>   H                      5.350123             1.407600             -8.375128
| 71> *
| 72>
| 73>                          ****END OF INPUT****
 Total Charge           Charge          ....    0
 Multiplicity           Mult            ....    1
 Number of Electrons    NEL             ....   36
Dispersion correction           -0.001500498
FINAL SINGLE POINT ENERGY      -231.467364348549
Dispersion correction           -0.000251915
FINAL SINGLE POINT ENERGY      -115.728730374098

CARTESIAN COORDINATES (ANGSTROEM)
---------------------------------
  C      3.960648    0.192770   -3.652873
  O      4.726235   -0.559414   -4.649434
  H      5.378450   -1.079402   -4.089084
  H      3.013368    0.544674   -4.063479
  H      3.811145   -0.298943   -2.709975
  H      4.454191    1.085975   -3.448863
  C      5.883173    0.533306   -8.003842
  O      5.021030   -0.564613   -7.820799
  H      4.841940   -0.573416   -6.877146
  H      6.488032    0.635416   -7.090840
  H      6.629714    0.371416   -8.743524
  H      5.350123    1.407600   -8.375128

 Multiplicity           Mult            ....    1
 Number of Electrons    NEL             ....   18
 Basis Dimension        Dim             ....  172

ORBITAL ENERGIES
----------------

  NO   OCC          E(Eh)            E(eV)
   0   2.0000     -19.229990      -523.2746
   1   2.0000     -10.309163      -280.5266
   2   2.0000      -1.139978       -31.0204
   3   2.0000      -0.797051       -21.6889
   4   2.0000      -0.608534       -16.5590
   5   2.0000      -0.550285       -14.9740
   6   2.0000      -0.532742       -14.4967
   7   2.0000      -0.428762       -11.6672
   8   2.0000      -0.374880       -10.2010
   9   0.0000       0.067637         1.8405
  10   0.0000       0.125519         3.4155
  11   0.0000       0.153282         4.1710
  12   0.0000       0.164490         4.4760
  13   0.0000       0.190818         5.1924

MULLIKEN ATOMIC CHARGES
-----------------------
   0 C :   -0.000741
   1 O :   -0.001660
   2 H :   -0.000180
   3 H :    0.000011
   4 H :   -0.000008
   5 H :    0.000006
   6 C :   -0.167645
   7 O :   -0.464816
   8 H :    0.314089
   9 H :    0.101675
  10 H :    0.114136
  11 H :    0.105133
Sum of atomic charges:    0.0000000

LOEWDIN ATOMIC CHARGES
----------------------
   0 C :   -0.000979
   1 O :   -0.009233
   2 H :   -0.000555
   3 H :   -0.000088
   4 H :   -0.000027
   5 H :   -0.000024
   6 C :   -0.390102
   7 O :   -0.069107
   8 H :    0.174384
   9 H :    0.101393
  10 H :    0.097134
  11 H :    0.097204

  Mayer bond orders larger than 0.1
B(  6-C ,  7-O ) :   1.0022 B(  6-C ,  9-H ) :   0.9885 B(  6-C , 10-H ) :   0.9746
B(  6-C , 11-H ) :   0.9760 B(  7-O ,  8-H ) :   0.9106

Dispersion correction           -0.000231179
FINAL SINGLE POINT ENERGY      -115.730843718480

DIPOLE MOMENT
-------------
                                X             Y             Z
Electronic contribution:     -1.16875      -1.40464       0.08679
Nuclear contribution   :      1.42639       1.80961       0.41961
                        -----------------------------------------
Total Dipole Moment    :      0.25765       0.40498       0.50641
                        -----------------------------------------
Magnitude (a.u.)       :      0.69773
Magnitude (Debye)      :      1.77350

Rotational constants in cm-1:     4.346990     0.842407     0.812263
Rotational constants in MHz : 130319.493449 25254.721192 24351.018403

                             ****ORCA TERMINATED NORMALLY****
TOTAL RUN TIME: 0 days 0 hours 1 minutes 13 seconds 952 msec
