                         Program Version 4.1.2  - RELEASE  -
|  1> #Run DFT-D3 single point of the dimer
|  2> ! wB97X-D3 def2-TZVP TIGHTSCF CHELPG PMODEL PAL8
|  3>
|  4> %base "7-21_DFT_AB"
|  5>
|  6> %scf
|  7> MaxIter 1000
|  8> end
|  9>
| 10> * xyz 0 1
| 11>   C                      -1.043704            -4.234054            3.067058
| 12>   O                      -0.967894            -4.898226            4.364749
| 13>   H                      -1.811567            -5.220936            4.592340
| 14>   H                      -1.580061            -3.307889            3.073810
| 15>   H                      -0.006759            -3.989458            2.723288
| 16>   H                      -1.542091            -4.895781            2.312860
| 17>   C                      -5.076573            -6.879441            1.705663
| 18>   O                      -3.866430            -6.551945            2.291352
| 19>   H                      -3.217793            -7.265157            2.074985
| 20>   H                      -5.829489            -6.212226            1.964640
| 21>   H                      -5.003095            -6.860190            0.617543
| 22>   H                      -5.416746            -7.881705            2.055767
| 23> *
| 24>
| 25> #Run DFT-D3 single point of the molecule with dimer basis set
| 26> $new_job
| 27> %base "7-21_DFT_A"
| 28> ! wB97X-D3 def2-TZVP TIGHTSCF CHELPG PMODEL
| 29>
| 30> %scf
| 31> MaxIter 1000
| 32> end
| 33>
| 34> * xyz 0 1
| 35>   C                      -1.043704            -4.234054            3.067058
| 36>   O                      -0.967894            -4.898226            4.364749
| 37>   H                      -1.811567            -5.220936            4.592340
| 38>   H                      -1.580061            -3.307889            3.073810
| 39>   H                      -0.006759            -3.989458            2.723288
| 40>   H                      -1.542091            -4.895781            2.312860
| 41>   C                    : -5.076573            -6.879441            1.705663
| 42>   O                    : -3.866430            -6.551945            2.291352
| 43>   H                    : -3.217793            -7.265157            2.074985
| 44>   H                    : -5.829489            -6.212226            1.964640
| 45>   H                    : -5.003095            -6.860190            0.617543
| 46>   H                    : -5.416746            -7.881705            2.055767
| 47> *
| 48>
| 49> #Run DFT-D3 single point of the particle with dimer basis set
| 50> $new_job
| 51> %base "7-21_DFT_B"
| 52> ! wB97X-D3 def2-TZVP TIGHTSCF CHELPG PMODEL
| 53>
| 54> %scf
| 55> MaxIter 1000
| 56> end
| 57>
| 58> * xyz 0 1
| 59>   C                    : -1.043704            -4.234054            3.067058
| 60>   O                    : -0.967894            -4.898226            4.364749
| 61>   H                    : -1.811567            -5.220936            4.592340
| 62>   H                    : -1.580061            -3.307889            3.073810
| 63>   H                    : -0.006759            -3.989458            2.723288
| 64>   H                    : -1.542091            -4.895781            2.312860
| 65>   C                      -5.076573            -6.879441            1.705663
| 66>   O                      -3.866430            -6.551945            2.291352
| 67>   H                      -3.217793            -7.265157            2.074985
| 68>   H                      -5.829489            -6.212226            1.964640
| 69>   H                      -5.003095            -6.860190            0.617543
| 70>   H                      -5.416746            -7.881705            2.055767
| 71> *
| 72>
| 73>                          ****END OF INPUT****
 Total Charge           Charge          ....    0
 Multiplicity           Mult            ....    1
 Number of Electrons    NEL             ....   36
Dispersion correction           -0.001349275
FINAL SINGLE POINT ENERGY      -231.470054738898
Dispersion correction           -0.000268682
FINAL SINGLE POINT ENERGY      -115.733466762137

CARTESIAN COORDINATES (ANGSTROEM)
---------------------------------
  C     -1.043704   -4.234054    3.067058
  O     -0.967894   -4.898226    4.364749
  H     -1.811567   -5.220936    4.592340
  H     -1.580061   -3.307889    3.073810
  H     -0.006759   -3.989458    2.723288
  H     -1.542091   -4.895781    2.312860
  C     -5.076573   -6.879441    1.705663
  O     -3.866430   -6.551945    2.291352
  H     -3.217793   -7.265157    2.074985
  H     -5.829489   -6.212226    1.964640
  H     -5.003095   -6.860190    0.617543
  H     -5.416746   -7.881705    2.055767

 Multiplicity           Mult            ....    1
 Number of Electrons    NEL             ....   18
 Basis Dimension        Dim             ....  172

ORBITAL ENERGIES
----------------

  NO   OCC          E(Eh)            E(eV)
   0   2.0000     -19.232378      -523.3396
   1   2.0000     -10.306318      -280.4492
   2   2.0000      -1.141007       -31.0484
   3   2.0000      -0.796034       -21.6612
   4   2.0000      -0.610669       -16.6171
   5   2.0000      -0.546781       -14.8787
   6   2.0000      -0.538839       -14.6626
   7   2.0000      -0.429795       -11.6953
   8   2.0000      -0.371257       -10.1024
   9   0.0000       0.094956         2.5839
  10   0.0000       0.120627         3.2824
  11   0.0000       0.156949         4.2708
  12   0.0000       0.178418         4.8550
  13   0.0000       0.201832         5.4921

MULLIKEN ATOMIC CHARGES
-----------------------
   0 C :    0.005435
   1 O :    0.000161
   2 H :   -0.002097
   3 H :   -0.000582
   4 H :   -0.000252
   5 H :   -0.010847
   6 C :   -0.153985
   7 O :   -0.465995
   8 H :    0.320973
   9 H :    0.122944
  10 H :    0.096527
  11 H :    0.087718
Sum of atomic charges:    0.0000000

LOEWDIN ATOMIC CHARGES
----------------------
   0 C :   -0.003085
   1 O :   -0.000098
   2 H :   -0.001602
   3 H :   -0.000094
   4 H :   -0.000022
   5 H :   -0.006229
   6 C :   -0.404306
   7 O :   -0.060425
   8 H :    0.189995
   9 H :    0.095472
  10 H :    0.093177
  11 H :    0.097217

  Mayer bond orders larger than 0.1
B(  6-C ,  7-O ) :   1.0018 B(  6-C ,  9-H ) :   0.9733 B(  6-C , 10-H ) :   0.9784
B(  6-C , 11-H ) :   0.9798 B(  7-O ,  8-H ) :   0.8901

Dispersion correction           -0.000222036
FINAL SINGLE POINT ENERGY      -115.733565769394

DIPOLE MOMENT
-------------
                                X             Y             Z
Electronic contribution:      1.48958       0.63089       0.83152
Nuclear contribution   :     -1.57075      -1.18623      -1.18304
                        -----------------------------------------
Total Dipole Moment    :     -0.08117      -0.55534      -0.35153
                        -----------------------------------------
Magnitude (a.u.)       :      0.66224
Magnitude (Debye)      :      1.68327

Rotational constants in cm-1:     4.335784     0.858140     0.833127
Rotational constants in MHz : 129983.528628 25726.385488 24976.526325

                             ****ORCA TERMINATED NORMALLY****
TOTAL RUN TIME: 0 days 0 hours 1 minutes 3 seconds 757 msec
