                         Program Version 4.1.2  - RELEASE  -
|  1> #Run DFT-D3 single point of the dimer
|  2> ! wB97X-D3 def2-TZVP TIGHTSCF CHELPG PMODEL PAL8
|  3>
|  4> %base "14-163_DFT_AB"
|  5>
|  6> %scf
|  7> MaxIter 1000
|  8> end
|  9>
| 10> * xyz 0 1
| 11>   C                      -6.678726            -10.508083           10.082047
| 12>   O                      -5.594755            -9.927584            9.249934
| 13>   H                      -5.655148            -8.966661            9.443922
| 14>   H                      -7.680052            -9.990854            9.812203
| 15>   H                      -6.735201            -11.601682           9.835282
| 16>   H                      -6.498753            -10.459057           11.188666
| 17>   C                      -6.993462            -10.794361           6.233860
| 18>   O                      -5.671768            -10.226772           6.475608
| 19>   H                      -5.579415            -9.997367            7.388606
| 20>   H                      -6.929852            -11.490396           5.425973
| 21>   H                      -7.264656            -11.413484           7.076824
| 22>   H                      -7.809170            -10.042141           6.037283
| 23> *
| 24>
| 25> #Run DFT-D3 single point of the molecule with dimer basis set
| 26> $new_job
| 27> %base "14-163_DFT_A"
| 28> ! wB97X-D3 def2-TZVP TIGHTSCF CHELPG PMODEL
| 29>
| 30> %scf
| 31> MaxIter 1000
| 32> end
| 33>
| 34> * xyz 0 1
| 35>   C                      -6.678726            -10.508083           10.082047
| 36>   O                      -5.594755            -9.927584            9.249934
| 37>   H                      -5.655148            -8.966661            9.443922
| 38>   H                      -7.680052            -9.990854            9.812203
| 39>   H                      -6.735201            -11.601682           9.835282
| 40>   H                      -6.498753            -10.459057           11.188666
| 41>   C                    : -6.993462            -10.794361           6.233860
| 42>   O                    : -5.671768            -10.226772           6.475608
| 43>   H                    : -5.579415            -9.997367            7.388606
| 44>   H                    : -6.929852            -11.490396           5.425973
| 45>   H                    : -7.264656            -11.413484           7.076824
| 46>   H                    : -7.809170            -10.042141           6.037283
| 47> *
| 48>
| 49> #Run DFT-D3 single point of the particle with dimer basis set
| 50> $new_job
| 51> %base "14-163_DFT_B"
| 52> ! wB97X-D3 def2-TZVP TIGHTSCF CHELPG PMODEL
| 53>
| 54> %scf
| 55> MaxIter 1000
| 56> end
| 57>
| 58> * xyz 0 1
| 59>   C                    : -6.678726            -10.508083           10.082047
| 60>   O                    : -5.594755            -9.927584            9.249934
| 61>   H                    : -5.655148            -8.966661            9.443922
| 62>   H                    : -7.680052            -9.990854            9.812203
| 63>   H                    : -6.735201            -11.601682           9.835282
| 64>   H                    : -6.498753            -10.459057           11.188666
| 65>   C                      -6.993462            -10.794361           6.233860
| 66>   O                      -5.671768            -10.226772           6.475608
| 67>   H                      -5.579415            -9.997367            7.388606
| 68>   H                      -6.929852            -11.490396           5.425973
| 69>   H                      -7.264656            -11.413484           7.076824
| 70>   H                      -7.809170            -10.042141           6.037283
| 71> *
| 72>
| 73>                          ****END OF INPUT****
 Total Charge           Charge          ....    0
 Multiplicity           Mult            ....    1
 Number of Electrons    NEL             ....   36
Dispersion correction           -0.002150549
FINAL SINGLE POINT ENERGY      -231.470548107330
Dispersion correction           -0.000284771
FINAL SINGLE POINT ENERGY      -115.730169277746

CARTESIAN COORDINATES (ANGSTROEM)
---------------------------------
  C     -6.678726  -10.508083   10.082047
  O     -5.594755   -9.927584    9.249934
  H     -5.655148   -8.966661    9.443922
  H     -7.680052   -9.990854    9.812203
  H     -6.735201  -11.601682    9.835282
  H     -6.498753  -10.459057   11.188666
  C     -6.993462  -10.794361    6.233860
  O     -5.671768  -10.226772    6.475608
  H     -5.579415   -9.997367    7.388606
  H     -6.929852  -11.490396    5.425973
  H     -7.264656  -11.413484    7.076824
  H     -7.809170  -10.042141    6.037283

 Multiplicity           Mult            ....    1
 Number of Electrons    NEL             ....   18
 Basis Dimension        Dim             ....  172

ORBITAL ENERGIES
----------------

  NO   OCC          E(Eh)            E(eV)
   0   2.0000     -19.228890      -523.2447
   1   2.0000     -10.317248      -280.7466
   2   2.0000      -1.124915       -30.6105
   3   2.0000      -0.800947       -21.7949
   4   2.0000      -0.604604       -16.4521
   5   2.0000      -0.538400       -14.6506
   6   2.0000      -0.524691       -14.2776
   7   2.0000      -0.432419       -11.7667
   8   2.0000      -0.377907       -10.2834
   9   0.0000       0.069097         1.8802
  10   0.0000       0.135782         3.6948
  11   0.0000       0.144020         3.9190
  12   0.0000       0.166101         4.5198
  13   0.0000       0.191321         5.2061

MULLIKEN ATOMIC CHARGES
-----------------------
   0 C :   -0.000115
   1 O :   -0.006430
   2 H :   -0.000851
   3 H :   -0.000163
   4 H :    0.000061
   5 H :   -0.000009
   6 C :   -0.168686
   7 O :   -0.481356
   8 H :    0.315454
   9 H :    0.125595
  10 H :    0.109693
  11 H :    0.106806
Sum of atomic charges:    0.0000000

LOEWDIN ATOMIC CHARGES
----------------------
   0 C :   -0.005543
   1 O :   -0.024500
   2 H :   -0.002621
   3 H :   -0.000392
   4 H :   -0.000948
   5 H :   -0.000064
   6 C :   -0.346861
   7 O :   -0.087060
   8 H :    0.165367
   9 H :    0.101839
  10 H :    0.096944
  11 H :    0.103838

  Mayer bond orders larger than 0.1
B(  6-C ,  7-O ) :   0.9887 B(  6-C ,  9-H ) :   0.9759 B(  6-C , 10-H ) :   0.9797
B(  6-C , 11-H ) :   0.9685 B(  7-O ,  8-H ) :   0.9089

Dispersion correction           -0.000269311
FINAL SINGLE POINT ENERGY      -115.733346140062

DIPOLE MOMENT
-------------
                                X             Y             Z
Electronic contribution:      1.65162       0.73249       0.12621
Nuclear contribution   :     -2.14649      -0.86749       0.36293
                        -----------------------------------------
Total Dipole Moment    :     -0.49487      -0.13500       0.48914
                        -----------------------------------------
Magnitude (a.u.)       :      0.70879
Magnitude (Debye)      :      1.80159

Rotational constants in cm-1:     4.371272     0.781991     0.765625
Rotational constants in MHz : 131047.445213 23443.505152 22952.863886

                             ****ORCA TERMINATED NORMALLY****
TOTAL RUN TIME: 0 days 0 hours 1 minutes 11 seconds 513 msec
