                         Program Version 4.1.2  - RELEASE  -
|  1> #Run DFT-D3 single point of the dimer
|  2> ! wB97X-D3 def2-TZVP TIGHTSCF CHELPG PMODEL PAL8
|  3>
|  4> %base "2-147_DFT_AB"
|  5>
|  6> %scf
|  7> MaxIter 1000
|  8> end
|  9>
| 10> * xyz 0 1
| 11>   C                      -7.182048            -8.914908            3.368324
| 12>   O                      -6.336244            -8.077755            4.031345
| 13>   H                      -5.764151            -7.687476            3.377439
| 14>   H                      -8.127755            -8.413409            3.198987
| 15>   H                      -6.764241            -9.326765            2.460549
| 16>   H                      -7.566545            -9.683697            3.982529
| 17>   C                      -8.801151            -5.176903            1.326026
| 18>   O                      -7.588166            -4.639447            1.941820
| 19>   H                      -7.759714            -4.025085            2.664216
| 20>   H                      -9.543491            -4.380215            1.067353
| 21>   H                      -8.560463            -5.647646            0.312321
| 22>   H                      -9.253285            -5.901866            1.946932
| 23> *
| 24>
| 25> #Run DFT-D3 single point of the molecule with dimer basis set
| 26> $new_job
| 27> %base "2-147_DFT_A"
| 28> ! wB97X-D3 def2-TZVP TIGHTSCF CHELPG PMODEL
| 29>
| 30> %scf
| 31> MaxIter 1000
| 32> end
| 33>
| 34> * xyz 0 1
| 35>   C                      -7.182048            -8.914908            3.368324
| 36>   O                      -6.336244            -8.077755            4.031345
| 37>   H                      -5.764151            -7.687476            3.377439
| 38>   H                      -8.127755            -8.413409            3.198987
| 39>   H                      -6.764241            -9.326765            2.460549
| 40>   H                      -7.566545            -9.683697            3.982529
| 41>   C                    : -8.801151            -5.176903            1.326026
| 42>   O                    : -7.588166            -4.639447            1.941820
| 43>   H                    : -7.759714            -4.025085            2.664216
| 44>   H                    : -9.543491            -4.380215            1.067353
| 45>   H                    : -8.560463            -5.647646            0.312321
| 46>   H                    : -9.253285            -5.901866            1.946932
| 47> *
| 48>
| 49> #Run DFT-D3 single point of the particle with dimer basis set
| 50> $new_job
| 51> %base "2-147_DFT_B"
| 52> ! wB97X-D3 def2-TZVP TIGHTSCF CHELPG PMODEL
| 53>
| 54> %scf
| 55> MaxIter 1000
| 56> end
| 57>
| 58> * xyz 0 1
| 59>   C                    : -7.182048            -8.914908            3.368324
| 60>   O                    : -6.336244            -8.077755            4.031345
| 61>   H                    : -5.764151            -7.687476            3.377439
| 62>   H                    : -8.127755            -8.413409            3.198987
| 63>   H                    : -6.764241            -9.326765            2.460549
| 64>   H                    : -7.566545            -9.683697            3.982529
| 65>   C                      -8.801151            -5.176903            1.326026
| 66>   O                      -7.588166            -4.639447            1.941820
| 67>   H                      -7.759714            -4.025085            2.664216
| 68>   H                      -9.543491            -4.380215            1.067353
| 69>   H                      -8.560463            -5.647646            0.312321
| 70>   H                      -9.253285            -5.901866            1.946932
| 71> *
| 72>
| 73>                          ****END OF INPUT****
 Total Charge           Charge          ....    0
 Multiplicity           Mult            ....    1
 Number of Electrons    NEL             ....   36
Dispersion correction           -0.001211880
FINAL SINGLE POINT ENERGY      -231.461844025610
Dispersion correction           -0.000217105
FINAL SINGLE POINT ENERGY      -115.729131008580

CARTESIAN COORDINATES (ANGSTROEM)
---------------------------------
  C     -7.182048   -8.914908    3.368324
  O     -6.336244   -8.077755    4.031345
  H     -5.764151   -7.687476    3.377439
  H     -8.127755   -8.413409    3.198987
  H     -6.764241   -9.326765    2.460549
  H     -7.566545   -9.683697    3.982529
  C     -8.801151   -5.176903    1.326026
  O     -7.588166   -4.639447    1.941820
  H     -7.759714   -4.025085    2.664216
  H     -9.543491   -4.380215    1.067353
  H     -8.560463   -5.647646    0.312321
  H     -9.253285   -5.901866    1.946932

 Multiplicity           Mult            ....    1
 Number of Electrons    NEL             ....   18
 Basis Dimension        Dim             ....  172

ORBITAL ENERGIES
----------------

  NO   OCC          E(Eh)            E(eV)
   0   2.0000     -19.228647      -523.2381
   1   2.0000     -10.322140      -280.8797
   2   2.0000      -1.117474       -30.4080
   3   2.0000      -0.797249       -21.6943
   4   2.0000      -0.602047       -16.3825
   5   2.0000      -0.542353       -14.7582
   6   2.0000      -0.514867       -14.0102
   7   2.0000      -0.425214       -11.5707
   8   2.0000      -0.376765       -10.2523
   9   0.0000       0.090873         2.4728
  10   0.0000       0.120732         3.2853
  11   0.0000       0.145018         3.9461
  12   0.0000       0.176225         4.7953
  13   0.0000       0.189293         5.1509

MULLIKEN ATOMIC CHARGES
-----------------------
   0 C :   -0.000395
   1 O :   -0.000119
   2 H :   -0.000894
   3 H :    0.000588
   4 H :   -0.000034
   5 H :    0.000041
   6 C :   -0.172731
   7 O :   -0.496084
   8 H :    0.317084
   9 H :    0.111538
  10 H :    0.121959
  11 H :    0.119046
Sum of atomic charges:    0.0000000

LOEWDIN ATOMIC CHARGES
----------------------
   0 C :   -0.000429
   1 O :   -0.000197
   2 H :   -0.000825
   3 H :   -0.000505
   4 H :   -0.000011
   5 H :   -0.000008
   6 C :   -0.353863
   7 O :   -0.116044
   8 H :    0.164759
   9 H :    0.100913
  10 H :    0.119595
  11 H :    0.086615

  Mayer bond orders larger than 0.1
B(  6-C ,  7-O ) :   0.9858 B(  6-C ,  9-H ) :   0.9739 B(  6-C , 10-H ) :   0.9714
B(  6-C , 11-H ) :   0.9707 B(  7-O ,  8-H ) :   0.8946

Dispersion correction           -0.000286442
FINAL SINGLE POINT ENERGY      -115.731059610364

DIPOLE MOMENT
-------------
                                X             Y             Z
Electronic contribution:      1.54272       0.55502       0.78229
Nuclear contribution   :     -2.19204      -0.38606      -0.58643
                        -----------------------------------------
Total Dipole Moment    :     -0.64932       0.16896       0.19586
                        -----------------------------------------
Magnitude (a.u.)       :      0.69895
Magnitude (Debye)      :      1.77658

Rotational constants in cm-1:     4.313445     0.773016     0.749433
Rotational constants in MHz : 129313.822943 23174.426522 22467.440328

                             ****ORCA TERMINATED NORMALLY****
TOTAL RUN TIME: 0 days 0 hours 6 minutes 24 seconds 366 msec
