                         Program Version 4.1.2  - RELEASE  -
|  1> #Run DFT-D3 single point of the dimer
|  2> ! wB97X-D3 def2-TZVP TIGHTSCF CHELPG PMODEL PAL8
|  3>
|  4> %base "20-98_DFT_AB"
|  5>
|  6> %scf
|  7> MaxIter 1000
|  8> end
|  9>
| 10> * xyz 0 1
| 11>   C                      5.267570             -1.081642            8.103618
| 12>   O                      4.867190             -2.109481            8.947615
| 13>   H                      3.963623             -1.847875            9.170114
| 14>   H                      5.623439             -0.273538            8.761835
| 15>   H                      6.051549             -1.305107            7.366669
| 16>   H                      4.404855             -0.674548            7.564045
| 17>   C                      8.943236             -1.585982            9.052341
| 18>   O                      9.317679             -1.496538            10.405811
| 19>   H                      9.518352             -2.346955            10.770967
| 20>   H                      9.718151             -1.971585            8.443758
| 21>   H                      8.064628             -2.168746            8.922126
| 22>   H                      8.809738             -0.610024            8.567718
| 23> *
| 24>
| 25> #Run DFT-D3 single point of the molecule with dimer basis set
| 26> $new_job
| 27> %base "20-98_DFT_A"
| 28> ! wB97X-D3 def2-TZVP TIGHTSCF CHELPG PMODEL
| 29>
| 30> %scf
| 31> MaxIter 1000
| 32> end
| 33>
| 34> * xyz 0 1
| 35>   C                      5.267570             -1.081642            8.103618
| 36>   O                      4.867190             -2.109481            8.947615
| 37>   H                      3.963623             -1.847875            9.170114
| 38>   H                      5.623439             -0.273538            8.761835
| 39>   H                      6.051549             -1.305107            7.366669
| 40>   H                      4.404855             -0.674548            7.564045
| 41>   C                    : 8.943236             -1.585982            9.052341
| 42>   O                    : 9.317679             -1.496538            10.405811
| 43>   H                    : 9.518352             -2.346955            10.770967
| 44>   H                    : 9.718151             -1.971585            8.443758
| 45>   H                    : 8.064628             -2.168746            8.922126
| 46>   H                    : 8.809738             -0.610024            8.567718
| 47> *
| 48>
| 49> #Run DFT-D3 single point of the particle with dimer basis set
| 50> $new_job
| 51> %base "20-98_DFT_B"
| 52> ! wB97X-D3 def2-TZVP TIGHTSCF CHELPG PMODEL
| 53>
| 54> %scf
| 55> MaxIter 1000
| 56> end
| 57>
| 58> * xyz 0 1
| 59>   C                    : 5.267570             -1.081642            8.103618
| 60>   O                    : 4.867190             -2.109481            8.947615
| 61>   H                    : 3.963623             -1.847875            9.170114
| 62>   H                    : 5.623439             -0.273538            8.761835
| 63>   H                    : 6.051549             -1.305107            7.366669
| 64>   H                    : 4.404855             -0.674548            7.564045
| 65>   C                      8.943236             -1.585982            9.052341
| 66>   O                      9.317679             -1.496538            10.405811
| 67>   H                      9.518352             -2.346955            10.770967
| 68>   H                      9.718151             -1.971585            8.443758
| 69>   H                      8.064628             -2.168746            8.922126
| 70>   H                      8.809738             -0.610024            8.567718
| 71> *
| 72>
| 73>                          ****END OF INPUT****
 Total Charge           Charge          ....    0
 Multiplicity           Mult            ....    1
 Number of Electrons    NEL             ....   36
Dispersion correction           -0.001556600
FINAL SINGLE POINT ENERGY      -231.464767939709
Dispersion correction           -0.000211190
FINAL SINGLE POINT ENERGY      -115.730952536370

CARTESIAN COORDINATES (ANGSTROEM)
---------------------------------
  C      5.267570   -1.081642    8.103618
  O      4.867190   -2.109481    8.947615
  H      3.963623   -1.847875    9.170114
  H      5.623439   -0.273538    8.761835
  H      6.051549   -1.305107    7.366669
  H      4.404855   -0.674548    7.564045
  C      8.943236   -1.585982    9.052341
  O      9.317679   -1.496538   10.405811
  H      9.518352   -2.346955   10.770967
  H      9.718151   -1.971585    8.443758
  H      8.064628   -2.168746    8.922126
  H      8.809738   -0.610024    8.567718

 Multiplicity           Mult            ....    1
 Number of Electrons    NEL             ....   18
 Basis Dimension        Dim             ....  172

ORBITAL ENERGIES
----------------

  NO   OCC          E(Eh)            E(eV)
   0   2.0000     -19.227187      -523.1984
   1   2.0000     -10.305476      -280.4262
   2   2.0000      -1.137547       -30.9542
   3   2.0000      -0.804306       -21.8863
   4   2.0000      -0.615615       -16.7517
   5   2.0000      -0.552343       -15.0300
   6   2.0000      -0.526268       -14.3205
   7   2.0000      -0.425732       -11.5847
   8   2.0000      -0.375216       -10.2101
   9   0.0000       0.086809         2.3622
  10   0.0000       0.121490         3.3059
  11   0.0000       0.147278         4.0076
  12   0.0000       0.175671         4.7802
  13   0.0000       0.186696         5.0803

MULLIKEN ATOMIC CHARGES
-----------------------
   0 C :   -0.000919
   1 O :   -0.000000
   2 H :   -0.000004
   3 H :    0.000775
   4 H :   -0.000974
   5 H :   -0.000050
   6 C :   -0.155629
   7 O :   -0.483117
   8 H :    0.315925
   9 H :    0.105446
  10 H :    0.103996
  11 H :    0.114550
Sum of atomic charges:    0.0000000

LOEWDIN ATOMIC CHARGES
----------------------
   0 C :   -0.005193
   1 O :   -0.000335
   2 H :   -0.000024
   3 H :   -0.000562
   4 H :   -0.002106
   5 H :   -0.000040
   6 C :   -0.380086
   7 O :   -0.065233
   8 H :    0.160558
   9 H :    0.088668
  10 H :    0.091085
  11 H :    0.113268

  Mayer bond orders larger than 0.1
B(  6-C ,  7-O ) :   0.9956 B(  6-C ,  9-H ) :   0.9751 B(  6-C , 10-H ) :   0.9793
B(  6-C , 11-H ) :   0.9723 B(  7-O ,  8-H ) :   0.8970

Dispersion correction           -0.000240164
FINAL SINGLE POINT ENERGY      -115.732620947641

DIPOLE MOMENT
-------------
                                X             Y             Z
Electronic contribution:      0.41589       0.19677       1.78856
Nuclear contribution   :     -0.42187      -0.78445      -2.12018
                        -----------------------------------------
Total Dipole Moment    :     -0.00598      -0.58768      -0.33162
                        -----------------------------------------
Magnitude (a.u.)       :      0.67481
Magnitude (Debye)      :      1.71523

Rotational constants in cm-1:     4.611048     0.829614     0.803873
Rotational constants in MHz : 138235.755750 24871.196740 24099.518237

                             ****ORCA TERMINATED NORMALLY****
TOTAL RUN TIME: 0 days 0 hours 0 minutes 50 seconds 605 msec
