                         Program Version 4.1.2  - RELEASE  -
|  1> #Run DFT-D3 single point of the dimer
|  2> ! wB97X-D3 def2-TZVP TIGHTSCF CHELPG PMODEL PAL8
|  3>
|  4> %base "19-205_DFT_AB"
|  5>
|  6> %scf
|  7> MaxIter 1000
|  8> end
|  9>
| 10> * xyz 0 1
| 11>   C                      -9.867993            1.502784             -0.871283
| 12>   O                      -10.416707           1.943120             -2.032187
| 13>   H                      -11.303717           1.658828             -2.102691
| 14>   H                      -8.905948            2.041819             -0.683001
| 15>   H                      -10.578086           1.669338             -0.109362
| 16>   H                      -9.589611            0.430503             -0.931537
| 17>   C                      -7.813093            3.815094             -3.595980
| 18>   O                      -8.973304            4.465805             -3.233209
| 19>   H                      -9.505764            3.723539             -2.902711
| 20>   H                      -7.259391            3.521370             -2.695800
| 21>   H                      -8.012084            2.912106             -4.172752
| 22>   H                      -7.196577            4.471481             -4.184724
| 23> *
| 24>
| 25> #Run DFT-D3 single point of the molecule with dimer basis set
| 26> $new_job
| 27> %base "19-205_DFT_A"
| 28> ! wB97X-D3 def2-TZVP TIGHTSCF CHELPG PMODEL
| 29>
| 30> %scf
| 31> MaxIter 1000
| 32> end
| 33>
| 34> * xyz 0 1
| 35>   C                      -9.867993            1.502784             -0.871283
| 36>   O                      -10.416707           1.943120             -2.032187
| 37>   H                      -11.303717           1.658828             -2.102691
| 38>   H                      -8.905948            2.041819             -0.683001
| 39>   H                      -10.578086           1.669338             -0.109362
| 40>   H                      -9.589611            0.430503             -0.931537
| 41>   C                    : -7.813093            3.815094             -3.595980
| 42>   O                    : -8.973304            4.465805             -3.233209
| 43>   H                    : -9.505764            3.723539             -2.902711
| 44>   H                    : -7.259391            3.521370             -2.695800
| 45>   H                    : -8.012084            2.912106             -4.172752
| 46>   H                    : -7.196577            4.471481             -4.184724
| 47> *
| 48>
| 49> #Run DFT-D3 single point of the particle with dimer basis set
| 50> $new_job
| 51> %base "19-205_DFT_B"
| 52> ! wB97X-D3 def2-TZVP TIGHTSCF CHELPG PMODEL
| 53>
| 54> %scf
| 55> MaxIter 1000
| 56> end
| 57>
| 58> * xyz 0 1
| 59>   C                    : -9.867993            1.502784             -0.871283
| 60>   O                    : -10.416707           1.943120             -2.032187
| 61>   H                    : -11.303717           1.658828             -2.102691
| 62>   H                    : -8.905948            2.041819             -0.683001
| 63>   H                    : -10.578086           1.669338             -0.109362
| 64>   H                    : -9.589611            0.430503             -0.931537
| 65>   C                      -7.813093            3.815094             -3.595980
| 66>   O                      -8.973304            4.465805             -3.233209
| 67>   H                      -9.505764            3.723539             -2.902711
| 68>   H                      -7.259391            3.521370             -2.695800
| 69>   H                      -8.012084            2.912106             -4.172752
| 70>   H                      -7.196577            4.471481             -4.184724
| 71> *
| 72>
| 73>                          ****END OF INPUT****
 Total Charge           Charge          ....    0
 Multiplicity           Mult            ....    1
 Number of Electrons    NEL             ....   36
Dispersion correction           -0.001850263
FINAL SINGLE POINT ENERGY      -231.474228523638
Dispersion correction           -0.000208941
FINAL SINGLE POINT ENERGY      -115.731537175793

CARTESIAN COORDINATES (ANGSTROEM)
---------------------------------
  C     -9.867993    1.502784   -0.871283
  O    -10.416707    1.943120   -2.032187
  H    -11.303717    1.658828   -2.102691
  H     -8.905948    2.041819   -0.683001
  H    -10.578086    1.669338   -0.109362
  H     -9.589611    0.430503   -0.931537
  C     -7.813093    3.815094   -3.595980
  O     -8.973304    4.465805   -3.233209
  H     -9.505764    3.723539   -2.902711
  H     -7.259391    3.521370   -2.695800
  H     -8.012084    2.912106   -4.172752
  H     -7.196577    4.471481   -4.184724

 Multiplicity           Mult            ....    1
 Number of Electrons    NEL             ....   18
 Basis Dimension        Dim             ....  172

ORBITAL ENERGIES
----------------

  NO   OCC          E(Eh)            E(eV)
   0   2.0000     -19.232452      -523.3416
   1   2.0000     -10.307643      -280.4852
   2   2.0000      -1.150969       -31.3195
   3   2.0000      -0.790454       -21.5094
   4   2.0000      -0.617044       -16.7906
   5   2.0000      -0.547556       -14.8998
   6   2.0000      -0.532005       -14.4766
   7   2.0000      -0.440231       -11.9793
   8   2.0000      -0.370933       -10.0936
   9   0.0000       0.067761         1.8439
  10   0.0000       0.133708         3.6384
  11   0.0000       0.144415         3.9297
  12   0.0000       0.168752         4.5920
  13   0.0000       0.194052         5.2804

MULLIKEN ATOMIC CHARGES
-----------------------
   0 C :   -0.002248
   1 O :   -0.001061
   2 H :   -0.000181
   3 H :   -0.000005
   4 H :    0.000232
   5 H :   -0.000064
   6 C :   -0.168922
   7 O :   -0.453873
   8 H :    0.312977
   9 H :    0.096099
  10 H :    0.099576
  11 H :    0.117471
Sum of atomic charges:   -0.0000000

LOEWDIN ATOMIC CHARGES
----------------------
   0 C :   -0.003107
   1 O :   -0.010218
   2 H :   -0.000616
   3 H :   -0.000873
   4 H :   -0.000037
   5 H :   -0.000052
   6 C :   -0.414491
   7 O :   -0.048169
   8 H :    0.186413
   9 H :    0.094360
  10 H :    0.093484
  11 H :    0.103307

  Mayer bond orders larger than 0.1
B(  6-C ,  7-O ) :   0.9949 B(  6-C ,  9-H ) :   0.9779 B(  6-C , 10-H ) :   0.9802
B(  6-C , 11-H ) :   0.9763 B(  7-O ,  8-H ) :   0.9100

Dispersion correction           -0.000199809
FINAL SINGLE POINT ENERGY      -115.734123155861

DIPOLE MOMENT
-------------
                                X             Y             Z
Electronic contribution:     -1.47807       1.04819       0.38156
Nuclear contribution   :      1.57405      -1.73239      -0.32631
                        -----------------------------------------
Total Dipole Moment    :      0.09598      -0.68420       0.05525
                        -----------------------------------------
Magnitude (a.u.)       :      0.69310
Magnitude (Debye)      :      1.76173

Rotational constants in cm-1:     4.231538     0.879938     0.843226
Rotational constants in MHz : 126858.331172 26379.889568 25279.282812

                             ****ORCA TERMINATED NORMALLY****
TOTAL RUN TIME: 0 days 0 hours 0 minutes 51 seconds 119 msec
