                         Program Version 4.1.2  - RELEASE  -
|  1> #Run DFT-D3 single point of the dimer
|  2> ! wB97X-D3 def2-TZVP TIGHTSCF CHELPG PMODEL PAL8
|  3>
|  4> %base "3-174_DFT_AB"
|  5>
|  6> %scf
|  7> MaxIter 1000
|  8> end
|  9>
| 10> * xyz 0 1
| 11>   C                      -10.334582           -4.254306            -5.781806
| 12>   O                      -9.139955            -3.452755            -5.800609
| 13>   H                      -8.833748            -3.296327            -6.693903
| 14>   H                      -10.701949           -4.294493            -4.818483
| 15>   H                      -11.133352           -3.759334            -6.328138
| 16>   H                      -10.229096           -5.277931            -6.251611
| 17>   C                      -8.821736            -2.244339            -2.772224
| 18>   O                      -7.682576            -2.300097            -3.539446
| 19>   H                      -7.004635            -2.703530            -2.993560
| 20>   H                      -8.519743            -2.124403            -1.693724
| 21>   H                      -9.474472            -1.386204            -3.000536
| 22>   H                      -9.400907            -3.212048            -2.883486
| 23> *
| 24>
| 25> #Run DFT-D3 single point of the molecule with dimer basis set
| 26> $new_job
| 27> %base "3-174_DFT_A"
| 28> ! wB97X-D3 def2-TZVP TIGHTSCF CHELPG PMODEL
| 29>
| 30> %scf
| 31> MaxIter 1000
| 32> end
| 33>
| 34> * xyz 0 1
| 35>   C                      -10.334582           -4.254306            -5.781806
| 36>   O                      -9.139955            -3.452755            -5.800609
| 37>   H                      -8.833748            -3.296327            -6.693903
| 38>   H                      -10.701949           -4.294493            -4.818483
| 39>   H                      -11.133352           -3.759334            -6.328138
| 40>   H                      -10.229096           -5.277931            -6.251611
| 41>   C                    : -8.821736            -2.244339            -2.772224
| 42>   O                    : -7.682576            -2.300097            -3.539446
| 43>   H                    : -7.004635            -2.703530            -2.993560
| 44>   H                    : -8.519743            -2.124403            -1.693724
| 45>   H                    : -9.474472            -1.386204            -3.000536
| 46>   H                    : -9.400907            -3.212048            -2.883486
| 47> *
| 48>
| 49> #Run DFT-D3 single point of the particle with dimer basis set
| 50> $new_job
| 51> %base "3-174_DFT_B"
| 52> ! wB97X-D3 def2-TZVP TIGHTSCF CHELPG PMODEL
| 53>
| 54> %scf
| 55> MaxIter 1000
| 56> end
| 57>
| 58> * xyz 0 1
| 59>   C                    : -10.334582           -4.254306            -5.781806
| 60>   O                    : -9.139955            -3.452755            -5.800609
| 61>   H                    : -8.833748            -3.296327            -6.693903
| 62>   H                    : -10.701949           -4.294493            -4.818483
| 63>   H                    : -11.133352           -3.759334            -6.328138
| 64>   H                    : -10.229096           -5.277931            -6.251611
| 65>   C                      -8.821736            -2.244339            -2.772224
| 66>   O                      -7.682576            -2.300097            -3.539446
| 67>   H                      -7.004635            -2.703530            -2.993560
| 68>   H                      -8.519743            -2.124403            -1.693724
| 69>   H                      -9.474472            -1.386204            -3.000536
| 70>   H                      -9.400907            -3.212048            -2.883486
| 71> *
| 72>
| 73>                          ****END OF INPUT****
 Total Charge           Charge          ....    0
 Multiplicity           Mult            ....    1
 Number of Electrons    NEL             ....   36
Dispersion correction           -0.001874028
FINAL SINGLE POINT ENERGY      -231.461622843722
Dispersion correction           -0.000264101
FINAL SINGLE POINT ENERGY      -115.732220440598

CARTESIAN COORDINATES (ANGSTROEM)
---------------------------------
  C    -10.334582   -4.254306   -5.781806
  O     -9.139955   -3.452755   -5.800609
  H     -8.833748   -3.296327   -6.693903
  H    -10.701949   -4.294493   -4.818483
  H    -11.133352   -3.759334   -6.328138
  H    -10.229096   -5.277931   -6.251611
  C     -8.821736   -2.244339   -2.772224
  O     -7.682576   -2.300097   -3.539446
  H     -7.004635   -2.703530   -2.993560
  H     -8.519743   -2.124403   -1.693724
  H     -9.474472   -1.386204   -3.000536
  H     -9.400907   -3.212048   -2.883486

 Multiplicity           Mult            ....    1
 Number of Electrons    NEL             ....   18
 Basis Dimension        Dim             ....  172

ORBITAL ENERGIES
----------------

  NO   OCC          E(Eh)            E(eV)
   0   2.0000     -19.230604      -523.2913
   1   2.0000     -10.318519      -280.7812
   2   2.0000      -1.151424       -31.3318
   3   2.0000      -0.786837       -21.4109
   4   2.0000      -0.616589       -16.7783
   5   2.0000      -0.545038       -14.8312
   6   2.0000      -0.534073       -14.5329
   7   2.0000      -0.427427       -11.6309
   8   2.0000      -0.370552       -10.0832
   9   0.0000       0.090850         2.4721
  10   0.0000       0.117290         3.1916
  11   0.0000       0.152352         4.1457
  12   0.0000       0.179267         4.8781
  13   0.0000       0.189450         5.1552

MULLIKEN ATOMIC CHARGES
-----------------------
   0 C :    0.001415
   1 O :    0.000628
   2 H :   -0.000704
   3 H :   -0.000998
   4 H :   -0.000123
   5 H :   -0.000021
   6 C :   -0.179009
   7 O :   -0.461283
   8 H :    0.319264
   9 H :    0.101270
  10 H :    0.118714
  11 H :    0.100845
Sum of atomic charges:    0.0000000

LOEWDIN ATOMIC CHARGES
----------------------
   0 C :   -0.003013
   1 O :   -0.007524
   2 H :   -0.000916
   3 H :   -0.002666
   4 H :   -0.000033
   5 H :   -0.000014
   6 C :   -0.424548
   7 O :   -0.043669
   8 H :    0.174531
   9 H :    0.099729
  10 H :    0.106410
  11 H :    0.101713

  Mayer bond orders larger than 0.1
B(  6-C ,  7-O ) :   0.9965 B(  6-C ,  9-H ) :   0.9848 B(  6-C , 10-H ) :   0.9700
B(  6-C , 11-H ) :   0.9729 B(  7-O ,  8-H ) :   0.8966

Dispersion correction           -0.000226704
FINAL SINGLE POINT ENERGY      -115.732617895611

DIPOLE MOMENT
-------------
                                X             Y             Z
Electronic contribution:      1.43722       0.05848      -1.21948
Nuclear contribution   :     -1.39891      -0.26382       1.85617
                        -----------------------------------------
Total Dipole Moment    :      0.03832      -0.20534       0.63669
                        -----------------------------------------
Magnitude (a.u.)       :      0.67008
Magnitude (Debye)      :      1.70320

Rotational constants in cm-1:     4.116941     0.865631     0.838191
Rotational constants in MHz : 123422.773465 25950.957485 25128.348056

                             ****ORCA TERMINATED NORMALLY****
TOTAL RUN TIME: 0 days 0 hours 6 minutes 11 seconds 154 msec
