                         Program Version 4.1.2  - RELEASE  -
|  1> #Run DFT-D3 single point of the dimer
|  2> ! wB97X-D3 def2-TZVP TIGHTSCF CHELPG PMODEL PAL8
|  3>
|  4> %base "20-117_DFT_AB"
|  5>
|  6> %scf
|  7> MaxIter 1000
|  8> end
|  9>
| 10> * xyz 0 1
| 11>   C                      9.492134             -4.067995            -5.637031
| 12>   O                      10.793203            -3.694952            -5.312607
| 13>   H                      10.904339            -3.547734            -4.365775
| 14>   H                      9.148676             -3.573289            -6.555278
| 15>   H                      9.361102             -5.168756            -5.751145
| 16>   H                      8.743176             -3.656252            -4.911386
| 17>   C                      10.892908            -1.895948            -8.606372
| 18>   O                      11.745254            -2.150983            -7.554914
| 19>   H                      11.244034            -2.812404            -7.042047
| 20>   H                      10.919043            -0.799418            -8.833546
| 21>   H                      11.234521            -2.504955            -9.462893
| 22>   H                      9.814674             -2.154500            -8.325592
| 23> *
| 24>
| 25> #Run DFT-D3 single point of the molecule with dimer basis set
| 26> $new_job
| 27> %base "20-117_DFT_A"
| 28> ! wB97X-D3 def2-TZVP TIGHTSCF CHELPG PMODEL
| 29>
| 30> %scf
| 31> MaxIter 1000
| 32> end
| 33>
| 34> * xyz 0 1
| 35>   C                      9.492134             -4.067995            -5.637031
| 36>   O                      10.793203            -3.694952            -5.312607
| 37>   H                      10.904339            -3.547734            -4.365775
| 38>   H                      9.148676             -3.573289            -6.555278
| 39>   H                      9.361102             -5.168756            -5.751145
| 40>   H                      8.743176             -3.656252            -4.911386
| 41>   C                    : 10.892908            -1.895948            -8.606372
| 42>   O                    : 11.745254            -2.150983            -7.554914
| 43>   H                    : 11.244034            -2.812404            -7.042047
| 44>   H                    : 10.919043            -0.799418            -8.833546
| 45>   H                    : 11.234521            -2.504955            -9.462893
| 46>   H                    : 9.814674             -2.154500            -8.325592
| 47> *
| 48>
| 49> #Run DFT-D3 single point of the particle with dimer basis set
| 50> $new_job
| 51> %base "20-117_DFT_B"
| 52> ! wB97X-D3 def2-TZVP TIGHTSCF CHELPG PMODEL
| 53>
| 54> %scf
| 55> MaxIter 1000
| 56> end
| 57>
| 58> * xyz 0 1
| 59>   C                    : 9.492134             -4.067995            -5.637031
| 60>   O                    : 10.793203            -3.694952            -5.312607
| 61>   H                    : 10.904339            -3.547734            -4.365775
| 62>   H                    : 9.148676             -3.573289            -6.555278
| 63>   H                    : 9.361102             -5.168756            -5.751145
| 64>   H                    : 8.743176             -3.656252            -4.911386
| 65>   C                      10.892908            -1.895948            -8.606372
| 66>   O                      11.745254            -2.150983            -7.554914
| 67>   H                      11.244034            -2.812404            -7.042047
| 68>   H                      10.919043            -0.799418            -8.833546
| 69>   H                      11.234521            -2.504955            -9.462893
| 70>   H                      9.814674             -2.154500            -8.325592
| 71> *
| 72>
| 73>                          ****END OF INPUT****
 Total Charge           Charge          ....    0
 Multiplicity           Mult            ....    1
 Number of Electrons    NEL             ....   36
Dispersion correction           -0.001895405
FINAL SINGLE POINT ENERGY      -231.468897673822
Dispersion correction           -0.000260033
FINAL SINGLE POINT ENERGY      -115.733914266809

CARTESIAN COORDINATES (ANGSTROEM)
---------------------------------
  C      9.492134   -4.067995   -5.637031
  O     10.793203   -3.694952   -5.312607
  H     10.904339   -3.547734   -4.365775
  H      9.148676   -3.573289   -6.555278
  H      9.361102   -5.168756   -5.751145
  H      8.743176   -3.656252   -4.911386
  C     10.892908   -1.895948   -8.606372
  O     11.745254   -2.150983   -7.554914
  H     11.244034   -2.812404   -7.042047
  H     10.919043   -0.799418   -8.833546
  H     11.234521   -2.504955   -9.462893
  H      9.814674   -2.154500   -8.325592

 Multiplicity           Mult            ....    1
 Number of Electrons    NEL             ....   18
 Basis Dimension        Dim             ....  172

ORBITAL ENERGIES
----------------

  NO   OCC          E(Eh)            E(eV)
   0   2.0000     -19.231730      -523.3220
   1   2.0000     -10.319087      -280.7966
   2   2.0000      -1.150344       -31.3024
   3   2.0000      -0.781294       -21.2601
   4   2.0000      -0.613434       -16.6924
   5   2.0000      -0.550451       -14.9785
   6   2.0000      -0.525415       -14.2973
   7   2.0000      -0.431554       -11.7432
   8   2.0000      -0.370748       -10.0886
   9   0.0000       0.066902         1.8205
  10   0.0000       0.134299         3.6545
  11   0.0000       0.150811         4.1038
  12   0.0000       0.171765         4.6740
  13   0.0000       0.181921         4.9503

MULLIKEN ATOMIC CHARGES
-----------------------
   0 C :   -0.003680
   1 O :   -0.000477
   2 H :   -0.000072
   3 H :    0.000219
   4 H :    0.000087
   5 H :    0.000165
   6 C :   -0.163216
   7 O :   -0.449217
   8 H :    0.312337
   9 H :    0.110188
  10 H :    0.102356
  11 H :    0.091311
Sum of atomic charges:   -0.0000000

LOEWDIN ATOMIC CHARGES
----------------------
   0 C :   -0.008805
   1 O :   -0.016657
   2 H :   -0.000817
   3 H :   -0.004628
   4 H :   -0.000120
   5 H :   -0.000106
   6 C :   -0.422239
   7 O :   -0.048476
   8 H :    0.194402
   9 H :    0.107393
  10 H :    0.097382
  11 H :    0.102672

  Mayer bond orders larger than 0.1
B(  6-C ,  7-O ) :   0.9963 B(  6-C ,  9-H ) :   0.9699 B(  6-C , 10-H ) :   0.9800
B(  6-C , 11-H ) :   0.9817 B(  7-O ,  8-H ) :   0.9078

Dispersion correction           -0.000218149
FINAL SINGLE POINT ENERGY      -115.730480919704

DIPOLE MOMENT
-------------
                                X             Y             Z
Electronic contribution:      1.27371      -0.22468       1.29634
Nuclear contribution   :     -1.88535      -0.08751      -1.33832
                        -----------------------------------------
Total Dipole Moment    :     -0.61163      -0.31220      -0.04197
                        -----------------------------------------
Magnitude (a.u.)       :      0.68798
Magnitude (Debye)      :      1.74871

Rotational constants in cm-1:     3.961891     0.877222     0.842783
Rotational constants in MHz : 118774.489979 26298.465555 25266.006929

                             ****ORCA TERMINATED NORMALLY****
TOTAL RUN TIME: 0 days 0 hours 1 minutes 7 seconds 495 msec
