                         Program Version 4.1.2  - RELEASE  -
|  1> #Run DFT-D3 single point of the dimer
|  2> ! wB97X-D3 def2-TZVP TIGHTSCF CHELPG PMODEL PAL8
|  3>
|  4> %base "4-11_DFT_AB"
|  5>
|  6> %scf
|  7> MaxIter 1000
|  8> end
|  9>
| 10> * xyz 0 1
| 11>   C                      -3.440480            1.608124             -5.363870
| 12>   O                      -4.023051            1.698251             -6.686188
| 13>   H                      -4.350094            0.892071             -7.073146
| 14>   H                      -4.299878            1.217766             -4.707092
| 15>   H                      -2.598717            0.960056             -5.139841
| 16>   H                      -3.210669            2.597576             -4.898620
| 17>   C                      -5.431064            3.410645             -1.481040
| 18>   O                      -6.528782            2.810912             -0.803507
| 19>   H                      -6.199475            2.257877             -0.068820
| 20>   H                      -4.735965            3.634254             -0.724739
| 21>   H                      -4.972894            2.724629             -2.260108
| 22>   H                      -5.614087            4.338414             -1.991813
| 23> *
| 24>
| 25> #Run DFT-D3 single point of the molecule with dimer basis set
| 26> $new_job
| 27> %base "4-11_DFT_A"
| 28> ! wB97X-D3 def2-TZVP TIGHTSCF CHELPG PMODEL
| 29>
| 30> %scf
| 31> MaxIter 1000
| 32> end
| 33>
| 34> * xyz 0 1
| 35>   C                      -3.440480            1.608124             -5.363870
| 36>   O                      -4.023051            1.698251             -6.686188
| 37>   H                      -4.350094            0.892071             -7.073146
| 38>   H                      -4.299878            1.217766             -4.707092
| 39>   H                      -2.598717            0.960056             -5.139841
| 40>   H                      -3.210669            2.597576             -4.898620
| 41>   C                    : -5.431064            3.410645             -1.481040
| 42>   O                    : -6.528782            2.810912             -0.803507
| 43>   H                    : -6.199475            2.257877             -0.068820
| 44>   H                    : -4.735965            3.634254             -0.724739
| 45>   H                    : -4.972894            2.724629             -2.260108
| 46>   H                    : -5.614087            4.338414             -1.991813
| 47> *
| 48>
| 49> #Run DFT-D3 single point of the particle with dimer basis set
| 50> $new_job
| 51> %base "4-11_DFT_B"
| 52> ! wB97X-D3 def2-TZVP TIGHTSCF CHELPG PMODEL
| 53>
| 54> %scf
| 55> MaxIter 1000
| 56> end
| 57>
| 58> * xyz 0 1
| 59>   C                    : -3.440480            1.608124             -5.363870
| 60>   O                    : -4.023051            1.698251             -6.686188
| 61>   H                    : -4.350094            0.892071             -7.073146
| 62>   H                    : -4.299878            1.217766             -4.707092
| 63>   H                    : -2.598717            0.960056             -5.139841
| 64>   H                    : -3.210669            2.597576             -4.898620
| 65>   C                      -5.431064            3.410645             -1.481040
| 66>   O                      -6.528782            2.810912             -0.803507
| 67>   H                      -6.199475            2.257877             -0.068820
| 68>   H                      -4.735965            3.634254             -0.724739
| 69>   H                      -4.972894            2.724629             -2.260108
| 70>   H                      -5.614087            4.338414             -1.991813
| 71> *
| 72>
| 73>                          ****END OF INPUT****
 Total Charge           Charge          ....    0
 Multiplicity           Mult            ....    1
 Number of Electrons    NEL             ....   36
Dispersion correction           -0.001042028
FINAL SINGLE POINT ENERGY      -231.454106992304
Dispersion correction           -0.000299515
FINAL SINGLE POINT ENERGY      -115.724235691043

CARTESIAN COORDINATES (ANGSTROEM)
---------------------------------
  C     -3.440480    1.608124   -5.363870
  O     -4.023051    1.698251   -6.686188
  H     -4.350094    0.892071   -7.073146
  H     -4.299878    1.217766   -4.707092
  H     -2.598717    0.960056   -5.139841
  H     -3.210669    2.597576   -4.898620
  C     -5.431064    3.410645   -1.481040
  O     -6.528782    2.810912   -0.803507
  H     -6.199475    2.257877   -0.068820
  H     -4.735965    3.634254   -0.724739
  H     -4.972894    2.724629   -2.260108
  H     -5.614087    4.338414   -1.991813

 Multiplicity           Mult            ....    1
 Number of Electrons    NEL             ....   18
 Basis Dimension        Dim             ....  172

ORBITAL ENERGIES
----------------

  NO   OCC          E(Eh)            E(eV)
   0   2.0000     -19.229612      -523.2643
   1   2.0000     -10.311738      -280.5966
   2   2.0000      -1.129195       -30.7270
   3   2.0000      -0.797271       -21.6948
   4   2.0000      -0.606909       -16.5148
   5   2.0000      -0.542271       -14.7559
   6   2.0000      -0.533449       -14.5159
   7   2.0000      -0.425568       -11.5803
   8   2.0000      -0.372354       -10.1323
   9   0.0000       0.083984         2.2853
  10   0.0000       0.113420         3.0863
  11   0.0000       0.141552         3.8518
  12   0.0000       0.172586         4.6963
  13   0.0000       0.185930         5.0594

MULLIKEN ATOMIC CHARGES
-----------------------
   0 C :   -0.000613
   1 O :    0.000004
   2 H :    0.000001
   3 H :    0.000695
   4 H :    0.000012
   5 H :   -0.000330
   6 C :   -0.168455
   7 O :   -0.484347
   8 H :    0.320599
   9 H :    0.110413
  10 H :    0.099770
  11 H :    0.122251
Sum of atomic charges:    0.0000000

LOEWDIN ATOMIC CHARGES
----------------------
   0 C :   -0.001355
   1 O :   -0.000010
   2 H :   -0.000001
   3 H :   -0.001045
   4 H :   -0.000011
   5 H :   -0.000569
   6 C :   -0.377371
   7 O :   -0.094319
   8 H :    0.179359
   9 H :    0.089282
  10 H :    0.103289
  11 H :    0.102753

  Mayer bond orders larger than 0.1
B(  6-C ,  7-O ) :   0.9969 B(  6-C ,  9-H ) :   0.9921 B(  6-C , 10-H ) :   0.9710
B(  6-C , 11-H ) :   0.9689 B(  7-O ,  8-H ) :   0.8938

Dispersion correction           -0.000246970
FINAL SINGLE POINT ENERGY      -115.729456820824

DIPOLE MOMENT
-------------
                                X             Y             Z
Electronic contribution:     -1.55136      -0.62612       0.76474
Nuclear contribution   :      2.21418       0.55589      -0.54431
                        -----------------------------------------
Total Dipole Moment    :      0.66282      -0.07023       0.22043
                        -----------------------------------------
Magnitude (a.u.)       :      0.70204
Magnitude (Debye)      :      1.78443

Rotational constants in cm-1:     4.411229     0.813400     0.793160
Rotational constants in MHz : 132245.320984 24385.120352 23778.327549

                             ****ORCA TERMINATED NORMALLY****
TOTAL RUN TIME: 0 days 0 hours 1 minutes 32 seconds 689 msec
