                         Program Version 4.1.2  - RELEASE  -
|  1> #Run DFT-D3 single point of the dimer
|  2> ! wB97X-D3 def2-TZVP TIGHTSCF CHELPG PMODEL PAL8
|  3>
|  4> %base "9-205_DFT_AB"
|  5>
|  6> %scf
|  7> MaxIter 1000
|  8> end
|  9>
| 10> * xyz 0 1
| 11>   C                      1.711450             -2.320812            7.646247
| 12>   O                      2.272455             -2.607682            6.372565
| 13>   H                      2.541367             -3.494958            6.384661
| 14>   H                      1.660441             -3.176239            8.294267
| 15>   H                      2.251824             -1.474142            8.110296
| 16>   H                      0.626260             -1.930606            7.640705
| 17>   C                      -0.382723            -3.622372            4.039118
| 18>   O                      -0.641191            -3.237219            5.349221
| 19>   H                      0.064387             -2.676951            5.718612
| 20>   H                      -1.053173            -4.408750            3.598997
| 21>   H                      -0.480557            -2.756405            3.381245
| 22>   H                      0.636109             -4.001770            3.918250
| 23> *
| 24>
| 25> #Run DFT-D3 single point of the molecule with dimer basis set
| 26> $new_job
| 27> %base "9-205_DFT_A"
| 28> ! wB97X-D3 def2-TZVP TIGHTSCF CHELPG PMODEL
| 29>
| 30> %scf
| 31> MaxIter 1000
| 32> end
| 33>
| 34> * xyz 0 1
| 35>   C                      1.711450             -2.320812            7.646247
| 36>   O                      2.272455             -2.607682            6.372565
| 37>   H                      2.541367             -3.494958            6.384661
| 38>   H                      1.660441             -3.176239            8.294267
| 39>   H                      2.251824             -1.474142            8.110296
| 40>   H                      0.626260             -1.930606            7.640705
| 41>   C                    : -0.382723            -3.622372            4.039118
| 42>   O                    : -0.641191            -3.237219            5.349221
| 43>   H                    : 0.064387             -2.676951            5.718612
| 44>   H                    : -1.053173            -4.408750            3.598997
| 45>   H                    : -0.480557            -2.756405            3.381245
| 46>   H                    : 0.636109             -4.001770            3.918250
| 47> *
| 48>
| 49> #Run DFT-D3 single point of the particle with dimer basis set
| 50> $new_job
| 51> %base "9-205_DFT_B"
| 52> ! wB97X-D3 def2-TZVP TIGHTSCF CHELPG PMODEL
| 53>
| 54> %scf
| 55> MaxIter 1000
| 56> end
| 57>
| 58> * xyz 0 1
| 59>   C                    : 1.711450             -2.320812            7.646247
| 60>   O                    : 2.272455             -2.607682            6.372565
| 61>   H                    : 2.541367             -3.494958            6.384661
| 62>   H                    : 1.660441             -3.176239            8.294267
| 63>   H                    : 2.251824             -1.474142            8.110296
| 64>   H                    : 0.626260             -1.930606            7.640705
| 65>   C                      -0.382723            -3.622372            4.039118
| 66>   O                      -0.641191            -3.237219            5.349221
| 67>   H                      0.064387             -2.676951            5.718612
| 68>   H                      -1.053173            -4.408750            3.598997
| 69>   H                      -0.480557            -2.756405            3.381245
| 70>   H                      0.636109             -4.001770            3.918250
| 71> *
| 72>
| 73>                          ****END OF INPUT****
 Total Charge           Charge          ....    0
 Multiplicity           Mult            ....    1
 Number of Electrons    NEL             ....   36
Dispersion correction           -0.001952090
FINAL SINGLE POINT ENERGY      -231.469653632217
Dispersion correction           -0.000266744
FINAL SINGLE POINT ENERGY      -115.730730411566

CARTESIAN COORDINATES (ANGSTROEM)
---------------------------------
  C      1.711450   -2.320812    7.646247
  O      2.272455   -2.607682    6.372565
  H      2.541367   -3.494958    6.384661
  H      1.660441   -3.176239    8.294267
  H      2.251824   -1.474142    8.110296
  H      0.626260   -1.930606    7.640705
  C     -0.382723   -3.622372    4.039118
  O     -0.641191   -3.237219    5.349221
  H      0.064387   -2.676951    5.718612
  H     -1.053173   -4.408750    3.598997
  H     -0.480557   -2.756405    3.381245
  H      0.636109   -4.001770    3.918250

 Multiplicity           Mult            ....    1
 Number of Electrons    NEL             ....   18
 Basis Dimension        Dim             ....  172

ORBITAL ENERGIES
----------------

  NO   OCC          E(Eh)            E(eV)
   0   2.0000     -19.231462      -523.3147
   1   2.0000     -10.314280      -280.6658
   2   2.0000      -1.139425       -31.0053
   3   2.0000      -0.794028       -21.6066
   4   2.0000      -0.615828       -16.7575
   5   2.0000      -0.542503       -14.7623
   6   2.0000      -0.532507       -14.4903
   7   2.0000      -0.423591       -11.5265
   8   2.0000      -0.370900       -10.0927
   9   0.0000       0.072503         1.9729
  10   0.0000       0.132111         3.5949
  11   0.0000       0.154547         4.2055
  12   0.0000       0.165569         4.5054
  13   0.0000       0.192725         5.2443

MULLIKEN ATOMIC CHARGES
-----------------------
   0 C :   -0.006432
   1 O :   -0.002545
   2 H :   -0.000207
   3 H :    0.000991
   4 H :    0.000112
   5 H :    0.000414
   6 C :   -0.163343
   7 O :   -0.472748
   8 H :    0.322748
   9 H :    0.120665
  10 H :    0.100593
  11 H :    0.099752
Sum of atomic charges:   -0.0000000

LOEWDIN ATOMIC CHARGES
----------------------
   0 C :   -0.010653
   1 O :   -0.006578
   2 H :   -0.001116
   3 H :   -0.000287
   4 H :   -0.000146
   5 H :   -0.003119
   6 C :   -0.407578
   7 O :   -0.056420
   8 H :    0.185802
   9 H :    0.114662
  10 H :    0.092560
  11 H :    0.092872

  Mayer bond orders larger than 0.1
B(  6-C ,  7-O ) :   0.9985 B(  6-C ,  9-H ) :   0.9668 B(  6-C , 10-H ) :   0.9861
B(  6-C , 11-H ) :   0.9764 B(  7-O ,  8-H ) :   0.8907

Dispersion correction           -0.000244372
FINAL SINGLE POINT ENERGY      -115.733187812225

DIPOLE MOMENT
-------------
                                X             Y             Z
Electronic contribution:     -0.50309       0.38860       1.78112
Nuclear contribution   :      1.05424      -0.18966      -2.06758
                        -----------------------------------------
Total Dipole Moment    :      0.55115       0.19894      -0.28646
                        -----------------------------------------
Magnitude (a.u.)       :      0.65223
Magnitude (Debye)      :      1.65783

Rotational constants in cm-1:     4.387667     0.838842     0.809144
Rotational constants in MHz : 131538.942034 25147.857460 24257.533840

                             ****ORCA TERMINATED NORMALLY****
TOTAL RUN TIME: 0 days 0 hours 0 minutes 44 seconds 621 msec
