                         Program Version 4.1.2  - RELEASE  -
|  1> #Run DFT-D3 single point of the dimer
|  2> ! wB97X-D3 def2-TZVP TIGHTSCF CHELPG PMODEL PAL8
|  3>
|  4> %base "18-32_DFT_AB"
|  5>
|  6> %scf
|  7> MaxIter 1000
|  8> end
|  9>
| 10> * xyz 0 1
| 11>   C                      5.188788             2.614549             -0.430988
| 12>   O                      4.272714             3.629414             -0.212891
| 13>   H                      4.735754             4.461235             -0.188900
| 14>   H                      5.899015             2.492255             0.391204
| 15>   H                      4.718363             1.670627             -0.695147
| 16>   H                      5.822392             2.953750             -1.309417
| 17>   C                      1.563923             4.822854             -2.055716
| 18>   O                      1.026069             5.666654             -3.070397
| 19>   H                      1.205890             5.204161             -3.879448
| 20>   H                      1.124852             3.829493             -2.152610
| 21>   H                      2.630486             4.837886             -2.065390
| 22>   H                      1.210527             5.130865             -1.082344
| 23> *
| 24>
| 25> #Run DFT-D3 single point of the molecule with dimer basis set
| 26> $new_job
| 27> %base "18-32_DFT_A"
| 28> ! wB97X-D3 def2-TZVP TIGHTSCF CHELPG PMODEL
| 29>
| 30> %scf
| 31> MaxIter 1000
| 32> end
| 33>
| 34> * xyz 0 1
| 35>   C                      5.188788             2.614549             -0.430988
| 36>   O                      4.272714             3.629414             -0.212891
| 37>   H                      4.735754             4.461235             -0.188900
| 38>   H                      5.899015             2.492255             0.391204
| 39>   H                      4.718363             1.670627             -0.695147
| 40>   H                      5.822392             2.953750             -1.309417
| 41>   C                    : 1.563923             4.822854             -2.055716
| 42>   O                    : 1.026069             5.666654             -3.070397
| 43>   H                    : 1.205890             5.204161             -3.879448
| 44>   H                    : 1.124852             3.829493             -2.152610
| 45>   H                    : 2.630486             4.837886             -2.065390
| 46>   H                    : 1.210527             5.130865             -1.082344
| 47> *
| 48>
| 49> #Run DFT-D3 single point of the particle with dimer basis set
| 50> $new_job
| 51> %base "18-32_DFT_B"
| 52> ! wB97X-D3 def2-TZVP TIGHTSCF CHELPG PMODEL
| 53>
| 54> %scf
| 55> MaxIter 1000
| 56> end
| 57>
| 58> * xyz 0 1
| 59>   C                    : 5.188788             2.614549             -0.430988
| 60>   O                    : 4.272714             3.629414             -0.212891
| 61>   H                    : 4.735754             4.461235             -0.188900
| 62>   H                    : 5.899015             2.492255             0.391204
| 63>   H                    : 4.718363             1.670627             -0.695147
| 64>   H                    : 5.822392             2.953750             -1.309417
| 65>   C                      1.563923             4.822854             -2.055716
| 66>   O                      1.026069             5.666654             -3.070397
| 67>   H                      1.205890             5.204161             -3.879448
| 68>   H                      1.124852             3.829493             -2.152610
| 69>   H                      2.630486             4.837886             -2.065390
| 70>   H                      1.210527             5.130865             -1.082344
| 71> *
| 72>
| 73>                          ****END OF INPUT****
 Total Charge           Charge          ....    0
 Multiplicity           Mult            ....    1
 Number of Electrons    NEL             ....   36
Dispersion correction           -0.001350929
FINAL SINGLE POINT ENERGY      -231.469674166271
Dispersion correction           -0.000220553
FINAL SINGLE POINT ENERGY      -115.733589470953

CARTESIAN COORDINATES (ANGSTROEM)
---------------------------------
  C      5.188788    2.614549   -0.430988
  O      4.272714    3.629414   -0.212891
  H      4.735754    4.461235   -0.188900
  H      5.899015    2.492255    0.391204
  H      4.718363    1.670627   -0.695147
  H      5.822392    2.953750   -1.309417
  C      1.563923    4.822854   -2.055716
  O      1.026069    5.666654   -3.070397
  H      1.205890    5.204161   -3.879448
  H      1.124852    3.829493   -2.152610
  H      2.630486    4.837886   -2.065390
  H      1.210527    5.130865   -1.082344

 Multiplicity           Mult            ....    1
 Number of Electrons    NEL             ....   18
 Basis Dimension        Dim             ....  172

ORBITAL ENERGIES
----------------

  NO   OCC          E(Eh)            E(eV)
   0   2.0000     -19.227912      -523.2181
   1   2.0000     -10.309214      -280.5280
   2   2.0000      -1.136329       -30.9211
   3   2.0000      -0.798555       -21.7298
   4   2.0000      -0.605207       -16.4685
   5   2.0000      -0.554452       -15.0874
   6   2.0000      -0.525146       -14.2900
   7   2.0000      -0.432867       -11.7789
   8   2.0000      -0.376731       -10.2514
   9   0.0000       0.081110         2.2071
  10   0.0000       0.118223         3.2170
  11   0.0000       0.147388         4.0106
  12   0.0000       0.170051         4.6273
  13   0.0000       0.189927         5.1682

MULLIKEN ATOMIC CHARGES
-----------------------
   0 C :   -0.000361
   1 O :   -0.000365
   2 H :   -0.000349
   3 H :   -0.000013
   4 H :    0.000034
   5 H :   -0.000043
   6 C :   -0.164321
   7 O :   -0.473487
   8 H :    0.311701
   9 H :    0.103454
  10 H :    0.110388
  11 H :    0.113362
Sum of atomic charges:    0.0000000

LOEWDIN ATOMIC CHARGES
----------------------
   0 C :   -0.000628
   1 O :   -0.002805
   2 H :   -0.001241
   3 H :   -0.000012
   4 H :   -0.000028
   5 H :   -0.000054
   6 C :   -0.371794
   7 O :   -0.080649
   8 H :    0.161748
   9 H :    0.097701
  10 H :    0.091693
  11 H :    0.106069

  Mayer bond orders larger than 0.1
B(  6-C ,  7-O ) :   0.9929 B(  6-C ,  9-H ) :   0.9827 B(  6-C , 10-H ) :   0.9762
B(  6-C , 11-H ) :   0.9731 B(  7-O ,  8-H ) :   0.9051

Dispersion correction           -0.000222537
FINAL SINGLE POINT ENERGY      -115.734588755520

DIPOLE MOMENT
-------------
                                X             Y             Z
Electronic contribution:     -0.62043       1.18031      -1.19330
Nuclear contribution   :      0.93504      -1.81173       1.10942
                        -----------------------------------------
Total Dipole Moment    :      0.31461      -0.63142      -0.08388
                        -----------------------------------------
Magnitude (a.u.)       :      0.71043
Magnitude (Debye)      :      1.80577

Rotational constants in cm-1:     4.351889     0.825814     0.805370
Rotational constants in MHz : 130466.349398 24757.290746 24144.376659

                             ****ORCA TERMINATED NORMALLY****
TOTAL RUN TIME: 0 days 0 hours 1 minutes 2 seconds 200 msec
