                         Program Version 4.1.2  - RELEASE  -
|  1> #Run DFT-D3 single point of the dimer
|  2> ! wB97X-D3 def2-TZVP TIGHTSCF CHELPG PMODEL PAL8
|  3>
|  4> %base "19-11_DFT_AB"
|  5>
|  6> %scf
|  7> MaxIter 1000
|  8> end
|  9>
| 10> * xyz 0 1
| 11>   C                      -7.667179            -9.209066            3.339312
| 12>   O                      -8.331323            -9.779651            4.428187
| 13>   H                      -8.630029            -10.674345           4.174091
| 14>   H                      -6.594837            -9.317972            3.473686
| 15>   H                      -7.952272            -9.648018            2.417688
| 16>   H                      -7.931544            -8.142269            3.023550
| 17>   C                      -4.820240            -6.867480            7.732437
| 18>   O                      -3.651096            -7.047806            6.967407
| 19>   H                      -2.892290            -6.756424            7.484280
| 20>   H                      -5.073807            -7.703325            8.381583
| 21>   H                      -4.832445            -5.895153            8.276370
| 22>   H                      -5.724504            -6.692857            7.115147
| 23> *
| 24>
| 25> #Run DFT-D3 single point of the molecule with dimer basis set
| 26> $new_job
| 27> %base "19-11_DFT_A"
| 28> ! wB97X-D3 def2-TZVP TIGHTSCF CHELPG PMODEL
| 29>
| 30> %scf
| 31> MaxIter 1000
| 32> end
| 33>
| 34> * xyz 0 1
| 35>   C                      -7.667179            -9.209066            3.339312
| 36>   O                      -8.331323            -9.779651            4.428187
| 37>   H                      -8.630029            -10.674345           4.174091
| 38>   H                      -6.594837            -9.317972            3.473686
| 39>   H                      -7.952272            -9.648018            2.417688
| 40>   H                      -7.931544            -8.142269            3.023550
| 41>   C                    : -4.820240            -6.867480            7.732437
| 42>   O                    : -3.651096            -7.047806            6.967407
| 43>   H                    : -2.892290            -6.756424            7.484280
| 44>   H                    : -5.073807            -7.703325            8.381583
| 45>   H                    : -4.832445            -5.895153            8.276370
| 46>   H                    : -5.724504            -6.692857            7.115147
| 47> *
| 48>
| 49> #Run DFT-D3 single point of the particle with dimer basis set
| 50> $new_job
| 51> %base "19-11_DFT_B"
| 52> ! wB97X-D3 def2-TZVP TIGHTSCF CHELPG PMODEL
| 53>
| 54> %scf
| 55> MaxIter 1000
| 56> end
| 57>
| 58> * xyz 0 1
| 59>   C                    : -7.667179            -9.209066            3.339312
| 60>   O                    : -8.331323            -9.779651            4.428187
| 61>   H                    : -8.630029            -10.674345           4.174091
| 62>   H                    : -6.594837            -9.317972            3.473686
| 63>   H                    : -7.952272            -9.648018            2.417688
| 64>   H                    : -7.931544            -8.142269            3.023550
| 65>   C                      -4.820240            -6.867480            7.732437
| 66>   O                      -3.651096            -7.047806            6.967407
| 67>   H                      -2.892290            -6.756424            7.484280
| 68>   H                      -5.073807            -7.703325            8.381583
| 69>   H                      -4.832445            -5.895153            8.276370
| 70>   H                      -5.724504            -6.692857            7.115147
| 71> *
| 72>
| 73>                          ****END OF INPUT****
 Total Charge           Charge          ....    0
 Multiplicity           Mult            ....    1
 Number of Electrons    NEL             ....   36
Dispersion correction           -0.000658791
FINAL SINGLE POINT ENERGY      -231.459898026947
Dispersion correction           -0.000250984
FINAL SINGLE POINT ENERGY      -115.726814758593

CARTESIAN COORDINATES (ANGSTROEM)
---------------------------------
  C     -7.667179   -9.209066    3.339312
  O     -8.331323   -9.779651    4.428187
  H     -8.630029  -10.674345    4.174091
  H     -6.594837   -9.317972    3.473686
  H     -7.952272   -9.648018    2.417688
  H     -7.931544   -8.142269    3.023550
  C     -4.820240   -6.867480    7.732437
  O     -3.651096   -7.047806    6.967407
  H     -2.892290   -6.756424    7.484280
  H     -5.073807   -7.703325    8.381583
  H     -4.832445   -5.895153    8.276370
  H     -5.724504   -6.692857    7.115147

 Multiplicity           Mult            ....    1
 Number of Electrons    NEL             ....   18
 Basis Dimension        Dim             ....  172

ORBITAL ENERGIES
----------------

  NO   OCC          E(Eh)            E(eV)
   0   2.0000     -19.233393      -523.3672
   1   2.0000     -10.315551      -280.7004
   2   2.0000      -1.137709       -30.9586
   3   2.0000      -0.795631       -21.6502
   4   2.0000      -0.611250       -16.6330
   5   2.0000      -0.547083       -14.8869
   6   2.0000      -0.524734       -14.2787
   7   2.0000      -0.422346       -11.4926
   8   2.0000      -0.378571       -10.3014
   9   0.0000       0.089729         2.4416
  10   0.0000       0.116213         3.1623
  11   0.0000       0.148449         4.0395
  12   0.0000       0.167728         4.5641
  13   0.0000       0.189709         5.1622

MULLIKEN ATOMIC CHARGES
-----------------------
   0 C :   -0.000023
   1 O :   -0.000002
   2 H :   -0.000000
   3 H :   -0.000008
   4 H :    0.000000
   5 H :   -0.000004
   6 C :   -0.173293
   7 O :   -0.473072
   8 H :    0.320065
   9 H :    0.109603
  10 H :    0.102087
  11 H :    0.114648
Sum of atomic charges:    0.0000000

LOEWDIN ATOMIC CHARGES
----------------------
   0 C :   -0.000032
   1 O :   -0.000003
   2 H :   -0.000000
   3 H :   -0.000008
   4 H :   -0.000000
   5 H :   -0.000004
   6 C :   -0.402964
   7 O :   -0.073584
   8 H :    0.173085
   9 H :    0.093690
  10 H :    0.100053
  11 H :    0.109767

  Mayer bond orders larger than 0.1
B(  6-C ,  7-O ) :   1.0088 B(  6-C ,  9-H ) :   0.9709 B(  6-C , 10-H ) :   0.9804
B(  6-C , 11-H ) :   0.9716 B(  7-O ,  8-H ) :   0.8958

Dispersion correction           -0.000263160
FINAL SINGLE POINT ENERGY      -115.732802745336

DIPOLE MOMENT
-------------
                                X             Y             Z
Electronic contribution:      1.57577      -0.40048      -1.07952
Nuclear contribution   :     -1.56083       0.68258       1.69638
                        -----------------------------------------
Total Dipole Moment    :      0.01494       0.28210       0.61685
                        -----------------------------------------
Magnitude (a.u.)       :      0.67846
Magnitude (Debye)      :      1.72451

Rotational constants in cm-1:     4.385737     0.815792     0.798221
Rotational constants in MHz : 131481.093672 24456.826068 23930.067522

                             ****ORCA TERMINATED NORMALLY****
TOTAL RUN TIME: 0 days 0 hours 0 minutes 48 seconds 305 msec
