                         Program Version 4.1.2  - RELEASE  -
|  1> #Run DFT-D3 single point of the dimer
|  2> ! wB97X-D3 def2-TZVP TIGHTSCF CHELPG PMODEL PAL8
|  3>
|  4> %base "22-49_DFT_AB"
|  5>
|  6> %scf
|  7> MaxIter 1000
|  8> end
|  9>
| 10> * xyz 0 1
| 11>   C                      5.509219             -5.286384            -2.629828
| 12>   O                      6.356411             -4.322206            -3.312786
| 13>   H                      5.806492             -3.659072            -3.753185
| 14>   H                      4.710320             -5.785805            -3.279945
| 15>   H                      6.199272             -6.152955            -2.356879
| 16>   H                      4.910016             -4.863904            -1.771712
| 17>   C                      9.127973             -4.206590            -5.553106
| 18>   O                      9.198352             -3.754074            -6.873676
| 19>   H                      8.767707             -2.895544            -7.051401
| 20>   H                      9.159039             -3.377369            -4.790389
| 21>   H                      8.346103             -4.875158            -5.367010
| 22>   H                      10.099926            -4.613253            -5.262392
| 23> *
| 24>
| 25> #Run DFT-D3 single point of the molecule with dimer basis set
| 26> $new_job
| 27> %base "22-49_DFT_A"
| 28> ! wB97X-D3 def2-TZVP TIGHTSCF CHELPG PMODEL
| 29>
| 30> %scf
| 31> MaxIter 1000
| 32> end
| 33>
| 34> * xyz 0 1
| 35>   C                      5.509219             -5.286384            -2.629828
| 36>   O                      6.356411             -4.322206            -3.312786
| 37>   H                      5.806492             -3.659072            -3.753185
| 38>   H                      4.710320             -5.785805            -3.279945
| 39>   H                      6.199272             -6.152955            -2.356879
| 40>   H                      4.910016             -4.863904            -1.771712
| 41>   C                    : 9.127973             -4.206590            -5.553106
| 42>   O                    : 9.198352             -3.754074            -6.873676
| 43>   H                    : 8.767707             -2.895544            -7.051401
| 44>   H                    : 9.159039             -3.377369            -4.790389
| 45>   H                    : 8.346103             -4.875158            -5.367010
| 46>   H                    : 10.099926            -4.613253            -5.262392
| 47> *
| 48>
| 49> #Run DFT-D3 single point of the particle with dimer basis set
| 50> $new_job
| 51> %base "22-49_DFT_B"
| 52> ! wB97X-D3 def2-TZVP TIGHTSCF CHELPG PMODEL
| 53>
| 54> %scf
| 55> MaxIter 1000
| 56> end
| 57>
| 58> * xyz 0 1
| 59>   C                    : 5.509219             -5.286384            -2.629828
| 60>   O                    : 6.356411             -4.322206            -3.312786
| 61>   H                    : 5.806492             -3.659072            -3.753185
| 62>   H                    : 4.710320             -5.785805            -3.279945
| 63>   H                    : 6.199272             -6.152955            -2.356879
| 64>   H                    : 4.910016             -4.863904            -1.771712
| 65>   C                      9.127973             -4.206590            -5.553106
| 66>   O                      9.198352             -3.754074            -6.873676
| 67>   H                      8.767707             -2.895544            -7.051401
| 68>   H                      9.159039             -3.377369            -4.790389
| 69>   H                      8.346103             -4.875158            -5.367010
| 70>   H                      10.099926            -4.613253            -5.262392
| 71> *
| 72>
| 73>                          ****END OF INPUT****
 Total Charge           Charge          ....    0
 Multiplicity           Mult            ....    1
 Number of Electrons    NEL             ....   36
Dispersion correction           -0.001386420
FINAL SINGLE POINT ENERGY      -231.459614058690
Dispersion correction           -0.000300120
FINAL SINGLE POINT ENERGY      -115.730245104561

CARTESIAN COORDINATES (ANGSTROEM)
---------------------------------
  C      5.509219   -5.286384   -2.629828
  O      6.356411   -4.322206   -3.312786
  H      5.806492   -3.659072   -3.753185
  H      4.710320   -5.785805   -3.279945
  H      6.199272   -6.152955   -2.356879
  H      4.910016   -4.863904   -1.771712
  C      9.127973   -4.206590   -5.553106
  O      9.198352   -3.754074   -6.873676
  H      8.767707   -2.895544   -7.051401
  H      9.159039   -3.377369   -4.790389
  H      8.346103   -4.875158   -5.367010
  H     10.099926   -4.613253   -5.262392

 Multiplicity           Mult            ....    1
 Number of Electrons    NEL             ....   18
 Basis Dimension        Dim             ....  172

ORBITAL ENERGIES
----------------

  NO   OCC          E(Eh)            E(eV)
   0   2.0000     -19.229406      -523.2587
   1   2.0000     -10.310398      -280.5602
   2   2.0000      -1.132918       -30.8283
   3   2.0000      -0.800075       -21.7711
   4   2.0000      -0.613331       -16.6896
   5   2.0000      -0.558878       -15.2078
   6   2.0000      -0.518524       -14.1098
   7   2.0000      -0.411282       -11.1916
   8   2.0000      -0.378303       -10.2941
   9   0.0000       0.080951         2.2028
  10   0.0000       0.114555         3.1172
  11   0.0000       0.147561         4.0153
  12   0.0000       0.168391         4.5822
  13   0.0000       0.188369         5.1258

MULLIKEN ATOMIC CHARGES
-----------------------
   0 C :   -0.000578
   1 O :   -0.000615
   2 H :    0.000005
   3 H :    0.000011
   4 H :   -0.000018
   5 H :    0.000006
   6 C :   -0.141981
   7 O :   -0.493036
   8 H :    0.323853
   9 H :    0.091489
  10 H :    0.112723
  11 H :    0.108142
Sum of atomic charges:   -0.0000000

LOEWDIN ATOMIC CHARGES
----------------------
   0 C :   -0.000429
   1 O :   -0.002154
   2 H :   -0.000497
   3 H :   -0.000011
   4 H :   -0.000047
   5 H :   -0.000009
   6 C :   -0.397415
   7 O :   -0.074688
   8 H :    0.178700
   9 H :    0.103056
  10 H :    0.085790
  11 H :    0.107704

  Mayer bond orders larger than 0.1
B(  6-C ,  7-O ) :   1.0050 B(  6-C ,  9-H ) :   0.9819 B(  6-C , 10-H ) :   0.9728
B(  6-C , 11-H ) :   0.9707 B(  7-O ,  8-H ) :   0.8880

Dispersion correction           -0.000264855
FINAL SINGLE POINT ENERGY      -115.728191494770

DIPOLE MOMENT
-------------
                                X             Y             Z
Electronic contribution:     -0.04061       0.36887      -1.82860
Nuclear contribution   :     -0.24538       0.02840       2.25257
                        -----------------------------------------
Total Dipole Moment    :     -0.28599       0.39727       0.42397
                        -----------------------------------------
Magnitude (a.u.)       :      0.64758
Magnitude (Debye)      :      1.64602

Rotational constants in cm-1:     4.481979     0.824197     0.810714
Rotational constants in MHz : 134366.360451 24708.792164 24304.586664

                             ****ORCA TERMINATED NORMALLY****
TOTAL RUN TIME: 0 days 0 hours 1 minutes 0 seconds 514 msec
