                         Program Version 4.1.2  - RELEASE  -
|  1> #Run DFT-D3 single point of the dimer
|  2> ! wB97X-D3 def2-TZVP TIGHTSCF CHELPG PMODEL PAL8
|  3>
|  4> %base "5-167_DFT_AB"
|  5>
|  6> %scf
|  7> MaxIter 1000
|  8> end
|  9>
| 10> * xyz 0 1
| 11>   C                      1.407148             4.682785             -1.985167
| 12>   O                      0.389347             3.689952             -1.839461
| 13>   H                      0.932256             2.871912             -1.913617
| 14>   H                      2.081969             4.400590             -2.813521
| 15>   H                      0.881962             5.514447             -2.269096
| 16>   H                      1.978033             4.889483             -1.053356
| 17>   C                      2.961884             0.407319             -2.412688
| 18>   O                      2.456259             1.484305             -1.679243
| 19>   H                      2.553771             1.294301             -0.756044
| 20>   H                      3.996649             0.213085             -2.123589
| 21>   H                      2.420544             -0.510132            -2.440008
| 22>   H                      2.934534             0.770478             -3.468027
| 23> *
| 24>
| 25> #Run DFT-D3 single point of the molecule with dimer basis set
| 26> $new_job
| 27> %base "5-167_DFT_A"
| 28> ! wB97X-D3 def2-TZVP TIGHTSCF CHELPG PMODEL
| 29>
| 30> %scf
| 31> MaxIter 1000
| 32> end
| 33>
| 34> * xyz 0 1
| 35>   C                      1.407148             4.682785             -1.985167
| 36>   O                      0.389347             3.689952             -1.839461
| 37>   H                      0.932256             2.871912             -1.913617
| 38>   H                      2.081969             4.400590             -2.813521
| 39>   H                      0.881962             5.514447             -2.269096
| 40>   H                      1.978033             4.889483             -1.053356
| 41>   C                    : 2.961884             0.407319             -2.412688
| 42>   O                    : 2.456259             1.484305             -1.679243
| 43>   H                    : 2.553771             1.294301             -0.756044
| 44>   H                    : 3.996649             0.213085             -2.123589
| 45>   H                    : 2.420544             -0.510132            -2.440008
| 46>   H                    : 2.934534             0.770478             -3.468027
| 47> *
| 48>
| 49> #Run DFT-D3 single point of the particle with dimer basis set
| 50> $new_job
| 51> %base "5-167_DFT_B"
| 52> ! wB97X-D3 def2-TZVP TIGHTSCF CHELPG PMODEL
| 53>
| 54> %scf
| 55> MaxIter 1000
| 56> end
| 57>
| 58> * xyz 0 1
| 59>   C                    : 1.407148             4.682785             -1.985167
| 60>   O                    : 0.389347             3.689952             -1.839461
| 61>   H                    : 0.932256             2.871912             -1.913617
| 62>   H                    : 2.081969             4.400590             -2.813521
| 63>   H                    : 0.881962             5.514447             -2.269096
| 64>   H                    : 1.978033             4.889483             -1.053356
| 65>   C                      2.961884             0.407319             -2.412688
| 66>   O                      2.456259             1.484305             -1.679243
| 67>   H                      2.553771             1.294301             -0.756044
| 68>   H                      3.996649             0.213085             -2.123589
| 69>   H                      2.420544             -0.510132            -2.440008
| 70>   H                      2.934534             0.770478             -3.468027
| 71> *
| 72>
| 73>                          ****END OF INPUT****
 Total Charge           Charge          ....    0
 Multiplicity           Mult            ....    1
 Number of Electrons    NEL             ....   36
Dispersion correction           -0.001712378
FINAL SINGLE POINT ENERGY      -231.473182522933
Dispersion correction           -0.000223118
FINAL SINGLE POINT ENERGY      -115.730341484367

CARTESIAN COORDINATES (ANGSTROEM)
---------------------------------
  C      1.407148    4.682785   -1.985167
  O      0.389347    3.689952   -1.839461
  H      0.932256    2.871912   -1.913617
  H      2.081969    4.400590   -2.813521
  H      0.881962    5.514447   -2.269096
  H      1.978033    4.889483   -1.053356
  C      2.961884    0.407319   -2.412688
  O      2.456259    1.484305   -1.679243
  H      2.553771    1.294301   -0.756044
  H      3.996649    0.213085   -2.123589
  H      2.420544   -0.510132   -2.440008
  H      2.934534    0.770478   -3.468027

 Multiplicity           Mult            ....    1
 Number of Electrons    NEL             ....   18
 Basis Dimension        Dim             ....  172

ORBITAL ENERGIES
----------------

  NO   OCC          E(Eh)            E(eV)
   0   2.0000     -19.231131      -523.3057
   1   2.0000     -10.310305      -280.5576
   2   2.0000      -1.144794       -31.1514
   3   2.0000      -0.797932       -21.7128
   4   2.0000      -0.618964       -16.8429
   5   2.0000      -0.549310       -14.9475
   6   2.0000      -0.521566       -14.1925
   7   2.0000      -0.431957       -11.7541
   8   2.0000      -0.376641       -10.2489
   9   0.0000       0.100269         2.7285
  10   0.0000       0.128707         3.5023
  11   0.0000       0.155252         4.2246
  12   0.0000       0.186185         5.0663
  13   0.0000       0.197854         5.3839

MULLIKEN ATOMIC CHARGES
-----------------------
   0 C :    0.006347
   1 O :   -0.000404
   2 H :   -0.012263
   3 H :   -0.003918
   4 H :   -0.000455
   5 H :   -0.001565
   6 C :   -0.155594
   7 O :   -0.461784
   8 H :    0.310587
   9 H :    0.097443
  10 H :    0.103837
  11 H :    0.117769
Sum of atomic charges:   -0.0000000

LOEWDIN ATOMIC CHARGES
----------------------
   0 C :   -0.006718
   1 O :   -0.003015
   2 H :   -0.032582
   3 H :   -0.001582
   4 H :   -0.000089
   5 H :   -0.000521
   6 C :   -0.396137
   7 O :   -0.020512
   8 H :    0.161420
   9 H :    0.095455
  10 H :    0.087142
  11 H :    0.117140

  Mayer bond orders larger than 0.1
B(  6-C ,  7-O ) :   0.9989 B(  6-C ,  9-H ) :   0.9779 B(  6-C , 10-H ) :   0.9624
B(  6-C , 11-H ) :   0.9816 B(  7-O ,  8-H ) :   0.8998

Dispersion correction           -0.000239720
FINAL SINGLE POINT ENERGY      -115.734309850993

DIPOLE MOMENT
-------------
                                X             Y             Z
Electronic contribution:     -0.73027       1.34808       0.96481
Nuclear contribution   :      0.99119      -1.89657      -0.66145
                        -----------------------------------------
Total Dipole Moment    :      0.26092      -0.54849       0.30336
                        -----------------------------------------
Magnitude (a.u.)       :      0.67893
Magnitude (Debye)      :      1.72571

Rotational constants in cm-1:     4.375052     0.848623     0.815383
Rotational constants in MHz : 131160.753989 25441.081166 24444.561787

                             ****ORCA TERMINATED NORMALLY****
TOTAL RUN TIME: 0 days 0 hours 0 minutes 56 seconds 315 msec
