                         Program Version 4.1.2  - RELEASE  -
|  1> #Run DFT-D3 single point of the dimer
|  2> ! wB97X-D3 def2-TZVP TIGHTSCF CHELPG PMODEL PAL8
|  3>
|  4> %base "19-100_DFT_AB"
|  5>
|  6> %scf
|  7> MaxIter 1000
|  8> end
|  9>
| 10> * xyz 0 1
| 11>   C                      6.919625             2.237632             2.945838
| 12>   O                      7.105568             3.614791             3.004067
| 13>   H                      7.927648             3.903414             2.617584
| 14>   H                      7.422164             1.719098             3.729250
| 15>   H                      5.841692             1.966989             3.041488
| 16>   H                      7.318918             1.785904             1.953686
| 17>   C                      1.550472             2.691775             3.242156
| 18>   O                      0.851878             2.735374             1.989813
| 19>   H                      -0.067199            2.404889             2.121764
| 20>   H                      0.871757             2.590793             4.113144
| 21>   H                      2.285522             1.838047             3.182843
| 22>   H                      2.106612             3.612805             3.357390
| 23> *
| 24>
| 25> #Run DFT-D3 single point of the molecule with dimer basis set
| 26> $new_job
| 27> %base "19-100_DFT_A"
| 28> ! wB97X-D3 def2-TZVP TIGHTSCF CHELPG PMODEL
| 29>
| 30> %scf
| 31> MaxIter 1000
| 32> end
| 33>
| 34> * xyz 0 1
| 35>   C                      6.919625             2.237632             2.945838
| 36>   O                      7.105568             3.614791             3.004067
| 37>   H                      7.927648             3.903414             2.617584
| 38>   H                      7.422164             1.719098             3.729250
| 39>   H                      5.841692             1.966989             3.041488
| 40>   H                      7.318918             1.785904             1.953686
| 41>   C                    : 1.550472             2.691775             3.242156
| 42>   O                    : 0.851878             2.735374             1.989813
| 43>   H                    : -0.067199            2.404889             2.121764
| 44>   H                    : 0.871757             2.590793             4.113144
| 45>   H                    : 2.285522             1.838047             3.182843
| 46>   H                    : 2.106612             3.612805             3.357390
| 47> *
| 48>
| 49> #Run DFT-D3 single point of the particle with dimer basis set
| 50> $new_job
| 51> %base "19-100_DFT_B"
| 52> ! wB97X-D3 def2-TZVP TIGHTSCF CHELPG PMODEL
| 53>
| 54> %scf
| 55> MaxIter 1000
| 56> end
| 57>
| 58> * xyz 0 1
| 59>   C                    : 6.919625             2.237632             2.945838
| 60>   O                    : 7.105568             3.614791             3.004067
| 61>   H                    : 7.927648             3.903414             2.617584
| 62>   H                    : 7.422164             1.719098             3.729250
| 63>   H                    : 5.841692             1.966989             3.041488
| 64>   H                    : 7.318918             1.785904             1.953686
| 65>   C                      1.550472             2.691775             3.242156
| 66>   O                      0.851878             2.735374             1.989813
| 67>   H                      -0.067199            2.404889             2.121764
| 68>   H                      0.871757             2.590793             4.113144
| 69>   H                      2.285522             1.838047             3.182843
| 70>   H                      2.106612             3.612805             3.357390
| 71> *
| 72>
| 73>                          ****END OF INPUT****
 Total Charge           Charge          ....    0
 Multiplicity           Mult            ....    1
 Number of Electrons    NEL             ....   36
Dispersion correction           -0.000744054
FINAL SINGLE POINT ENERGY      -231.466696789978
Dispersion correction           -0.000256335
FINAL SINGLE POINT ENERGY      -115.732653467573

CARTESIAN COORDINATES (ANGSTROEM)
---------------------------------
  C      6.919625    2.237632    2.945838
  O      7.105568    3.614791    3.004067
  H      7.927648    3.903414    2.617584
  H      7.422164    1.719098    3.729250
  H      5.841692    1.966989    3.041488
  H      7.318918    1.785904    1.953686
  C      1.550472    2.691775    3.242156
  O      0.851878    2.735374    1.989813
  H     -0.067199    2.404889    2.121764
  H      0.871757    2.590793    4.113144
  H      2.285522    1.838047    3.182843
  H      2.106612    3.612805    3.357390

 Multiplicity           Mult            ....    1
 Number of Electrons    NEL             ....   18
 Basis Dimension        Dim             ....  172

ORBITAL ENERGIES
----------------

  NO   OCC          E(Eh)            E(eV)
   0   2.0000     -19.229758      -523.2683
   1   2.0000     -10.318403      -280.7780
   2   2.0000      -1.123497       -30.5719
   3   2.0000      -0.790748       -21.5173
   4   2.0000      -0.603089       -16.4109
   5   2.0000      -0.536332       -14.5943
   6   2.0000      -0.522599       -14.2207
   7   2.0000      -0.434053       -11.8112
   8   2.0000      -0.370452       -10.0805
   9   0.0000       0.086919         2.3652
  10   0.0000       0.111044         3.0217
  11   0.0000       0.142892         3.8883
  12   0.0000       0.168521         4.5857
  13   0.0000       0.189082         5.1452

MULLIKEN ATOMIC CHARGES
-----------------------
   0 C :   -0.000033
   1 O :   -0.000001
   2 H :   -0.000000
   3 H :    0.000002
   4 H :   -0.000038
   5 H :   -0.000001
   6 C :   -0.166372
   7 O :   -0.483714
   8 H :    0.317972
   9 H :    0.105677
  10 H :    0.107054
  11 H :    0.119454
Sum of atomic charges:   -0.0000000

LOEWDIN ATOMIC CHARGES
----------------------
   0 C :   -0.000045
   1 O :   -0.000003
   2 H :   -0.000000
   3 H :   -0.000000
   4 H :   -0.000243
   5 H :   -0.000000
   6 C :   -0.375008
   7 O :   -0.109092
   8 H :    0.180981
   9 H :    0.098438
  10 H :    0.104399
  11 H :    0.100573

  Mayer bond orders larger than 0.1
B(  6-C ,  7-O ) :   1.0010 B(  6-C ,  9-H ) :   0.9778 B(  6-C , 10-H ) :   0.9762
B(  6-C , 11-H ) :   0.9734 B(  7-O ,  8-H ) :   0.8961

Dispersion correction           -0.000260684
FINAL SINGLE POINT ENERGY      -115.733800314983

DIPOLE MOMENT
-------------
                                X             Y             Z
Electronic contribution:     -0.79481       0.13735      -1.57931
Nuclear contribution   :      0.47992      -0.34413       2.17875
                        -----------------------------------------
Total Dipole Moment    :     -0.31489      -0.20677       0.59944
                        -----------------------------------------
Magnitude (a.u.)       :      0.70798
Magnitude (Debye)      :      1.79955

Rotational constants in cm-1:     4.131286     0.811331     0.782322
Rotational constants in MHz : 123852.848409 24323.087877 23453.433019

                             ****ORCA TERMINATED NORMALLY****
TOTAL RUN TIME: 0 days 0 hours 0 minutes 46 seconds 736 msec
