                         Program Version 4.1.2  - RELEASE  -
|  1> #Run DFT-D3 single point of the dimer
|  2> ! wB97X-D3 def2-TZVP TIGHTSCF  CHELPG PAL8
|  3>
|  4> %base "118_charges"
|  5>
|  6> %scf
|  7> MaxIter 1000
|  8> end
|  9> %output
| 10>   Print[ P_Mayer ] 1
| 11>   Print[ P_NatPop ] 1
| 12>   Print[ P_Hirshfeld ] 1
| 13>   Print[ P_Mulliken ] 1
| 14>   Print [ P_Loewdin ] 1
| 15> end
| 16>
| 17> * xyz 0 1
| 18>   C                      -11.563442           -2.743774            10.793260
| 19>   O                      -11.398090           -1.572090            11.423855
| 20>   H                      -12.278495           -1.268645            11.544839
| 21>   H                      -12.238688           -3.378661            11.467688
| 22>   H                      -11.903864           -2.651601            9.730400
| 23>   H                      -10.636651           -3.233010            10.708802
| 24> *
| 25>
| 26>                          ****END OF INPUT****

CARTESIAN COORDINATES (ANGSTROEM)
---------------------------------
  C    -11.563442   -2.743774   10.793260
  O    -11.398090   -1.572090   11.423855
  H    -12.278495   -1.268645   11.544839
  H    -12.238688   -3.378661   11.467688
  H    -11.903864   -2.651601    9.730400
  H    -10.636651   -3.233010   10.708802

 Total Charge           Charge          ....    0
 Multiplicity           Mult            ....    1
 Number of Electrons    NEL             ....   18
 Basis Dimension        Dim             ....   86

ORBITAL ENERGIES
----------------

  NO   OCC          E(Eh)            E(eV)
   0   2.0000     -19.229077      -523.2498
   1   2.0000     -10.310403      -280.5603
   2   2.0000      -1.169857       -31.8334
   3   2.0000      -0.791265       -21.5314
   4   2.0000      -0.620050       -16.8724
   5   2.0000      -0.556767       -15.1504
   6   2.0000      -0.540816       -14.7164
   7   2.0000      -0.428376       -11.6567
   8   2.0000      -0.370339       -10.0774
   9   0.0000       0.115436         3.1412
  10   0.0000       0.161816         4.4032
  11   0.0000       0.199530         5.4295
  12   0.0000       0.208697         5.6789
  13   0.0000       0.225546         6.1374

MULLIKEN ATOMIC CHARGES
-----------------------
   0 C :   -0.157346
   1 O :   -0.442508
   2 H :    0.315299
   3 H :    0.083643
   4 H :    0.086615
   5 H :    0.114298
Sum of atomic charges:    0.0000000

LOEWDIN ATOMIC CHARGES
----------------------
   0 C :   -0.448215
   1 O :   -0.011313
   2 H :    0.165801
   3 H :    0.101426
   4 H :    0.095248
   5 H :    0.097053

  Mayer bond orders larger than 0.1
B(  0-C ,  1-O ) :   1.0159 B(  0-C ,  3-H ) :   0.9904 B(  0-C ,  4-H ) :   0.9688
B(  0-C ,  5-H ) :   0.9748 B(  1-O ,  2-H ) :   0.9033

Dispersion correction           -0.000198059
FINAL SINGLE POINT ENERGY      -115.726438845041

DIPOLE MOMENT
-------------
                                X             Y             Z
Electronic contribution:      0.40661       1.62552       0.81526
Nuclear contribution   :     -0.96755      -1.82354      -0.94850
                        -----------------------------------------
Total Dipole Moment    :     -0.56095      -0.19802      -0.13324
                        -----------------------------------------
Magnitude (a.u.)       :      0.60961
Magnitude (Debye)      :      1.54952

Rotational constants in cm-1:     4.184362     0.909468     0.886751
Rotational constants in MHz : 125444.013075 27265.174989 26584.132042

                             ****ORCA TERMINATED NORMALLY****
TOTAL RUN TIME: 0 days 0 hours 0 minutes 46 seconds 372 msec
