                         Program Version 4.1.2  - RELEASE  -
|  1> #Run DFT-D3 single point of the dimer
|  2> ! wB97X-D3 def2-TZVP TIGHTSCF CHELPG PMODEL PAL8
|  3>
|  4> %base "17-115_DFT_AB"
|  5>
|  6> %scf
|  7> MaxIter 1000
|  8> end
|  9>
| 10> * xyz 0 1
| 11>   C                      -9.469355            -5.034915            5.023516
| 12>   O                      -9.137636            -6.276195            4.482305
| 13>   H                      -8.185798            -6.198072            4.385905
| 14>   H                      -10.343936           -5.070091            5.588574
| 15>   H                      -8.660249            -4.668172            5.713455
| 16>   H                      -9.621374            -4.272023            4.221521
| 17>   C                      -7.114895            -9.252736            2.911161
| 18>   O                      -7.963711            -8.318133            2.377793
| 19>   H                      -8.671788            -8.236899            3.028148
| 20>   H                      -6.159559            -9.294814            2.385530
| 21>   H                      -6.893088            -8.897432            3.925126
| 22>   H                      -7.565943            -10.294245           2.959604
| 23> *
| 24>
| 25> #Run DFT-D3 single point of the molecule with dimer basis set
| 26> $new_job
| 27> %base "17-115_DFT_A"
| 28> ! wB97X-D3 def2-TZVP TIGHTSCF CHELPG PMODEL
| 29>
| 30> %scf
| 31> MaxIter 1000
| 32> end
| 33>
| 34> * xyz 0 1
| 35>   C                      -9.469355            -5.034915            5.023516
| 36>   O                      -9.137636            -6.276195            4.482305
| 37>   H                      -8.185798            -6.198072            4.385905
| 38>   H                      -10.343936           -5.070091            5.588574
| 39>   H                      -8.660249            -4.668172            5.713455
| 40>   H                      -9.621374            -4.272023            4.221521
| 41>   C                    : -7.114895            -9.252736            2.911161
| 42>   O                    : -7.963711            -8.318133            2.377793
| 43>   H                    : -8.671788            -8.236899            3.028148
| 44>   H                    : -6.159559            -9.294814            2.385530
| 45>   H                    : -6.893088            -8.897432            3.925126
| 46>   H                    : -7.565943            -10.294245           2.959604
| 47> *
| 48>
| 49> #Run DFT-D3 single point of the particle with dimer basis set
| 50> $new_job
| 51> %base "17-115_DFT_B"
| 52> ! wB97X-D3 def2-TZVP TIGHTSCF CHELPG PMODEL
| 53>
| 54> %scf
| 55> MaxIter 1000
| 56> end
| 57>
| 58> * xyz 0 1
| 59>   C                    : -9.469355            -5.034915            5.023516
| 60>   O                    : -9.137636            -6.276195            4.482305
| 61>   H                    : -8.185798            -6.198072            4.385905
| 62>   H                    : -10.343936           -5.070091            5.588574
| 63>   H                    : -8.660249            -4.668172            5.713455
| 64>   H                    : -9.621374            -4.272023            4.221521
| 65>   C                      -7.114895            -9.252736            2.911161
| 66>   O                      -7.963711            -8.318133            2.377793
| 67>   H                      -8.671788            -8.236899            3.028148
| 68>   H                      -6.159559            -9.294814            2.385530
| 69>   H                      -6.893088            -8.897432            3.925126
| 70>   H                      -7.565943            -10.294245           2.959604
| 71> *
| 72>
| 73>                          ****END OF INPUT****
 Total Charge           Charge          ....    0
 Multiplicity           Mult            ....    1
 Number of Electrons    NEL             ....   36
Dispersion correction           -0.001420608
FINAL SINGLE POINT ENERGY      -231.469668151654
Dispersion correction           -0.000220572
FINAL SINGLE POINT ENERGY      -115.732583883372

CARTESIAN COORDINATES (ANGSTROEM)
---------------------------------
  C     -9.469355   -5.034915    5.023516
  O     -9.137636   -6.276195    4.482305
  H     -8.185798   -6.198072    4.385905
  H    -10.343936   -5.070091    5.588574
  H     -8.660249   -4.668172    5.713455
  H     -9.621374   -4.272023    4.221521
  C     -7.114895   -9.252736    2.911161
  O     -7.963711   -8.318133    2.377793
  H     -8.671788   -8.236899    3.028148
  H     -6.159559   -9.294814    2.385530
  H     -6.893088   -8.897432    3.925126
  H     -7.565943  -10.294245    2.959604

 Multiplicity           Mult            ....    1
 Number of Electrons    NEL             ....   18
 Basis Dimension        Dim             ....  172

ORBITAL ENERGIES
----------------

  NO   OCC          E(Eh)            E(eV)
   0   2.0000     -19.231855      -523.3254
   1   2.0000     -10.314127      -280.6617
   2   2.0000      -1.153603       -31.3911
   3   2.0000      -0.787932       -21.4407
   4   2.0000      -0.616096       -16.7648
   5   2.0000      -0.547624       -14.9016
   6   2.0000      -0.536827       -14.6078
   7   2.0000      -0.431025       -11.7288
   8   2.0000      -0.370194       -10.0735
   9   0.0000       0.080170         2.1815
  10   0.0000       0.118915         3.2358
  11   0.0000       0.154814         4.2127
  12   0.0000       0.176934         4.8146
  13   0.0000       0.197249         5.3674

MULLIKEN ATOMIC CHARGES
-----------------------
   0 C :   -0.000312
   1 O :   -0.002140
   2 H :   -0.004432
   3 H :    0.000051
   4 H :    0.000028
   5 H :   -0.000043
   6 C :   -0.166372
   7 O :   -0.450586
   8 H :    0.317583
   9 H :    0.117799
  10 H :    0.093601
  11 H :    0.094823
Sum of atomic charges:   -0.0000000

LOEWDIN ATOMIC CHARGES
----------------------
   0 C :   -0.000337
   1 O :   -0.006074
   2 H :   -0.004566
   3 H :   -0.000010
   4 H :   -0.000007
   5 H :   -0.000013
   6 C :   -0.425434
   7 O :   -0.040762
   8 H :    0.178942
   9 H :    0.106406
  10 H :    0.093717
  11 H :    0.098139

  Mayer bond orders larger than 0.1
B(  6-C ,  7-O ) :   1.0067 B(  6-C ,  9-H ) :   0.9700 B(  6-C , 10-H ) :   0.9876
B(  6-C , 11-H ) :   0.9754 B(  7-O ,  8-H ) :   0.8989

Dispersion correction           -0.000211028
FINAL SINGLE POINT ENERGY      -115.732584510567

DIPOLE MOMENT
-------------
                                X             Y             Z
Electronic contribution:     -1.01194       1.23892      -0.94365
Nuclear contribution   :      0.90324      -1.50862       1.53132
                        -----------------------------------------
Total Dipole Moment    :     -0.10870      -0.26970       0.58767
                        -----------------------------------------
Magnitude (a.u.)       :      0.65568
Magnitude (Debye)      :      1.66660

Rotational constants in cm-1:     4.161595     0.876782     0.846887
Rotational constants in MHz : 124761.490304 26285.255662 25389.043496

                             ****ORCA TERMINATED NORMALLY****
TOTAL RUN TIME: 0 days 0 hours 1 minutes 3 seconds 614 msec
