                         Program Version 4.1.2  - RELEASE  -
|  1> #Run DFT-D3 single point of the dimer
|  2> ! wB97X-D3 def2-TZVP TIGHTSCF CHELPG PMODEL PAL8
|  3>
|  4> %base "11-114_DFT_AB"
|  5>
|  6> %scf
|  7> MaxIter 1000
|  8> end
|  9>
| 10> * xyz 0 1
| 11>   C                      -4.783363            4.112619             -2.570429
| 12>   O                      -6.170966            4.051347             -2.271669
| 13>   H                      -6.396381            3.112215             -2.297182
| 14>   H                      -4.677063            4.150604             -3.633048
| 15>   H                      -4.392991            5.100541             -2.206898
| 16>   H                      -4.210136            3.298748             -2.150329
| 17>   C                      -9.370355            2.982421             -1.130286
| 18>   O                      -8.060831            2.716700             -0.738364
| 19>   H                      -7.797640            1.912203             -1.195210
| 20>   H                      -9.629942            2.462840             -2.071195
| 21>   H                      -10.114855           2.628072             -0.451375
| 22>   H                      -9.582202            4.031527             -1.361701
| 23> *
| 24>
| 25> #Run DFT-D3 single point of the molecule with dimer basis set
| 26> $new_job
| 27> %base "11-114_DFT_A"
| 28> ! wB97X-D3 def2-TZVP TIGHTSCF CHELPG PMODEL
| 29>
| 30> %scf
| 31> MaxIter 1000
| 32> end
| 33>
| 34> * xyz 0 1
| 35>   C                      -4.783363            4.112619             -2.570429
| 36>   O                      -6.170966            4.051347             -2.271669
| 37>   H                      -6.396381            3.112215             -2.297182
| 38>   H                      -4.677063            4.150604             -3.633048
| 39>   H                      -4.392991            5.100541             -2.206898
| 40>   H                      -4.210136            3.298748             -2.150329
| 41>   C                    : -9.370355            2.982421             -1.130286
| 42>   O                    : -8.060831            2.716700             -0.738364
| 43>   H                    : -7.797640            1.912203             -1.195210
| 44>   H                    : -9.629942            2.462840             -2.071195
| 45>   H                    : -10.114855           2.628072             -0.451375
| 46>   H                    : -9.582202            4.031527             -1.361701
| 47> *
| 48>
| 49> #Run DFT-D3 single point of the particle with dimer basis set
| 50> $new_job
| 51> %base "11-114_DFT_B"
| 52> ! wB97X-D3 def2-TZVP TIGHTSCF CHELPG PMODEL
| 53>
| 54> %scf
| 55> MaxIter 1000
| 56> end
| 57>
| 58> * xyz 0 1
| 59>   C                    : -4.783363            4.112619             -2.570429
| 60>   O                    : -6.170966            4.051347             -2.271669
| 61>   H                    : -6.396381            3.112215             -2.297182
| 62>   H                    : -4.677063            4.150604             -3.633048
| 63>   H                    : -4.392991            5.100541             -2.206898
| 64>   H                    : -4.210136            3.298748             -2.150329
| 65>   C                      -9.370355            2.982421             -1.130286
| 66>   O                      -8.060831            2.716700             -0.738364
| 67>   H                      -7.797640            1.912203             -1.195210
| 68>   H                      -9.629942            2.462840             -2.071195
| 69>   H                      -10.114855           2.628072             -0.451375
| 70>   H                      -9.582202            4.031527             -1.361701
| 71> *
| 72>
| 73>                          ****END OF INPUT****
 Total Charge           Charge          ....    0
 Multiplicity           Mult            ....    1
 Number of Electrons    NEL             ....   36
Dispersion correction           -0.001543689
FINAL SINGLE POINT ENERGY      -231.463315593967
Dispersion correction           -0.000231413
FINAL SINGLE POINT ENERGY      -115.734969155269

CARTESIAN COORDINATES (ANGSTROEM)
---------------------------------
  C     -4.783363    4.112619   -2.570429
  O     -6.170966    4.051347   -2.271669
  H     -6.396381    3.112215   -2.297182
  H     -4.677063    4.150604   -3.633048
  H     -4.392991    5.100541   -2.206898
  H     -4.210136    3.298748   -2.150329
  C     -9.370355    2.982421   -1.130286
  O     -8.060831    2.716700   -0.738364
  H     -7.797640    1.912203   -1.195210
  H     -9.629942    2.462840   -2.071195
  H    -10.114855    2.628072   -0.451375
  H     -9.582202    4.031527   -1.361701

 Multiplicity           Mult            ....    1
 Number of Electrons    NEL             ....   18
 Basis Dimension        Dim             ....  172

ORBITAL ENERGIES
----------------

  NO   OCC          E(Eh)            E(eV)
   0   2.0000     -19.234953      -523.4097
   1   2.0000     -10.309944      -280.5478
   2   2.0000      -1.145824       -31.1794
   3   2.0000      -0.797138       -21.6912
   4   2.0000      -0.619397       -16.8547
   5   2.0000      -0.545259       -14.8373
   6   2.0000      -0.531344       -14.4586
   7   2.0000      -0.430212       -11.7067
   8   2.0000      -0.376916       -10.2564
   9   0.0000       0.091069         2.4781
  10   0.0000       0.119163         3.2426
  11   0.0000       0.152351         4.1457
  12   0.0000       0.189532         5.1574
  13   0.0000       0.200490         5.4556

MULLIKEN ATOMIC CHARGES
-----------------------
   0 C :    0.002423
   1 O :    0.007276
   2 H :   -0.023280
   3 H :   -0.000376
   4 H :    0.000165
   5 H :   -0.000137
   6 C :   -0.170508
   7 O :   -0.458727
   8 H :    0.323641
   9 H :    0.095268
  10 H :    0.109014
  11 H :    0.115240
Sum of atomic charges:    0.0000000

LOEWDIN ATOMIC CHARGES
----------------------
   0 C :   -0.001078
   1 O :   -0.012962
   2 H :   -0.019625
   3 H :   -0.000052
   4 H :   -0.000020
   5 H :   -0.000053
   6 C :   -0.406184
   7 O :   -0.033090
   8 H :    0.178386
   9 H :    0.098323
  10 H :    0.091572
  11 H :    0.104783

  Mayer bond orders larger than 0.1
B(  6-C ,  7-O ) :   1.0066 B(  6-C ,  9-H ) :   0.9898 B(  6-C , 10-H ) :   0.9709
B(  6-C , 11-H ) :   0.9754 B(  7-O ,  8-H ) :   0.8947

Dispersion correction           -0.000240702
FINAL SINGLE POINT ENERGY      -115.733528117903

DIPOLE MOMENT
-------------
                                X             Y             Z
Electronic contribution:      1.80104      -0.18453       0.73592
Nuclear contribution   :     -2.15162      -0.23769      -1.18912
                        -----------------------------------------
Total Dipole Moment    :     -0.35058      -0.42222      -0.45319
                        -----------------------------------------
Magnitude (a.u.)       :      0.71173
Magnitude (Debye)      :      1.80907

Rotational constants in cm-1:     4.446079     0.843757     0.813464
Rotational constants in MHz : 133290.091490 25295.204363 24387.049716

                             ****ORCA TERMINATED NORMALLY****
TOTAL RUN TIME: 0 days 0 hours 1 minutes 5 seconds 745 msec
