                         Program Version 4.1.2  - RELEASE  -
|  1> #Run DFT-D3 single point of the dimer
|  2> ! wB97X-D3 def2-TZVP TIGHTSCF CHELPG PMODEL PAL8
|  3>
|  4> %base "11-18_DFT_AB"
|  5>
|  6> %scf
|  7> MaxIter 1000
|  8> end
|  9>
| 10> * xyz 0 1
| 11>   C                      -9.588072            -1.444471            5.461368
| 12>   O                      -10.403230           -2.633637            5.367968
| 13>   H                      -11.278415           -2.425012            5.028035
| 14>   H                      -9.139766            -1.218325            4.490122
| 15>   H                      -10.162974           -0.559693            5.727943
| 16>   H                      -8.740249            -1.545357            6.116138
| 17>   C                      -10.018946           -1.408965            1.870387
| 18>   O                      -10.337469           -2.526738            1.054281
| 19>   H                      -9.774385            -3.257972            1.378657
| 20>   H                      -10.655951           -1.147242            2.725710
| 21>   H                      -9.059208            -1.586892            2.320353
| 22>   H                      -9.913778            -0.568793            1.239925
| 23> *
| 24>
| 25> #Run DFT-D3 single point of the molecule with dimer basis set
| 26> $new_job
| 27> %base "11-18_DFT_A"
| 28> ! wB97X-D3 def2-TZVP TIGHTSCF CHELPG PMODEL
| 29>
| 30> %scf
| 31> MaxIter 1000
| 32> end
| 33>
| 34> * xyz 0 1
| 35>   C                      -9.588072            -1.444471            5.461368
| 36>   O                      -10.403230           -2.633637            5.367968
| 37>   H                      -11.278415           -2.425012            5.028035
| 38>   H                      -9.139766            -1.218325            4.490122
| 39>   H                      -10.162974           -0.559693            5.727943
| 40>   H                      -8.740249            -1.545357            6.116138
| 41>   C                    : -10.018946           -1.408965            1.870387
| 42>   O                    : -10.337469           -2.526738            1.054281
| 43>   H                    : -9.774385            -3.257972            1.378657
| 44>   H                    : -10.655951           -1.147242            2.725710
| 45>   H                    : -9.059208            -1.586892            2.320353
| 46>   H                    : -9.913778            -0.568793            1.239925
| 47> *
| 48>
| 49> #Run DFT-D3 single point of the particle with dimer basis set
| 50> $new_job
| 51> %base "11-18_DFT_B"
| 52> ! wB97X-D3 def2-TZVP TIGHTSCF CHELPG PMODEL
| 53>
| 54> %scf
| 55> MaxIter 1000
| 56> end
| 57>
| 58> * xyz 0 1
| 59>   C                    : -9.588072            -1.444471            5.461368
| 60>   O                    : -10.403230           -2.633637            5.367968
| 61>   H                    : -11.278415           -2.425012            5.028035
| 62>   H                    : -9.139766            -1.218325            4.490122
| 63>   H                    : -10.162974           -0.559693            5.727943
| 64>   H                    : -8.740249            -1.545357            6.116138
| 65>   C                      -10.018946           -1.408965            1.870387
| 66>   O                      -10.337469           -2.526738            1.054281
| 67>   H                      -9.774385            -3.257972            1.378657
| 68>   H                      -10.655951           -1.147242            2.725710
| 69>   H                      -9.059208            -1.586892            2.320353
| 70>   H                      -9.913778            -0.568793            1.239925
| 71> *
| 72>
| 73>                          ****END OF INPUT****
 Total Charge           Charge          ....    0
 Multiplicity           Mult            ....    1
 Number of Electrons    NEL             ....   36
Dispersion correction           -0.001946354
FINAL SINGLE POINT ENERGY      -231.465966373861
Dispersion correction           -0.000263343
FINAL SINGLE POINT ENERGY      -115.734059396526

CARTESIAN COORDINATES (ANGSTROEM)
---------------------------------
  C     -9.588072   -1.444471    5.461368
  O    -10.403230   -2.633637    5.367968
  H    -11.278415   -2.425012    5.028035
  H     -9.139766   -1.218325    4.490122
  H    -10.162974   -0.559693    5.727943
  H     -8.740249   -1.545357    6.116138
  C    -10.018946   -1.408965    1.870387
  O    -10.337469   -2.526738    1.054281
  H     -9.774385   -3.257972    1.378657
  H    -10.655951   -1.147242    2.725710
  H     -9.059208   -1.586892    2.320353
  H     -9.913778   -0.568793    1.239925

 Multiplicity           Mult            ....    1
 Number of Electrons    NEL             ....   18
 Basis Dimension        Dim             ....  172

ORBITAL ENERGIES
----------------

  NO   OCC          E(Eh)            E(eV)
   0   2.0000     -19.233441      -523.3685
   1   2.0000     -10.307529      -280.4821
   2   2.0000      -1.133264       -30.8377
   3   2.0000      -0.798186       -21.7198
   4   2.0000      -0.612623       -16.6703
   5   2.0000      -0.539134       -14.6706
   6   2.0000      -0.530066       -14.4238
   7   2.0000      -0.434884       -11.8338
   8   2.0000      -0.375560       -10.2195
   9   0.0000       0.082261         2.2384
  10   0.0000       0.113042         3.0760
  11   0.0000       0.154618         4.2074
  12   0.0000       0.163921         4.4605
  13   0.0000       0.188340         5.1250

MULLIKEN ATOMIC CHARGES
-----------------------
   0 C :    0.001053
   1 O :    0.000735
   2 H :    0.000701
   3 H :   -0.006710
   4 H :   -0.000043
   5 H :   -0.000563
   6 C :   -0.154601
   7 O :   -0.472508
   8 H :    0.317929
   9 H :    0.101065
  10 H :    0.096937
  11 H :    0.116005
Sum of atomic charges:    0.0000000

LOEWDIN ATOMIC CHARGES
----------------------
   0 C :   -0.008395
   1 O :   -0.000458
   2 H :   -0.001272
   3 H :   -0.009630
   4 H :   -0.000348
   5 H :   -0.000078
   6 C :   -0.372782
   7 O :   -0.085623
   8 H :    0.181637
   9 H :    0.101996
  10 H :    0.097921
  11 H :    0.097034

  Mayer bond orders larger than 0.1
B(  6-C ,  7-O ) :   1.0180 B(  6-C ,  9-H ) :   0.9638 B(  6-C , 10-H ) :   0.9965
B(  6-C , 11-H ) :   0.9751 B(  7-O ,  8-H ) :   0.9002

Dispersion correction           -0.000244961
FINAL SINGLE POINT ENERGY      -115.730945047306

DIPOLE MOMENT
-------------
                                X             Y             Z
Electronic contribution:     -0.63008      -1.34963      -1.15511
Nuclear contribution   :      1.14567       1.32797       1.67323
                        -----------------------------------------
Total Dipole Moment    :      0.51559      -0.02167       0.51812
                        -----------------------------------------
Magnitude (a.u.)       :      0.73127
Magnitude (Debye)      :      1.85873

Rotational constants in cm-1:     4.442216     0.826113     0.795763
Rotational constants in MHz : 133174.294541 24766.258594 23856.385108

                             ****ORCA TERMINATED NORMALLY****
TOTAL RUN TIME: 0 days 0 hours 1 minutes 14 seconds 3 msec
