                         Program Version 4.1.2  - RELEASE  -
|  1> #Run DFT-D3 single point of the dimer
|  2> ! wB97X-D3 def2-TZVP TIGHTSCF CHELPG PMODEL PAL8
|  3>
|  4> %base "14-70_DFT_AB"
|  5>
|  6> %scf
|  7> MaxIter 1000
|  8> end
|  9>
| 10> * xyz 0 1
| 11>   C                      -0.584460            9.833385             -7.370606
| 12>   O                      0.262817             9.973202             -6.259486
| 13>   H                      -0.083268            10.436978            -5.479950
| 14>   H                      -1.227082            10.668618            -7.422794
| 15>   H                      0.023229             9.743565             -8.282138
| 16>   H                      -1.232432            8.935795             -7.342917
| 17>   C                      -4.073277            7.976176             -7.110372
| 18>   O                      -5.078021            7.769096             -8.089968
| 19>   H                      -5.291997            8.628323             -8.440307
| 20>   H                      -4.462552            8.605275             -6.311199
| 21>   H                      -3.792457            7.025304             -6.538516
| 22>   H                      -3.206535            8.432150             -7.580872
| 23> *
| 24>
| 25> #Run DFT-D3 single point of the molecule with dimer basis set
| 26> $new_job
| 27> %base "14-70_DFT_A"
| 28> ! wB97X-D3 def2-TZVP TIGHTSCF CHELPG PMODEL
| 29>
| 30> %scf
| 31> MaxIter 1000
| 32> end
| 33>
| 34> * xyz 0 1
| 35>   C                      -0.584460            9.833385             -7.370606
| 36>   O                      0.262817             9.973202             -6.259486
| 37>   H                      -0.083268            10.436978            -5.479950
| 38>   H                      -1.227082            10.668618            -7.422794
| 39>   H                      0.023229             9.743565             -8.282138
| 40>   H                      -1.232432            8.935795             -7.342917
| 41>   C                    : -4.073277            7.976176             -7.110372
| 42>   O                    : -5.078021            7.769096             -8.089968
| 43>   H                    : -5.291997            8.628323             -8.440307
| 44>   H                    : -4.462552            8.605275             -6.311199
| 45>   H                    : -3.792457            7.025304             -6.538516
| 46>   H                    : -3.206535            8.432150             -7.580872
| 47> *
| 48>
| 49> #Run DFT-D3 single point of the particle with dimer basis set
| 50> $new_job
| 51> %base "14-70_DFT_B"
| 52> ! wB97X-D3 def2-TZVP TIGHTSCF CHELPG PMODEL
| 53>
| 54> %scf
| 55> MaxIter 1000
| 56> end
| 57>
| 58> * xyz 0 1
| 59>   C                    : -0.584460            9.833385             -7.370606
| 60>   O                    : 0.262817             9.973202             -6.259486
| 61>   H                    : -0.083268            10.436978            -5.479950
| 62>   H                    : -1.227082            10.668618            -7.422794
| 63>   H                    : 0.023229             9.743565             -8.282138
| 64>   H                    : -1.232432            8.935795             -7.342917
| 65>   C                      -4.073277            7.976176             -7.110372
| 66>   O                      -5.078021            7.769096             -8.089968
| 67>   H                      -5.291997            8.628323             -8.440307
| 68>   H                      -4.462552            8.605275             -6.311199
| 69>   H                      -3.792457            7.025304             -6.538516
| 70>   H                      -3.206535            8.432150             -7.580872
| 71> *
| 72>
| 73>                          ****END OF INPUT****
 Total Charge           Charge          ....    0
 Multiplicity           Mult            ....    1
 Number of Electrons    NEL             ....   36
Dispersion correction           -0.001348767
FINAL SINGLE POINT ENERGY      -231.465180390542
Dispersion correction           -0.000256089
FINAL SINGLE POINT ENERGY      -115.732564323589

CARTESIAN COORDINATES (ANGSTROEM)
---------------------------------
  C     -0.584460    9.833385   -7.370606
  O      0.262817    9.973202   -6.259486
  H     -0.083268   10.436978   -5.479950
  H     -1.227082   10.668618   -7.422794
  H      0.023229    9.743565   -8.282138
  H     -1.232432    8.935795   -7.342917
  C     -4.073277    7.976176   -7.110372
  O     -5.078021    7.769096   -8.089968
  H     -5.291997    8.628323   -8.440307
  H     -4.462552    8.605275   -6.311199
  H     -3.792457    7.025304   -6.538516
  H     -3.206535    8.432150   -7.580872

 Multiplicity           Mult            ....    1
 Number of Electrons    NEL             ....   18
 Basis Dimension        Dim             ....  172

ORBITAL ENERGIES
----------------

  NO   OCC          E(Eh)            E(eV)
   0   2.0000     -19.229036      -523.2487
   1   2.0000     -10.317248      -280.7466
   2   2.0000      -1.137412       -30.9506
   3   2.0000      -0.792113       -21.5545
   4   2.0000      -0.607949       -16.5431
   5   2.0000      -0.549869       -14.9627
   6   2.0000      -0.522397       -14.2151
   7   2.0000      -0.429737       -11.6937
   8   2.0000      -0.374132       -10.1806
   9   0.0000       0.083765         2.2793
  10   0.0000       0.117622         3.2007
  11   0.0000       0.154147         4.1946
  12   0.0000       0.161447         4.3932
  13   0.0000       0.193491         5.2652

MULLIKEN ATOMIC CHARGES
-----------------------
   0 C :    0.002854
   1 O :   -0.000027
   2 H :   -0.000015
   3 H :   -0.000244
   4 H :   -0.000402
   5 H :   -0.006633
   6 C :   -0.173093
   7 O :   -0.470439
   8 H :    0.314290
   9 H :    0.106339
  10 H :    0.117936
  11 H :    0.109434
Sum of atomic charges:   -0.0000000

LOEWDIN ATOMIC CHARGES
----------------------
   0 C :   -0.005281
   1 O :   -0.000019
   2 H :   -0.000004
   3 H :   -0.000463
   4 H :   -0.000062
   5 H :   -0.010101
   6 C :   -0.384979
   7 O :   -0.078017
   8 H :    0.164474
   9 H :    0.094089
  10 H :    0.119611
  11 H :    0.100751

  Mayer bond orders larger than 0.1
B(  6-C ,  7-O ) :   0.9851 B(  6-C ,  9-H ) :   0.9759 B(  6-C , 10-H ) :   0.9658
B(  6-C , 11-H ) :   0.9830 B(  7-O ,  8-H ) :   0.9001

Dispersion correction           -0.000233022
FINAL SINGLE POINT ENERGY      -115.733085758378

DIPOLE MOMENT
-------------
                                X             Y             Z
Electronic contribution:     -1.24544      -0.40423      -1.29672
Nuclear contribution   :      1.49783       1.03102       1.47632
                        -----------------------------------------
Total Dipole Moment    :      0.25238       0.62679       0.17961
                        -----------------------------------------
Magnitude (a.u.)       :      0.69916
Magnitude (Debye)      :      1.77713

Rotational constants in cm-1:     4.231905     0.826209     0.796608
Rotational constants in MHz : 126869.334019 24769.126655 23881.716134

                             ****ORCA TERMINATED NORMALLY****
TOTAL RUN TIME: 0 days 0 hours 0 minutes 54 seconds 402 msec
