                         Program Version 4.1.2  - RELEASE  -
|  1> #Run DFT-D3 single point of the dimer
|  2> ! wB97X-D3 def2-TZVP TIGHTSCF  CHELPG PAL8
|  3>
|  4> %base "71_charges"
|  5>
|  6> %scf
|  7> MaxIter 1000
|  8> end
|  9> %output
| 10>   Print[ P_Mayer ] 1
| 11>   Print[ P_NatPop ] 1
| 12>   Print[ P_Hirshfeld ] 1
| 13>   Print[ P_Mulliken ] 1
| 14>   Print [ P_Loewdin ] 1
| 15> end
| 16>
| 17> * xyz 0 1
| 18>   C                      -0.217516            -6.725133            -5.242275
| 19>   O                      1.039129             -6.785138            -5.956436
| 20>   H                      1.404363             -5.934058            -6.087371
| 21>   H                      -1.110641            -6.670821            -5.945891
| 22>   H                      -0.464051            -7.649077            -4.622488
| 23>   H                      -0.297679            -5.921611            -4.543602
| 24> *
| 25>
| 26>                          ****END OF INPUT****

CARTESIAN COORDINATES (ANGSTROEM)
---------------------------------
  C     -0.217516   -6.725133   -5.242275
  O      1.039129   -6.785138   -5.956436
  H      1.404363   -5.934058   -6.087371
  H     -1.110641   -6.670821   -5.945891
  H     -0.464051   -7.649077   -4.622488
  H     -0.297679   -5.921611   -4.543602

 Total Charge           Charge          ....    0
 Multiplicity           Mult            ....    1
 Number of Electrons    NEL             ....   18
 Basis Dimension        Dim             ....   86

ORBITAL ENERGIES
----------------

  NO   OCC          E(Eh)            E(eV)
   0   2.0000     -19.231170      -523.3067
   1   2.0000     -10.324232      -280.9366
   2   2.0000      -1.131254       -30.7830
   3   2.0000      -0.798356       -21.7244
   4   2.0000      -0.613722       -16.7002
   5   2.0000      -0.531310       -14.4577
   6   2.0000      -0.520984       -14.1767
   7   2.0000      -0.432596       -11.7715
   8   2.0000      -0.375665       -10.2224
   9   0.0000       0.119084         3.2404
  10   0.0000       0.144767         3.9393
  11   0.0000       0.199812         5.4372
  12   0.0000       0.200579         5.4580
  13   0.0000       0.227924         6.2021

MULLIKEN ATOMIC CHARGES
-----------------------
   0 C :   -0.173642
   1 O :   -0.478580
   2 H :    0.314861
   3 H :    0.102704
   4 H :    0.120513
   5 H :    0.114143
Sum of atomic charges:    0.0000000

LOEWDIN ATOMIC CHARGES
----------------------
   0 C :   -0.372192
   1 O :   -0.085925
   2 H :    0.150462
   3 H :    0.102972
   4 H :    0.115632
   5 H :    0.089051

  Mayer bond orders larger than 0.1
B(  0-C ,  1-O ) :   1.0024 B(  0-C ,  3-H ) :   0.9746 B(  0-C ,  4-H ) :   0.9716
B(  0-C ,  5-H ) :   0.9745 B(  1-O ,  2-H ) :   0.9008

Dispersion correction           -0.000292234
FINAL SINGLE POINT ENERGY      -115.729290208084

DIPOLE MOMENT
-------------
                                X             Y             Z
Electronic contribution:      1.74039      -0.10693      -0.90517
Nuclear contribution   :     -2.01582       0.70621       1.14416
                        -----------------------------------------
Total Dipole Moment    :     -0.27542       0.59929       0.23899
                        -----------------------------------------
Magnitude (a.u.)       :      0.70151
Magnitude (Debye)      :      1.78310

Rotational constants in cm-1:     4.418412     0.777702     0.757220
Rotational constants in MHz : 132460.655856 23314.932174 22700.889983

                             ****ORCA TERMINATED NORMALLY****
TOTAL RUN TIME: 0 days 0 hours 0 minutes 41 seconds 631 msec
