                         Program Version 4.1.2  - RELEASE  -
|  1> #Run DFT-D3 single point of the dimer
|  2> ! wB97X-D3 def2-TZVP TIGHTSCF CHELPG PMODEL PAL8
|  3>
|  4> %base "5-127_DFT_AB"
|  5>
|  6> %scf
|  7> MaxIter 1000
|  8> end
|  9>
| 10> * xyz 0 1
| 11>   C                      8.993395             7.768408             -1.929499
| 12>   O                      8.277690             6.973573             -2.867001
| 13>   H                      8.425852             6.002038             -2.621908
| 14>   H                      8.719667             7.623738             -0.890754
| 15>   H                      10.017294            7.538047             -2.089698
| 16>   H                      8.693752             8.789069             -2.138796
| 17>   C                      10.113427            10.935619            -6.481662
| 18>   O                      10.630876            10.295021            -5.295632
| 19>   H                      10.413318            10.834888            -4.519883
| 20>   H                      9.238122             11.581264            -6.278384
| 21>   H                      10.971074            11.496609            -6.993023
| 22>   H                      9.793802             10.043394            -7.079421
| 23> *
| 24>
| 25> #Run DFT-D3 single point of the molecule with dimer basis set
| 26> $new_job
| 27> %base "5-127_DFT_A"
| 28> ! wB97X-D3 def2-TZVP TIGHTSCF CHELPG PMODEL
| 29>
| 30> %scf
| 31> MaxIter 1000
| 32> end
| 33>
| 34> * xyz 0 1
| 35>   C                      8.993395             7.768408             -1.929499
| 36>   O                      8.277690             6.973573             -2.867001
| 37>   H                      8.425852             6.002038             -2.621908
| 38>   H                      8.719667             7.623738             -0.890754
| 39>   H                      10.017294            7.538047             -2.089698
| 40>   H                      8.693752             8.789069             -2.138796
| 41>   C                    : 10.113427            10.935619            -6.481662
| 42>   O                    : 10.630876            10.295021            -5.295632
| 43>   H                    : 10.413318            10.834888            -4.519883
| 44>   H                    : 9.238122             11.581264            -6.278384
| 45>   H                    : 10.971074            11.496609            -6.993023
| 46>   H                    : 9.793802             10.043394            -7.079421
| 47> *
| 48>
| 49> #Run DFT-D3 single point of the particle with dimer basis set
| 50> $new_job
| 51> %base "5-127_DFT_B"
| 52> ! wB97X-D3 def2-TZVP TIGHTSCF CHELPG PMODEL
| 53>
| 54> %scf
| 55> MaxIter 1000
| 56> end
| 57>
| 58> * xyz 0 1
| 59>   C                    : 8.993395             7.768408             -1.929499
| 60>   O                    : 8.277690             6.973573             -2.867001
| 61>   H                    : 8.425852             6.002038             -2.621908
| 62>   H                    : 8.719667             7.623738             -0.890754
| 63>   H                    : 10.017294            7.538047             -2.089698
| 64>   H                    : 8.693752             8.789069             -2.138796
| 65>   C                      10.113427            10.935619            -6.481662
| 66>   O                      10.630876            10.295021            -5.295632
| 67>   H                      10.413318            10.834888            -4.519883
| 68>   H                      9.238122             11.581264            -6.278384
| 69>   H                      10.971074            11.496609            -6.993023
| 70>   H                      9.793802             10.043394            -7.079421
| 71> *
| 72>
| 73>                          ****END OF INPUT****
 Total Charge           Charge          ....    0
 Multiplicity           Mult            ....    1
 Number of Electrons    NEL             ....   36
Dispersion correction           -0.000830133
FINAL SINGLE POINT ENERGY      -231.462606982917
Dispersion correction           -0.000229114
FINAL SINGLE POINT ENERGY      -115.730957638567

CARTESIAN COORDINATES (ANGSTROEM)
---------------------------------
  C      8.993395    7.768408   -1.929499
  O      8.277690    6.973573   -2.867001
  H      8.425852    6.002038   -2.621908
  H      8.719667    7.623738   -0.890754
  H     10.017294    7.538047   -2.089698
  H      8.693752    8.789069   -2.138796
  C     10.113427   10.935619   -6.481662
  O     10.630876   10.295021   -5.295632
  H     10.413318   10.834888   -4.519883
  H      9.238122   11.581264   -6.278384
  H     10.971074   11.496609   -6.993023
  H      9.793802   10.043394   -7.079421

 Multiplicity           Mult            ....    1
 Number of Electrons    NEL             ....   18
 Basis Dimension        Dim             ....  172

ORBITAL ENERGIES
----------------

  NO   OCC          E(Eh)            E(eV)
   0   2.0000     -19.227927      -523.2185
   1   2.0000     -10.324331      -280.9393
   2   2.0000      -1.123944       -30.5841
   3   2.0000      -0.787418       -21.4267
   4   2.0000      -0.603694       -16.4274
   5   2.0000      -0.536345       -14.5947
   6   2.0000      -0.513151       -13.9635
   7   2.0000      -0.435367       -11.8469
   8   2.0000      -0.370937       -10.0937
   9   0.0000       0.088004         2.3947
  10   0.0000       0.114541         3.1168
  11   0.0000       0.150543         4.0965
  12   0.0000       0.172804         4.7022
  13   0.0000       0.187851         5.1117

MULLIKEN ATOMIC CHARGES
-----------------------
   0 C :   -0.001112
   1 O :    0.000207
   2 H :    0.000017
   3 H :   -0.000116
   4 H :    0.000231
   5 H :   -0.000998
   6 C :   -0.174049
   7 O :   -0.480407
   8 H :    0.312686
   9 H :    0.111928
  10 H :    0.108557
  11 H :    0.123057
Sum of atomic charges:    0.0000000

LOEWDIN ATOMIC CHARGES
----------------------
   0 C :   -0.000835
   1 O :   -0.000013
   2 H :   -0.000001
   3 H :   -0.000034
   4 H :   -0.000083
   5 H :   -0.000471
   6 C :   -0.374602
   7 O :   -0.109956
   8 H :    0.167991
   9 H :    0.097541
  10 H :    0.106547
  11 H :    0.113916

  Mayer bond orders larger than 0.1
B(  6-C ,  7-O ) :   0.9908 B(  6-C ,  9-H ) :   0.9716 B(  6-C , 10-H ) :   0.9688
B(  6-C , 11-H ) :   0.9773 B(  7-O ,  8-H ) :   0.9006

Dispersion correction           -0.000264235
FINAL SINGLE POINT ENERGY      -115.731779112293

DIPOLE MOMENT
-------------
                                X             Y             Z
Electronic contribution:      0.62303      -0.77301       1.37034
Nuclear contribution   :     -0.99640       1.37074      -1.34807
                        -----------------------------------------
Total Dipole Moment    :     -0.37337       0.59773       0.02228
                        -----------------------------------------
Magnitude (a.u.)       :      0.70511
Magnitude (Debye)      :      1.79225

Rotational constants in cm-1:     3.981823     0.805569     0.781741
Rotational constants in MHz : 119372.042244 24150.355818 23436.017318

                             ****ORCA TERMINATED NORMALLY****
TOTAL RUN TIME: 0 days 0 hours 0 minutes 46 seconds 590 msec
