                         Program Version 4.1.2  - RELEASE  -
|  1> #Run DFT-D3 single point of the dimer
|  2> ! wB97X-D3 def2-TZVP TIGHTSCF CHELPG PMODEL PAL8
|  3>
|  4> %base "17-13_DFT_AB"
|  5>
|  6> %scf
|  7> MaxIter 1000
|  8> end
|  9>
| 10> * xyz 0 1
| 11>   C                      -4.021581            2.799748             -3.951247
| 12>   O                      -3.968984            3.408857             -2.693875
| 13>   H                      -3.428997            4.133400             -2.976944
| 14>   H                      -4.837682            2.116741             -4.115847
| 15>   H                      -4.388551            3.544017             -4.698766
| 16>   H                      -3.031499            2.512948             -4.232440
| 17>   C                      -1.627934            6.266983             -5.420462
| 18>   O                      -2.389891            5.130978             -5.209662
| 19>   H                      -3.228653            5.374556             -5.691346
| 20>   H                      -0.709581            6.221348             -4.813212
| 21>   H                      -1.362621            6.499080             -6.477642
| 22>   H                      -2.295527            7.046350             -5.054601
| 23> *
| 24>
| 25> #Run DFT-D3 single point of the molecule with dimer basis set
| 26> $new_job
| 27> %base "17-13_DFT_A"
| 28> ! wB97X-D3 def2-TZVP TIGHTSCF CHELPG PMODEL
| 29>
| 30> %scf
| 31> MaxIter 1000
| 32> end
| 33>
| 34> * xyz 0 1
| 35>   C                      -4.021581            2.799748             -3.951247
| 36>   O                      -3.968984            3.408857             -2.693875
| 37>   H                      -3.428997            4.133400             -2.976944
| 38>   H                      -4.837682            2.116741             -4.115847
| 39>   H                      -4.388551            3.544017             -4.698766
| 40>   H                      -3.031499            2.512948             -4.232440
| 41>   C                    : -1.627934            6.266983             -5.420462
| 42>   O                    : -2.389891            5.130978             -5.209662
| 43>   H                    : -3.228653            5.374556             -5.691346
| 44>   H                    : -0.709581            6.221348             -4.813212
| 45>   H                    : -1.362621            6.499080             -6.477642
| 46>   H                    : -2.295527            7.046350             -5.054601
| 47> *
| 48>
| 49> #Run DFT-D3 single point of the particle with dimer basis set
| 50> $new_job
| 51> %base "17-13_DFT_B"
| 52> ! wB97X-D3 def2-TZVP TIGHTSCF CHELPG PMODEL
| 53>
| 54> %scf
| 55> MaxIter 1000
| 56> end
| 57>
| 58> * xyz 0 1
| 59>   C                    : -4.021581            2.799748             -3.951247
| 60>   O                    : -3.968984            3.408857             -2.693875
| 61>   H                    : -3.428997            4.133400             -2.976944
| 62>   H                    : -4.837682            2.116741             -4.115847
| 63>   H                    : -4.388551            3.544017             -4.698766
| 64>   H                    : -3.031499            2.512948             -4.232440
| 65>   C                      -1.627934            6.266983             -5.420462
| 66>   O                      -2.389891            5.130978             -5.209662
| 67>   H                      -3.228653            5.374556             -5.691346
| 68>   H                      -0.709581            6.221348             -4.813212
| 69>   H                      -1.362621            6.499080             -6.477642
| 70>   H                      -2.295527            7.046350             -5.054601
| 71> *
| 72>
| 73>                          ****END OF INPUT****
 Total Charge           Charge          ....    0
 Multiplicity           Mult            ....    1
 Number of Electrons    NEL             ....   36
Dispersion correction           -0.001808205
FINAL SINGLE POINT ENERGY      -231.454629171095
Dispersion correction           -0.000191094
FINAL SINGLE POINT ENERGY      -115.721630298728

CARTESIAN COORDINATES (ANGSTROEM)
---------------------------------
  C     -4.021581    2.799748   -3.951247
  O     -3.968984    3.408857   -2.693875
  H     -3.428997    4.133400   -2.976944
  H     -4.837682    2.116741   -4.115847
  H     -4.388551    3.544017   -4.698766
  H     -3.031499    2.512948   -4.232440
  C     -1.627934    6.266983   -5.420462
  O     -2.389891    5.130978   -5.209662
  H     -3.228653    5.374556   -5.691346
  H     -0.709581    6.221348   -4.813212
  H     -1.362621    6.499080   -6.477642
  H     -2.295527    7.046350   -5.054601

 Multiplicity           Mult            ....    1
 Number of Electrons    NEL             ....   18
 Basis Dimension        Dim             ....  172

ORBITAL ENERGIES
----------------

  NO   OCC          E(Eh)            E(eV)
   0   2.0000     -19.234669      -523.4020
   1   2.0000     -10.313152      -280.6351
   2   2.0000      -1.145966       -31.1833
   3   2.0000      -0.784002       -21.3338
   4   2.0000      -0.612809       -16.6754
   5   2.0000      -0.549448       -14.9512
   6   2.0000      -0.528245       -14.3743
   7   2.0000      -0.437065       -11.8931
   8   2.0000      -0.368368       -10.0238
   9   0.0000       0.092458         2.5159
  10   0.0000       0.125663         3.4195
  11   0.0000       0.157657         4.2901
  12   0.0000       0.180624         4.9150
  13   0.0000       0.198134         5.3915

MULLIKEN ATOMIC CHARGES
-----------------------
   0 C :    0.016421
   1 O :   -0.000368
   2 H :   -0.008773
   3 H :   -0.000097
   4 H :   -0.007576
   5 H :   -0.007131
   6 C :   -0.166244
   7 O :   -0.453776
   8 H :    0.318988
   9 H :    0.116679
  10 H :    0.093241
  11 H :    0.098636
Sum of atomic charges:    0.0000000

LOEWDIN ATOMIC CHARGES
----------------------
   0 C :   -0.013508
   1 O :   -0.000647
   2 H :   -0.009116
   3 H :   -0.000084
   4 H :   -0.005430
   5 H :   -0.003832
   6 C :   -0.418332
   7 O :   -0.049443
   8 H :    0.200851
   9 H :    0.109148
  10 H :    0.094602
  11 H :    0.095792

  Mayer bond orders larger than 0.1
B(  6-C ,  7-O ) :   0.9935 B(  6-C ,  9-H ) :   0.9754 B(  6-C , 10-H ) :   0.9604
B(  6-C , 11-H ) :   0.9975 B(  7-O ,  8-H ) :   0.8918

Dispersion correction           -0.000204709
FINAL SINGLE POINT ENERGY      -115.728621411214

DIPOLE MOMENT
-------------
                                X             Y             Z
Electronic contribution:     -0.75638      -1.61212       0.32741
Nuclear contribution   :      0.53306       2.18037      -0.68437
                        -----------------------------------------
Total Dipole Moment    :     -0.22332       0.56825      -0.35696
                        -----------------------------------------
Magnitude (a.u.)       :      0.70725
Magnitude (Debye)      :      1.79768

Rotational constants in cm-1:     4.093950     0.877046     0.835152
Rotational constants in MHz : 122733.539579 26293.167508 25037.235435

                             ****ORCA TERMINATED NORMALLY****
TOTAL RUN TIME: 0 days 0 hours 1 minutes 13 seconds 411 msec
