                         Program Version 4.1.2  - RELEASE  -
|  1> #Run DFT-D3 single point of the dimer
|  2> ! wB97X-D3 def2-TZVP TIGHTSCF CHELPG PMODEL PAL8
|  3>
|  4> %base "12-93_DFT_AB"
|  5>
|  6> %scf
|  7> MaxIter 1000
|  8> end
|  9>
| 10> * xyz 0 1
| 11>   C                      -8.330021            -3.936850            9.780098
| 12>   O                      -7.082873            -4.366825            9.301597
| 13>   H                      -6.330123            -4.091510            9.880843
| 14>   H                      -9.113728            -4.603709            9.450616
| 15>   H                      -8.289771            -4.009567            10.862791
| 16>   H                      -8.578552            -2.883557            9.468591
| 17>   C                      -9.745891            -7.769477            6.003812
| 18>   O                      -10.613151           -6.677314            5.881094
| 19>   H                      -11.253201           -6.878517            5.182759
| 20>   H                      -9.047745            -7.871018            5.059801
| 21>   H                      -9.043733            -7.687205            6.843782
| 22>   H                      -10.274190           -8.678571            6.201613
| 23> *
| 24>
| 25> #Run DFT-D3 single point of the molecule with dimer basis set
| 26> $new_job
| 27> %base "12-93_DFT_A"
| 28> ! wB97X-D3 def2-TZVP TIGHTSCF CHELPG PMODEL
| 29>
| 30> %scf
| 31> MaxIter 1000
| 32> end
| 33>
| 34> * xyz 0 1
| 35>   C                      -8.330021            -3.936850            9.780098
| 36>   O                      -7.082873            -4.366825            9.301597
| 37>   H                      -6.330123            -4.091510            9.880843
| 38>   H                      -9.113728            -4.603709            9.450616
| 39>   H                      -8.289771            -4.009567            10.862791
| 40>   H                      -8.578552            -2.883557            9.468591
| 41>   C                    : -9.745891            -7.769477            6.003812
| 42>   O                    : -10.613151           -6.677314            5.881094
| 43>   H                    : -11.253201           -6.878517            5.182759
| 44>   H                    : -9.047745            -7.871018            5.059801
| 45>   H                    : -9.043733            -7.687205            6.843782
| 46>   H                    : -10.274190           -8.678571            6.201613
| 47> *
| 48>
| 49> #Run DFT-D3 single point of the particle with dimer basis set
| 50> $new_job
| 51> %base "12-93_DFT_B"
| 52> ! wB97X-D3 def2-TZVP TIGHTSCF CHELPG PMODEL
| 53>
| 54> %scf
| 55> MaxIter 1000
| 56> end
| 57>
| 58> * xyz 0 1
| 59>   C                    : -8.330021            -3.936850            9.780098
| 60>   O                    : -7.082873            -4.366825            9.301597
| 61>   H                    : -6.330123            -4.091510            9.880843
| 62>   H                    : -9.113728            -4.603709            9.450616
| 63>   H                    : -8.289771            -4.009567            10.862791
| 64>   H                    : -8.578552            -2.883557            9.468591
| 65>   C                      -9.745891            -7.769477            6.003812
| 66>   O                      -10.613151           -6.677314            5.881094
| 67>   H                      -11.253201           -6.878517            5.182759
| 68>   H                      -9.047745            -7.871018            5.059801
| 69>   H                      -9.043733            -7.687205            6.843782
| 70>   H                      -10.274190           -8.678571            6.201613
| 71> *
| 72>
| 73>                          ****END OF INPUT****
 Total Charge           Charge          ....    0
 Multiplicity           Mult            ....    1
 Number of Electrons    NEL             ....   36
Dispersion correction           -0.000704632
FINAL SINGLE POINT ENERGY      -231.465251980531
Dispersion correction           -0.000246037
FINAL SINGLE POINT ENERGY      -115.733343749628

CARTESIAN COORDINATES (ANGSTROEM)
---------------------------------
  C     -8.330021   -3.936850    9.780098
  O     -7.082873   -4.366825    9.301597
  H     -6.330123   -4.091510    9.880843
  H     -9.113728   -4.603709    9.450616
  H     -8.289771   -4.009567   10.862791
  H     -8.578552   -2.883557    9.468591
  C     -9.745891   -7.769477    6.003812
  O    -10.613151   -6.677314    5.881094
  H    -11.253201   -6.878517    5.182759
  H     -9.047745   -7.871018    5.059801
  H     -9.043733   -7.687205    6.843782
  H    -10.274190   -8.678571    6.201613

 Multiplicity           Mult            ....    1
 Number of Electrons    NEL             ....   18
 Basis Dimension        Dim             ....  172

ORBITAL ENERGIES
----------------

  NO   OCC          E(Eh)            E(eV)
   0   2.0000     -19.233288      -523.3644
   1   2.0000     -10.318676      -280.7855
   2   2.0000      -1.140227       -31.0272
   3   2.0000      -0.791777       -21.5453
   4   2.0000      -0.610780       -16.6202
   5   2.0000      -0.540839       -14.7170
   6   2.0000      -0.530820       -14.4443
   7   2.0000      -0.427306       -11.6276
   8   2.0000      -0.373389       -10.1604
   9   0.0000       0.091756         2.4968
  10   0.0000       0.114808         3.1241
  11   0.0000       0.149763         4.0753
  12   0.0000       0.168955         4.5975
  13   0.0000       0.182802         4.9743

MULLIKEN ATOMIC CHARGES
-----------------------
   0 C :    0.000028
   1 O :    0.000001
   2 H :   -0.000001
   3 H :   -0.000269
   4 H :   -0.000000
   5 H :   -0.000000
   6 C :   -0.170612
   7 O :   -0.466632
   8 H :    0.318725
   9 H :    0.091329
  10 H :    0.120073
  11 H :    0.107360
Sum of atomic charges:    0.0000000

LOEWDIN ATOMIC CHARGES
----------------------
   0 C :   -0.000036
   1 O :   -0.000009
   2 H :   -0.000001
   3 H :   -0.000067
   4 H :   -0.000001
   5 H :   -0.000001
   6 C :   -0.407664
   7 O :   -0.070127
   8 H :    0.176940
   9 H :    0.104894
  10 H :    0.107693
  11 H :    0.088379

  Mayer bond orders larger than 0.1
B(  6-C ,  7-O ) :   1.0060 B(  6-C ,  9-H ) :   0.9752 B(  6-C , 10-H ) :   0.9712
B(  6-C , 11-H ) :   0.9760 B(  7-O ,  8-H ) :   0.8949

Dispersion correction           -0.000251747
FINAL SINGLE POINT ENERGY      -115.731646110400

DIPOLE MOMENT
-------------
                                X             Y             Z
Electronic contribution:     -1.18829       1.51958       0.01853
Nuclear contribution   :      1.09790      -2.06904      -0.36709
                        -----------------------------------------
Total Dipole Moment    :     -0.09039      -0.54946      -0.34857
                        -----------------------------------------
Magnitude (a.u.)       :      0.65694
Magnitude (Debye)      :      1.66981

Rotational constants in cm-1:     4.225259     0.827580     0.808394
Rotational constants in MHz : 126670.082682 24810.226461 24235.035376

                             ****ORCA TERMINATED NORMALLY****
TOTAL RUN TIME: 0 days 0 hours 1 minutes 3 seconds 26 msec
