                         Program Version 4.1.2  - RELEASE  -
|  1> #Run DFT-D3 single point of the dimer
|  2> ! wB97X-D3 def2-TZVP TIGHTSCF  CHELPG PAL8
|  3>
|  4> %base "81_charges"
|  5>
|  6> %scf
|  7> MaxIter 1000
|  8> end
|  9> %output
| 10>   Print[ P_Mayer ] 1
| 11>   Print[ P_NatPop ] 1
| 12>   Print[ P_Hirshfeld ] 1
| 13>   Print[ P_Mulliken ] 1
| 14>   Print [ P_Loewdin ] 1
| 15> end
| 16>
| 17> * xyz 0 1
| 18>   C                      -2.629674            -0.419029            8.720508
| 19>   O                      -3.360570            -1.603200            8.485300
| 20>   H                      -2.769848            -2.239623            8.042148
| 21>   H                      -2.025672            -0.057065            7.874161
| 22>   H                      -3.321389            0.378845             8.990189
| 23>   H                      -1.949602            -0.641861            9.477818
| 24> *
| 25>
| 26>                          ****END OF INPUT****

CARTESIAN COORDINATES (ANGSTROEM)
---------------------------------
  C     -2.629674   -0.419029    8.720508
  O     -3.360570   -1.603200    8.485300
  H     -2.769848   -2.239623    8.042148
  H     -2.025672   -0.057065    7.874161
  H     -3.321389    0.378845    8.990189
  H     -1.949602   -0.641861    9.477818

 Total Charge           Charge          ....    0
 Multiplicity           Mult            ....    1
 Number of Electrons    NEL             ....   18
 Basis Dimension        Dim             ....   86

ORBITAL ENERGIES
----------------

  NO   OCC          E(Eh)            E(eV)
   0   2.0000     -19.228734      -523.2404
   1   2.0000     -10.306312      -280.4490
   2   2.0000      -1.133140       -30.8343
   3   2.0000      -0.796809       -21.6823
   4   2.0000      -0.611250       -16.6330
   5   2.0000      -0.548762       -14.9326
   6   2.0000      -0.522319       -14.2130
   7   2.0000      -0.435426       -11.8485
   8   2.0000      -0.370935       -10.0937
   9   0.0000       0.114464         3.1147
  10   0.0000       0.157619         4.2890
  11   0.0000       0.198591         5.4039
  12   0.0000       0.211540         5.7563
  13   0.0000       0.229043         6.2326

MULLIKEN ATOMIC CHARGES
-----------------------
   0 C :   -0.161573
   1 O :   -0.480980
   2 H :    0.314412
   3 H :    0.098430
   4 H :    0.121146
   5 H :    0.108564
Sum of atomic charges:   -0.0000000

LOEWDIN ATOMIC CHARGES
----------------------
   0 C :   -0.382143
   1 O :   -0.084436
   2 H :    0.176965
   3 H :    0.095168
   4 H :    0.109515
   5 H :    0.084931

  Mayer bond orders larger than 0.1
B(  0-C ,  1-O ) :   0.9909 B(  0-C ,  3-H ) :   0.9733 B(  0-C ,  4-H ) :   0.9720
B(  0-C ,  5-H ) :   0.9840 B(  1-O ,  2-H ) :   0.8976

Dispersion correction           -0.000226380
FINAL SINGLE POINT ENERGY      -115.733092753653

DIPOLE MOMENT
-------------
                                X             Y             Z
Electronic contribution:     -1.06370      -1.41181      -0.21141
Nuclear contribution   :      1.73476       1.48586       0.03103
                        -----------------------------------------
Total Dipole Moment    :      0.67106       0.07406      -0.18038
                        -----------------------------------------
Magnitude (a.u.)       :      0.69882
Magnitude (Debye)      :      1.77626

Rotational constants in cm-1:     4.362442     0.842104     0.804693
Rotational constants in MHz : 130782.723267 25245.634011 24124.074514

                             ****ORCA TERMINATED NORMALLY****
TOTAL RUN TIME: 0 days 0 hours 0 minutes 40 seconds 547 msec
