                         Program Version 4.1.2  - RELEASE  -
|  1> #Run DFT-D3 single point of the dimer
|  2> ! wB97X-D3 def2-TZVP TIGHTSCF CHELPG PMODEL PAL8
|  3>
|  4> %base "5-113_DFT_AB"
|  5>
|  6> %scf
|  7> MaxIter 1000
|  8> end
|  9>
| 10> * xyz 0 1
| 11>   C                      6.493591             -7.114689            5.665414
| 12>   O                      7.749158             -7.200561            5.023627
| 13>   H                      8.417499             -7.256658            5.702624
| 14>   H                      6.411173             -7.828988            6.442911
| 15>   H                      6.322881             -6.124128            6.161306
| 16>   H                      5.695959             -7.314876            5.013645
| 17>   C                      6.029280             -9.175350            9.917710
| 18>   O                      7.212876             -8.355816            9.850832
| 19>   H                      7.738320             -8.490723            9.042693
| 20>   H                      6.303231             -10.242801           9.700826
| 21>   H                      5.373470             -9.245646            10.809039
| 22>   H                      5.365920             -8.959489            9.043971
| 23> *
| 24>
| 25> #Run DFT-D3 single point of the molecule with dimer basis set
| 26> $new_job
| 27> %base "5-113_DFT_A"
| 28> ! wB97X-D3 def2-TZVP TIGHTSCF CHELPG PMODEL
| 29>
| 30> %scf
| 31> MaxIter 1000
| 32> end
| 33>
| 34> * xyz 0 1
| 35>   C                      6.493591             -7.114689            5.665414
| 36>   O                      7.749158             -7.200561            5.023627
| 37>   H                      8.417499             -7.256658            5.702624
| 38>   H                      6.411173             -7.828988            6.442911
| 39>   H                      6.322881             -6.124128            6.161306
| 40>   H                      5.695959             -7.314876            5.013645
| 41>   C                    : 6.029280             -9.175350            9.917710
| 42>   O                    : 7.212876             -8.355816            9.850832
| 43>   H                    : 7.738320             -8.490723            9.042693
| 44>   H                    : 6.303231             -10.242801           9.700826
| 45>   H                    : 5.373470             -9.245646            10.809039
| 46>   H                    : 5.365920             -8.959489            9.043971
| 47> *
| 48>
| 49> #Run DFT-D3 single point of the particle with dimer basis set
| 50> $new_job
| 51> %base "5-113_DFT_B"
| 52> ! wB97X-D3 def2-TZVP TIGHTSCF CHELPG PMODEL
| 53>
| 54> %scf
| 55> MaxIter 1000
| 56> end
| 57>
| 58> * xyz 0 1
| 59>   C                    : 6.493591             -7.114689            5.665414
| 60>   O                    : 7.749158             -7.200561            5.023627
| 61>   H                    : 8.417499             -7.256658            5.702624
| 62>   H                    : 6.411173             -7.828988            6.442911
| 63>   H                    : 6.322881             -6.124128            6.161306
| 64>   H                    : 5.695959             -7.314876            5.013645
| 65>   C                      6.029280             -9.175350            9.917710
| 66>   O                      7.212876             -8.355816            9.850832
| 67>   H                      7.738320             -8.490723            9.042693
| 68>   H                      6.303231             -10.242801           9.700826
| 69>   H                      5.373470             -9.245646            10.809039
| 70>   H                      5.365920             -8.959489            9.043971
| 71> *
| 72>
| 73>                          ****END OF INPUT****
 Total Charge           Charge          ....    0
 Multiplicity           Mult            ....    1
 Number of Electrons    NEL             ....   36
Dispersion correction           -0.001257515
FINAL SINGLE POINT ENERGY      -231.457978408584
Dispersion correction           -0.000235109
FINAL SINGLE POINT ENERGY      -115.733880337622

CARTESIAN COORDINATES (ANGSTROEM)
---------------------------------
  C      6.493591   -7.114689    5.665414
  O      7.749158   -7.200561    5.023627
  H      8.417499   -7.256658    5.702624
  H      6.411173   -7.828988    6.442911
  H      6.322881   -6.124128    6.161306
  H      5.695959   -7.314876    5.013645
  C      6.029280   -9.175350    9.917710
  O      7.212876   -8.355816    9.850832
  H      7.738320   -8.490723    9.042693
  H      6.303231  -10.242801    9.700826
  H      5.373470   -9.245646   10.809039
  H      5.365920   -8.959489    9.043971

 Multiplicity           Mult            ....    1
 Number of Electrons    NEL             ....   18
 Basis Dimension        Dim             ....  172

ORBITAL ENERGIES
----------------

  NO   OCC          E(Eh)            E(eV)
   0   2.0000     -19.232364      -523.3392
   1   2.0000     -10.325289      -280.9654
   2   2.0000      -1.123730       -30.5782
   3   2.0000      -0.795415       -21.6443
   4   2.0000      -0.609043       -16.5729
   5   2.0000      -0.534310       -14.5393
   6   2.0000      -0.523512       -14.2455
   7   2.0000      -0.425068       -11.5667
   8   2.0000      -0.369607       -10.0575
   9   0.0000       0.074305         2.0219
  10   0.0000       0.124936         3.3997
  11   0.0000       0.136476         3.7137
  12   0.0000       0.162536         4.4228
  13   0.0000       0.189407         5.1540

MULLIKEN ATOMIC CHARGES
-----------------------
   0 C :    0.000376
   1 O :    0.000060
   2 H :   -0.000119
   3 H :   -0.001800
   4 H :   -0.000051
   5 H :   -0.000006
   6 C :   -0.185366
   7 O :   -0.488793
   8 H :    0.325824
   9 H :    0.103646
  10 H :    0.140561
  11 H :    0.105667
Sum of atomic charges:   -0.0000000

LOEWDIN ATOMIC CHARGES
----------------------
   0 C :   -0.000799
   1 O :   -0.000016
   2 H :   -0.000090
   3 H :   -0.001222
   4 H :   -0.000049
   5 H :   -0.000016
   6 C :   -0.380736
   7 O :   -0.105488
   8 H :    0.177037
   9 H :    0.099254
  10 H :    0.114076
  11 H :    0.098049

  Mayer bond orders larger than 0.1
B(  6-C ,  7-O ) :   0.9871 B(  6-C ,  9-H ) :   0.9820 B(  6-C , 10-H ) :   0.9657
B(  6-C , 11-H ) :   0.9758 B(  7-O ,  8-H ) :   0.8869

Dispersion correction           -0.000280646
FINAL SINGLE POINT ENERGY      -115.723974105318

DIPOLE MOMENT
-------------
                                X             Y             Z
Electronic contribution:      1.50691       1.27700       0.26303
Nuclear contribution   :     -1.66492      -1.72403      -0.75575
                        -----------------------------------------
Total Dipole Moment    :     -0.15802      -0.44702      -0.49272
                        -----------------------------------------
Magnitude (a.u.)       :      0.68379
Magnitude (Debye)      :      1.73806

Rotational constants in cm-1:     4.425499     0.781747     0.753191
Rotational constants in MHz : 132673.108542 23436.197818 22580.093590

                             ****ORCA TERMINATED NORMALLY****
TOTAL RUN TIME: 0 days 0 hours 1 minutes 1 seconds 587 msec
