                         Program Version 4.1.2  - RELEASE  -
|  1> #Run DFT-D3 single point of the dimer
|  2> ! wB97X-D3 def2-TZVP TIGHTSCF CHELPG PMODEL PAL8
|  3>
|  4> %base "5-146_DFT_AB"
|  5>
|  6> %scf
|  7> MaxIter 1000
|  8> end
|  9>
| 10> * xyz 0 1
| 11>   C                      8.147362             3.621650             -3.749684
| 12>   O                      8.053980             4.057583             -2.454928
| 13>   H                      7.472880             3.409524             -2.063040
| 14>   H                      7.820027             2.626620             -3.885421
| 15>   H                      7.487367             4.180078             -4.434288
| 16>   H                      9.216773             3.642630             -4.117676
| 17>   C                      4.204103             2.431317             -5.970019
| 18>   O                      5.067774             2.272168             -4.820935
| 19>   H                      5.045180             3.168209             -4.363753
| 20>   H                      3.179644             2.543976             -5.666224
| 21>   H                      4.404252             3.284659             -6.559099
| 22>   H                      4.248912             1.564406             -6.637081
| 23> *
| 24>
| 25> #Run DFT-D3 single point of the molecule with dimer basis set
| 26> $new_job
| 27> %base "5-146_DFT_A"
| 28> ! wB97X-D3 def2-TZVP TIGHTSCF CHELPG PMODEL
| 29>
| 30> %scf
| 31> MaxIter 1000
| 32> end
| 33>
| 34> * xyz 0 1
| 35>   C                      8.147362             3.621650             -3.749684
| 36>   O                      8.053980             4.057583             -2.454928
| 37>   H                      7.472880             3.409524             -2.063040
| 38>   H                      7.820027             2.626620             -3.885421
| 39>   H                      7.487367             4.180078             -4.434288
| 40>   H                      9.216773             3.642630             -4.117676
| 41>   C                    : 4.204103             2.431317             -5.970019
| 42>   O                    : 5.067774             2.272168             -4.820935
| 43>   H                    : 5.045180             3.168209             -4.363753
| 44>   H                    : 3.179644             2.543976             -5.666224
| 45>   H                    : 4.404252             3.284659             -6.559099
| 46>   H                    : 4.248912             1.564406             -6.637081
| 47> *
| 48>
| 49> #Run DFT-D3 single point of the particle with dimer basis set
| 50> $new_job
| 51> %base "5-146_DFT_B"
| 52> ! wB97X-D3 def2-TZVP TIGHTSCF CHELPG PMODEL
| 53>
| 54> %scf
| 55> MaxIter 1000
| 56> end
| 57>
| 58> * xyz 0 1
| 59>   C                    : 8.147362             3.621650             -3.749684
| 60>   O                    : 8.053980             4.057583             -2.454928
| 61>   H                    : 7.472880             3.409524             -2.063040
| 62>   H                    : 7.820027             2.626620             -3.885421
| 63>   H                    : 7.487367             4.180078             -4.434288
| 64>   H                    : 9.216773             3.642630             -4.117676
| 65>   C                      4.204103             2.431317             -5.970019
| 66>   O                      5.067774             2.272168             -4.820935
| 67>   H                      5.045180             3.168209             -4.363753
| 68>   H                      3.179644             2.543976             -5.666224
| 69>   H                      4.404252             3.284659             -6.559099
| 70>   H                      4.248912             1.564406             -6.637081
| 71> *
| 72>
| 73>                          ****END OF INPUT****
 Total Charge           Charge          ....    0
 Multiplicity           Mult            ....    1
 Number of Electrons    NEL             ....   36
Dispersion correction           -0.001545490
FINAL SINGLE POINT ENERGY      -231.464295123457
Dispersion correction           -0.000222055
FINAL SINGLE POINT ENERGY      -115.730172400480

CARTESIAN COORDINATES (ANGSTROEM)
---------------------------------
  C      8.147362    3.621650   -3.749684
  O      8.053980    4.057583   -2.454928
  H      7.472880    3.409524   -2.063040
  H      7.820027    2.626620   -3.885421
  H      7.487367    4.180078   -4.434288
  H      9.216773    3.642630   -4.117676
  C      4.204103    2.431317   -5.970019
  O      5.067774    2.272168   -4.820935
  H      5.045180    3.168209   -4.363753
  H      3.179644    2.543976   -5.666224
  H      4.404252    3.284659   -6.559099
  H      4.248912    1.564406   -6.637081

 Multiplicity           Mult            ....    1
 Number of Electrons    NEL             ....   18
 Basis Dimension        Dim             ....  172

ORBITAL ENERGIES
----------------

  NO   OCC          E(Eh)            E(eV)
   0   2.0000     -19.237382      -523.4758
   1   2.0000     -10.309504      -280.5359
   2   2.0000      -1.120944       -30.5024
   3   2.0000      -0.798786       -21.7361
   4   2.0000      -0.603216       -16.4143
   5   2.0000      -0.538337       -14.6489
   6   2.0000      -0.522975       -14.2309
   7   2.0000      -0.442076       -12.0295
   8   2.0000      -0.375067       -10.2061
   9   0.0000       0.083688         2.2773
  10   0.0000       0.126159         3.4330
  11   0.0000       0.152420         4.1476
  12   0.0000       0.171937         4.6786
  13   0.0000       0.193625         5.2688

MULLIKEN ATOMIC CHARGES
-----------------------
   0 C :    0.001064
   1 O :    0.000085
   2 H :   -0.000123
   3 H :   -0.002842
   4 H :   -0.006318
   5 H :   -0.000610
   6 C :   -0.184115
   7 O :   -0.467689
   8 H :    0.317895
   9 H :    0.107382
  10 H :    0.112507
  11 H :    0.122764
Sum of atomic charges:    0.0000000

LOEWDIN ATOMIC CHARGES
----------------------
   0 C :   -0.006562
   1 O :   -0.000034
   2 H :   -0.000132
   3 H :   -0.004272
   4 H :   -0.003320
   5 H :   -0.000053
   6 C :   -0.364717
   7 O :   -0.107186
   8 H :    0.196167
   9 H :    0.092416
  10 H :    0.087697
  11 H :    0.109997

  Mayer bond orders larger than 0.1
B(  6-C ,  7-O ) :   0.9977 B(  6-C ,  9-H ) :   0.9786 B(  6-C , 10-H ) :   0.9733
B(  6-C , 11-H ) :   0.9749 B(  7-O ,  8-H ) :   0.8934

Dispersion correction           -0.000245988
FINAL SINGLE POINT ENERGY      -115.732245871519

DIPOLE MOMENT
-------------
                                X             Y             Z
Electronic contribution:      1.17321      -0.36926       1.39731
Nuclear contribution   :     -1.56146       0.98225      -1.60863
                        -----------------------------------------
Total Dipole Moment    :     -0.38825       0.61299      -0.21132
                        -----------------------------------------
Magnitude (a.u.)       :      0.75574
Magnitude (Debye)      :      1.92095

Rotational constants in cm-1:     4.369601     0.803409     0.767638
Rotational constants in MHz : 130997.347607 24085.607074 23013.217142

                             ****ORCA TERMINATED NORMALLY****
TOTAL RUN TIME: 0 days 0 hours 1 minutes 1 seconds 365 msec
