                         Program Version 4.1.2  - RELEASE  -
|  1> #Run DFT-D3 single point of the dimer
|  2> ! wB97X-D3 def2-TZVP TIGHTSCF CHELPG PMODEL PAL8
|  3>
|  4> %base "9-216_DFT_AB"
|  5>
|  6> %scf
|  7> MaxIter 1000
|  8> end
|  9>
| 10> * xyz 0 1
| 11>   C                      -9.583994            -5.979449            -1.643900
| 12>   O                      -8.777595            -7.054590            -2.124363
| 13>   H                      -9.152976            -7.893258            -1.786761
| 14>   H                      -10.655389           -6.277400            -1.640308
| 15>   H                      -9.376461            -5.652733            -0.626942
| 16>   H                      -9.621946            -5.123964            -2.274368
| 17>   C                      -11.135061           -10.299900           -0.591363
| 18>   O                      -10.192228           -9.501531            -1.276407
| 19>   H                      -9.359619            -10.089819           -1.285653
| 20>   H                      -12.102193           -9.759656            -0.313300
| 21>   H                      -11.571659           -11.060335           -1.312123
| 22>   H                      -10.682713           -10.727243           0.315266
| 23> *
| 24>
| 25> #Run DFT-D3 single point of the molecule with dimer basis set
| 26> $new_job
| 27> %base "9-216_DFT_A"
| 28> ! wB97X-D3 def2-TZVP TIGHTSCF CHELPG PMODEL
| 29>
| 30> %scf
| 31> MaxIter 1000
| 32> end
| 33>
| 34> * xyz 0 1
| 35>   C                      -9.583994            -5.979449            -1.643900
| 36>   O                      -8.777595            -7.054590            -2.124363
| 37>   H                      -9.152976            -7.893258            -1.786761
| 38>   H                      -10.655389           -6.277400            -1.640308
| 39>   H                      -9.376461            -5.652733            -0.626942
| 40>   H                      -9.621946            -5.123964            -2.274368
| 41>   C                    : -11.135061           -10.299900           -0.591363
| 42>   O                    : -10.192228           -9.501531            -1.276407
| 43>   H                    : -9.359619            -10.089819           -1.285653
| 44>   H                    : -12.102193           -9.759656            -0.313300
| 45>   H                    : -11.571659           -11.060335           -1.312123
| 46>   H                    : -10.682713           -10.727243           0.315266
| 47> *
| 48>
| 49> #Run DFT-D3 single point of the particle with dimer basis set
| 50> $new_job
| 51> %base "9-216_DFT_B"
| 52> ! wB97X-D3 def2-TZVP TIGHTSCF CHELPG PMODEL
| 53>
| 54> %scf
| 55> MaxIter 1000
| 56> end
| 57>
| 58> * xyz 0 1
| 59>   C                    : -9.583994            -5.979449            -1.643900
| 60>   O                    : -8.777595            -7.054590            -2.124363
| 61>   H                    : -9.152976            -7.893258            -1.786761
| 62>   H                    : -10.655389           -6.277400            -1.640308
| 63>   H                    : -9.376461            -5.652733            -0.626942
| 64>   H                    : -9.621946            -5.123964            -2.274368
| 65>   C                      -11.135061           -10.299900           -0.591363
| 66>   O                      -10.192228           -9.501531            -1.276407
| 67>   H                      -9.359619            -10.089819           -1.285653
| 68>   H                      -12.102193           -9.759656            -0.313300
| 69>   H                      -11.571659           -11.060335           -1.312123
| 70>   H                      -10.682713           -10.727243           0.315266
| 71> *
| 72>
| 73>                          ****END OF INPUT****
 Total Charge           Charge          ....    0
 Multiplicity           Mult            ....    1
 Number of Electrons    NEL             ....   36
Dispersion correction           -0.001526095
FINAL SINGLE POINT ENERGY      -231.466071618549
Dispersion correction           -0.000259095
FINAL SINGLE POINT ENERGY      -115.732231353807

CARTESIAN COORDINATES (ANGSTROEM)
---------------------------------
  C     -9.583994   -5.979449   -1.643900
  O     -8.777595   -7.054590   -2.124363
  H     -9.152976   -7.893258   -1.786761
  H    -10.655389   -6.277400   -1.640308
  H     -9.376461   -5.652733   -0.626942
  H     -9.621946   -5.123964   -2.274368
  C    -11.135061  -10.299900   -0.591363
  O    -10.192228   -9.501531   -1.276407
  H     -9.359619  -10.089819   -1.285653
  H    -12.102193   -9.759656   -0.313300
  H    -11.571659  -11.060335   -1.312123
  H    -10.682713  -10.727243    0.315266

 Multiplicity           Mult            ....    1
 Number of Electrons    NEL             ....   18
 Basis Dimension        Dim             ....  172

ORBITAL ENERGIES
----------------

  NO   OCC          E(Eh)            E(eV)
   0   2.0000     -19.238576      -523.5083
   1   2.0000     -10.322806      -280.8978
   2   2.0000      -1.131004       -30.7762
   3   2.0000      -0.781715       -21.2715
   4   2.0000      -0.600670       -16.3451
   5   2.0000      -0.545878       -14.8541
   6   2.0000      -0.522600       -14.2207
   7   2.0000      -0.429682       -11.6922
   8   2.0000      -0.371038       -10.0965
   9   0.0000       0.096634         2.6296
  10   0.0000       0.117945         3.2094
  11   0.0000       0.146413         3.9841
  12   0.0000       0.191313         5.2059
  13   0.0000       0.196626         5.3505

MULLIKEN ATOMIC CHARGES
-----------------------
   0 C :    0.003046
   1 O :    0.001566
   2 H :   -0.013998
   3 H :   -0.002340
   4 H :   -0.000411
   5 H :   -0.000241
   6 C :   -0.183962
   7 O :   -0.449377
   8 H :    0.320530
   9 H :    0.118035
  10 H :    0.100586
  11 H :    0.106568
Sum of atomic charges:   -0.0000000

LOEWDIN ATOMIC CHARGES
----------------------
   0 C :   -0.003273
   1 O :   -0.003531
   2 H :   -0.035738
   3 H :   -0.000942
   4 H :   -0.000105
   5 H :   -0.000046
   6 C :   -0.410488
   7 O :   -0.068583
   8 H :    0.209967
   9 H :    0.115094
  10 H :    0.101637
  11 H :    0.096007

  Mayer bond orders larger than 0.1
B(  6-C ,  7-O ) :   1.0004 B(  6-C ,  9-H ) :   0.9730 B(  6-C , 10-H ) :   0.9716
B(  6-C , 11-H ) :   0.9763 B(  7-O ,  8-H ) :   0.8875

Dispersion correction           -0.000245255
FINAL SINGLE POINT ENERGY      -115.727140177365

DIPOLE MOMENT
-------------
                                X             Y             Z
Electronic contribution:      1.21640       1.19604      -0.82646
Nuclear contribution   :     -1.08423      -1.84861       1.08973
                        -----------------------------------------
Total Dipole Moment    :      0.13217      -0.65258       0.26328
                        -----------------------------------------
Magnitude (a.u.)       :      0.71599
Magnitude (Debye)      :      1.81990

Rotational constants in cm-1:     4.008215     0.826713     0.794496
Rotational constants in MHz : 120163.273623 24784.234150 23818.396541

                             ****ORCA TERMINATED NORMALLY****
TOTAL RUN TIME: 0 days 0 hours 0 minutes 42 seconds 517 msec
