                         Program Version 4.1.2  - RELEASE  -
|  1> #Run DFT-D3 single point of the dimer
|  2> ! wB97X-D3 def2-TZVP TIGHTSCF CHELPG PMODEL PAL8
|  3>
|  4> %base "21-25_DFT_AB"
|  5>
|  6> %scf
|  7> MaxIter 1000
|  8> end
|  9>
| 10> * xyz 0 1
| 11>   C                      -3.092686            -1.451874            10.711364
| 12>   O                      -2.273163            -2.540808            10.545648
| 13>   H                      -2.684214            -3.268882            11.063944
| 14>   H                      -4.148534            -1.721086            10.677316
| 15>   H                      -2.829864            -0.967831            11.633750
| 16>   H                      -2.944506            -0.806253            9.884226
| 17>   C                      -4.954193            -1.007077            5.725889
| 18>   O                      -5.433707            -2.057881            4.895753
| 19>   H                      -6.063997            -2.581622            5.463161
| 20>   H                      -4.383734            -0.223087            5.179228
| 21>   H                      -5.828366            -0.499248            6.215455
| 22>   H                      -4.311890            -1.387629            6.521910
| 23> *
| 24>
| 25> #Run DFT-D3 single point of the molecule with dimer basis set
| 26> $new_job
| 27> %base "21-25_DFT_A"
| 28> ! wB97X-D3 def2-TZVP TIGHTSCF CHELPG PMODEL
| 29>
| 30> %scf
| 31> MaxIter 1000
| 32> end
| 33>
| 34> * xyz 0 1
| 35>   C                      -3.092686            -1.451874            10.711364
| 36>   O                      -2.273163            -2.540808            10.545648
| 37>   H                      -2.684214            -3.268882            11.063944
| 38>   H                      -4.148534            -1.721086            10.677316
| 39>   H                      -2.829864            -0.967831            11.633750
| 40>   H                      -2.944506            -0.806253            9.884226
| 41>   C                    : -4.954193            -1.007077            5.725889
| 42>   O                    : -5.433707            -2.057881            4.895753
| 43>   H                    : -6.063997            -2.581622            5.463161
| 44>   H                    : -4.383734            -0.223087            5.179228
| 45>   H                    : -5.828366            -0.499248            6.215455
| 46>   H                    : -4.311890            -1.387629            6.521910
| 47> *
| 48>
| 49> #Run DFT-D3 single point of the particle with dimer basis set
| 50> $new_job
| 51> %base "21-25_DFT_B"
| 52> ! wB97X-D3 def2-TZVP TIGHTSCF CHELPG PMODEL
| 53>
| 54> %scf
| 55> MaxIter 1000
| 56> end
| 57>
| 58> * xyz 0 1
| 59>   C                    : -3.092686            -1.451874            10.711364
| 60>   O                    : -2.273163            -2.540808            10.545648
| 61>   H                    : -2.684214            -3.268882            11.063944
| 62>   H                    : -4.148534            -1.721086            10.677316
| 63>   H                    : -2.829864            -0.967831            11.633750
| 64>   H                    : -2.944506            -0.806253            9.884226
| 65>   C                      -4.954193            -1.007077            5.725889
| 66>   O                      -5.433707            -2.057881            4.895753
| 67>   H                      -6.063997            -2.581622            5.463161
| 68>   H                      -4.383734            -0.223087            5.179228
| 69>   H                      -5.828366            -0.499248            6.215455
| 70>   H                      -4.311890            -1.387629            6.521910
| 71> *
| 72>
| 73>                          ****END OF INPUT****
 Total Charge           Charge          ....    0
 Multiplicity           Mult            ....    1
 Number of Electrons    NEL             ....   36
Dispersion correction           -0.000686617
FINAL SINGLE POINT ENERGY      -231.466393443707
Dispersion correction           -0.000205283
FINAL SINGLE POINT ENERGY      -115.732811535089

CARTESIAN COORDINATES (ANGSTROEM)
---------------------------------
  C     -3.092686   -1.451874   10.711364
  O     -2.273163   -2.540808   10.545648
  H     -2.684214   -3.268882   11.063944
  H     -4.148534   -1.721086   10.677316
  H     -2.829864   -0.967831   11.633750
  H     -2.944506   -0.806253    9.884226
  C     -4.954193   -1.007077    5.725889
  O     -5.433707   -2.057881    4.895753
  H     -6.063997   -2.581622    5.463161
  H     -4.383734   -0.223087    5.179228
  H     -5.828366   -0.499248    6.215455
  H     -4.311890   -1.387629    6.521910

 Multiplicity           Mult            ....    1
 Number of Electrons    NEL             ....   18
 Basis Dimension        Dim             ....  172

ORBITAL ENERGIES
----------------

  NO   OCC          E(Eh)            E(eV)
   0   2.0000     -19.234177      -523.3886
   1   2.0000     -10.318706      -280.7863
   2   2.0000      -1.128675       -30.7128
   3   2.0000      -0.788172       -21.4473
   4   2.0000      -0.603161       -16.4128
   5   2.0000      -0.538454       -14.6521
   6   2.0000      -0.527231       -14.3467
   7   2.0000      -0.432701       -11.7744
   8   2.0000      -0.371951       -10.1213
   9   0.0000       0.081886         2.2282
  10   0.0000       0.110209         2.9989
  11   0.0000       0.143306         3.8996
  12   0.0000       0.169143         4.6026
  13   0.0000       0.182653         4.9702

MULLIKEN ATOMIC CHARGES
-----------------------
   0 C :    0.000087
   1 O :    0.000002
   2 H :    0.000000
   3 H :   -0.000039
   4 H :   -0.000014
   5 H :   -0.000265
   6 C :   -0.174359
   7 O :   -0.473675
   8 H :    0.318587
   9 H :    0.122314
  10 H :    0.100001
  11 H :    0.107360
Sum of atomic charges:   -0.0000000

LOEWDIN ATOMIC CHARGES
----------------------
   0 C :   -0.000188
   1 O :   -0.000002
   2 H :   -0.000000
   3 H :   -0.000023
   4 H :   -0.000003
   5 H :   -0.000208
   6 C :   -0.391799
   7 O :   -0.101925
   8 H :    0.191738
   9 H :    0.111126
  10 H :    0.098951
  11 H :    0.092333

  Mayer bond orders larger than 0.1
B(  6-C ,  7-O ) :   0.9953 B(  6-C ,  9-H ) :   0.9691 B(  6-C , 10-H ) :   0.9829
B(  6-C , 11-H ) :   0.9726 B(  7-O ,  8-H ) :   0.8934

Dispersion correction           -0.000242280
FINAL SINGLE POINT ENERGY      -115.733447832101

DIPOLE MOMENT
-------------
                                X             Y             Z
Electronic contribution:     -0.45813      -1.32191      -1.26622
Nuclear contribution   :      0.26282       1.41753       1.93966
                        -----------------------------------------
Total Dipole Moment    :     -0.19531       0.09562       0.67344
                        -----------------------------------------
Magnitude (a.u.)       :      0.70768
Magnitude (Debye)      :      1.79878

Rotational constants in cm-1:     4.152089     0.819925     0.786814
Rotational constants in MHz : 124476.498748 24580.747045 23588.086077

                             ****ORCA TERMINATED NORMALLY****
TOTAL RUN TIME: 0 days 0 hours 0 minutes 55 seconds 456 msec
