                         Program Version 4.1.2  - RELEASE  -
|  1> #Run DFT-D3 single point of the dimer
|  2> ! wB97X-D3 def2-TZVP TIGHTSCF CHELPG PMODEL PAL8
|  3>
|  4> %base "5-125_DFT_AB"
|  5>
|  6> %scf
|  7> MaxIter 1000
|  8> end
|  9>
| 10> * xyz 0 1
| 11>   C                      8.993395             7.768408             -1.929499
| 12>   O                      8.277690             6.973573             -2.867001
| 13>   H                      8.425852             6.002038             -2.621908
| 14>   H                      8.719667             7.623738             -0.890754
| 15>   H                      10.017294            7.538047             -2.089698
| 16>   H                      8.693752             8.789069             -2.138796
| 17>   C                      9.232826             7.132321             -7.033316
| 18>   O                      10.592627            7.419423             -6.848917
| 19>   H                      10.680403            8.235310             -6.330198
| 20>   H                      8.796829             7.760952             -7.816381
| 21>   H                      9.160430             6.058070             -7.413036
| 22>   H                      8.596397             7.211376             -6.145535
| 23> *
| 24>
| 25> #Run DFT-D3 single point of the molecule with dimer basis set
| 26> $new_job
| 27> %base "5-125_DFT_A"
| 28> ! wB97X-D3 def2-TZVP TIGHTSCF CHELPG PMODEL
| 29>
| 30> %scf
| 31> MaxIter 1000
| 32> end
| 33>
| 34> * xyz 0 1
| 35>   C                      8.993395             7.768408             -1.929499
| 36>   O                      8.277690             6.973573             -2.867001
| 37>   H                      8.425852             6.002038             -2.621908
| 38>   H                      8.719667             7.623738             -0.890754
| 39>   H                      10.017294            7.538047             -2.089698
| 40>   H                      8.693752             8.789069             -2.138796
| 41>   C                    : 9.232826             7.132321             -7.033316
| 42>   O                    : 10.592627            7.419423             -6.848917
| 43>   H                    : 10.680403            8.235310             -6.330198
| 44>   H                    : 8.796829             7.760952             -7.816381
| 45>   H                    : 9.160430             6.058070             -7.413036
| 46>   H                    : 8.596397             7.211376             -6.145535
| 47> *
| 48>
| 49> #Run DFT-D3 single point of the particle with dimer basis set
| 50> $new_job
| 51> %base "5-125_DFT_B"
| 52> ! wB97X-D3 def2-TZVP TIGHTSCF CHELPG PMODEL
| 53>
| 54> %scf
| 55> MaxIter 1000
| 56> end
| 57>
| 58> * xyz 0 1
| 59>   C                    : 8.993395             7.768408             -1.929499
| 60>   O                    : 8.277690             6.973573             -2.867001
| 61>   H                    : 8.425852             6.002038             -2.621908
| 62>   H                    : 8.719667             7.623738             -0.890754
| 63>   H                    : 10.017294            7.538047             -2.089698
| 64>   H                    : 8.693752             8.789069             -2.138796
| 65>   C                      9.232826             7.132321             -7.033316
| 66>   O                      10.592627            7.419423             -6.848917
| 67>   H                      10.680403            8.235310             -6.330198
| 68>   H                      8.796829             7.760952             -7.816381
| 69>   H                      9.160430             6.058070             -7.413036
| 70>   H                      8.596397             7.211376             -6.145535
| 71> *
| 72>
| 73>                          ****END OF INPUT****
 Total Charge           Charge          ....    0
 Multiplicity           Mult            ....    1
 Number of Electrons    NEL             ....   36
Dispersion correction           -0.000991697
FINAL SINGLE POINT ENERGY      -231.467973139164
Dispersion correction           -0.000229114
FINAL SINGLE POINT ENERGY      -115.731180672144

CARTESIAN COORDINATES (ANGSTROEM)
---------------------------------
  C      8.993395    7.768408   -1.929499
  O      8.277690    6.973573   -2.867001
  H      8.425852    6.002038   -2.621908
  H      8.719667    7.623738   -0.890754
  H     10.017294    7.538047   -2.089698
  H      8.693752    8.789069   -2.138796
  C      9.232826    7.132321   -7.033316
  O     10.592627    7.419423   -6.848917
  H     10.680403    8.235310   -6.330198
  H      8.796829    7.760952   -7.816381
  H      9.160430    6.058070   -7.413036
  H      8.596397    7.211376   -6.145535

 Multiplicity           Mult            ....    1
 Number of Electrons    NEL             ....   18
 Basis Dimension        Dim             ....  172

ORBITAL ENERGIES
----------------

  NO   OCC          E(Eh)            E(eV)
   0   2.0000     -19.232335      -523.3384
   1   2.0000     -10.316353      -280.7222
   2   2.0000      -1.137835       -30.9621
   3   2.0000      -0.791017       -21.5247
   4   2.0000      -0.613910       -16.7053
   5   2.0000      -0.540826       -14.7166
   6   2.0000      -0.521972       -14.2036
   7   2.0000      -0.430833       -11.7236
   8   2.0000      -0.373341       -10.1591
   9   0.0000       0.078137         2.1262
  10   0.0000       0.119208         3.2438
  11   0.0000       0.147058         4.0016
  12   0.0000       0.166669         4.5353
  13   0.0000       0.182767         4.9733

MULLIKEN ATOMIC CHARGES
-----------------------
   0 C :    0.000162
   1 O :   -0.000011
   2 H :   -0.000043
   3 H :    0.000003
   4 H :   -0.000063
   5 H :   -0.000052
   6 C :   -0.165450
   7 O :   -0.471130
   8 H :    0.315314
   9 H :    0.101712
  10 H :    0.114866
  11 H :    0.104693
Sum of atomic charges:   -0.0000000

LOEWDIN ATOMIC CHARGES
----------------------
   0 C :   -0.000114
   1 O :   -0.000482
   2 H :   -0.000084
   3 H :   -0.000003
   4 H :   -0.000032
   5 H :   -0.000014
   6 C :   -0.404463
   7 O :   -0.072911
   8 H :    0.175262
   9 H :    0.092365
  10 H :    0.117990
  11 H :    0.092485

  Mayer bond orders larger than 0.1
B(  6-C ,  7-O ) :   1.0041 B(  6-C ,  9-H ) :   0.9754 B(  6-C , 10-H ) :   0.9735
B(  6-C , 11-H ) :   0.9698 B(  7-O ,  8-H ) :   0.8962

Dispersion correction           -0.000253040
FINAL SINGLE POINT ENERGY      -115.735273522066

DIPOLE MOMENT
-------------
                                X             Y             Z
Electronic contribution:      1.82032       0.34183       0.25873
Nuclear contribution   :     -2.28974       0.06778       0.00675
                        -----------------------------------------
Total Dipole Moment    :     -0.46942       0.40961       0.26548
                        -----------------------------------------
Magnitude (a.u.)       :      0.67721
Magnitude (Debye)      :      1.72132

Rotational constants in cm-1:     4.229056     0.835888     0.802515
Rotational constants in MHz : 126783.899761 25059.305101 24058.787976

                             ****ORCA TERMINATED NORMALLY****
TOTAL RUN TIME: 0 days 0 hours 1 minutes 1 seconds 806 msec
