                         Program Version 4.1.2  - RELEASE  -
|  1> #Run DFT-D3 single point of the dimer
|  2> ! wB97X-D3 def2-TZVP TIGHTSCF CHELPG PMODEL PAL8
|  3>
|  4> %base "10-40_DFT_AB"
|  5>
|  6> %scf
|  7> MaxIter 1000
|  8> end
|  9>
| 10> * xyz 0 1
| 11>   C                      2.311494             -9.830904            -8.216563
| 12>   O                      3.558891             -10.484770           -8.480704
| 13>   H                      3.941405             -10.762820           -7.664795
| 14>   H                      2.383091             -9.009173            -7.449427
| 15>   H                      1.831679             -9.423599            -9.122781
| 16>   H                      1.578314             -10.570983           -7.892508
| 17>   C                      3.900362             -6.476290            -6.855185
| 18>   O                      3.207064             -5.324174            -6.360450
| 19>   H                      3.501172             -4.637270            -6.948847
| 20>   H                      3.526584             -6.779946            -7.863069
| 21>   H                      4.986917             -6.359107            -6.996146
| 22>   H                      3.705114             -7.313078            -6.190601
| 23> *
| 24>
| 25> #Run DFT-D3 single point of the molecule with dimer basis set
| 26> $new_job
| 27> %base "10-40_DFT_A"
| 28> ! wB97X-D3 def2-TZVP TIGHTSCF CHELPG PMODEL
| 29>
| 30> %scf
| 31> MaxIter 1000
| 32> end
| 33>
| 34> * xyz 0 1
| 35>   C                      2.311494             -9.830904            -8.216563
| 36>   O                      3.558891             -10.484770           -8.480704
| 37>   H                      3.941405             -10.762820           -7.664795
| 38>   H                      2.383091             -9.009173            -7.449427
| 39>   H                      1.831679             -9.423599            -9.122781
| 40>   H                      1.578314             -10.570983           -7.892508
| 41>   C                    : 3.900362             -6.476290            -6.855185
| 42>   O                    : 3.207064             -5.324174            -6.360450
| 43>   H                    : 3.501172             -4.637270            -6.948847
| 44>   H                    : 3.526584             -6.779946            -7.863069
| 45>   H                    : 4.986917             -6.359107            -6.996146
| 46>   H                    : 3.705114             -7.313078            -6.190601
| 47> *
| 48>
| 49> #Run DFT-D3 single point of the particle with dimer basis set
| 50> $new_job
| 51> %base "10-40_DFT_B"
| 52> ! wB97X-D3 def2-TZVP TIGHTSCF CHELPG PMODEL
| 53>
| 54> %scf
| 55> MaxIter 1000
| 56> end
| 57>
| 58> * xyz 0 1
| 59>   C                    : 2.311494             -9.830904            -8.216563
| 60>   O                    : 3.558891             -10.484770           -8.480704
| 61>   H                    : 3.941405             -10.762820           -7.664795
| 62>   H                    : 2.383091             -9.009173            -7.449427
| 63>   H                    : 1.831679             -9.423599            -9.122781
| 64>   H                    : 1.578314             -10.570983           -7.892508
| 65>   C                      3.900362             -6.476290            -6.855185
| 66>   O                      3.207064             -5.324174            -6.360450
| 67>   H                      3.501172             -4.637270            -6.948847
| 68>   H                      3.526584             -6.779946            -7.863069
| 69>   H                      4.986917             -6.359107            -6.996146
| 70>   H                      3.705114             -7.313078            -6.190601
| 71> *
| 72>
| 73>                          ****END OF INPUT****
 Total Charge           Charge          ....    0
 Multiplicity           Mult            ....    1
 Number of Electrons    NEL             ....   36
Dispersion correction           -0.001481276
FINAL SINGLE POINT ENERGY      -231.469887911696
Dispersion correction           -0.000260748
FINAL SINGLE POINT ENERGY      -115.733909338900

CARTESIAN COORDINATES (ANGSTROEM)
---------------------------------
  C      2.311494   -9.830904   -8.216563
  O      3.558891  -10.484770   -8.480704
  H      3.941405  -10.762820   -7.664795
  H      2.383091   -9.009173   -7.449427
  H      1.831679   -9.423599   -9.122781
  H      1.578314  -10.570983   -7.892508
  C      3.900362   -6.476290   -6.855185
  O      3.207064   -5.324174   -6.360450
  H      3.501172   -4.637270   -6.948847
  H      3.526584   -6.779946   -7.863069
  H      4.986917   -6.359107   -6.996146
  H      3.705114   -7.313078   -6.190601

 Multiplicity           Mult            ....    1
 Number of Electrons    NEL             ....   18
 Basis Dimension        Dim             ....  172

ORBITAL ENERGIES
----------------

  NO   OCC          E(Eh)            E(eV)
   0   2.0000     -19.233913      -523.3814
   1   2.0000     -10.317483      -280.7530
   2   2.0000      -1.137412       -30.9506
   3   2.0000      -0.794197       -21.6112
   4   2.0000      -0.611040       -16.6272
   5   2.0000      -0.532258       -14.4835
   6   2.0000      -0.524713       -14.2782
   7   2.0000      -0.446824       -12.1587
   8   2.0000      -0.374868       -10.2007
   9   0.0000       0.085353         2.3226
  10   0.0000       0.116990         3.1835
  11   0.0000       0.154856         4.2139
  12   0.0000       0.160910         4.3786
  13   0.0000       0.181333         4.9343

MULLIKEN ATOMIC CHARGES
-----------------------
   0 C :    0.000357
   1 O :    0.000225
   2 H :    0.000001
   3 H :   -0.002552
   4 H :   -0.000190
   5 H :   -0.000137
   6 C :   -0.176078
   7 O :   -0.459979
   8 H :    0.310819
   9 H :    0.096065
  10 H :    0.106117
  11 H :    0.125352
Sum of atomic charges:   -0.0000000

LOEWDIN ATOMIC CHARGES
----------------------
   0 C :   -0.003751
   1 O :   -0.000018
   2 H :   -0.000037
   3 H :   -0.004915
   4 H :   -0.000224
   5 H :   -0.000038
   6 C :   -0.377612
   7 O :   -0.080486
   8 H :    0.163999
   9 H :    0.098954
  10 H :    0.095647
  11 H :    0.108481

  Mayer bond orders larger than 0.1
B(  6-C ,  7-O ) :   1.0013 B(  6-C ,  9-H ) :   0.9756 B(  6-C , 10-H ) :   0.9656
B(  6-C , 11-H ) :   0.9739 B(  7-O ,  8-H ) :   0.9059

Dispersion correction           -0.000245417
FINAL SINGLE POINT ENERGY      -115.735101566253

DIPOLE MOMENT
-------------
                                X             Y             Z
Electronic contribution:     -0.93472       1.45667       0.84445
Nuclear contribution   :      1.39095      -1.48163      -1.39706
                        -----------------------------------------
Total Dipole Moment    :      0.45623      -0.02497      -0.55261
                        -----------------------------------------
Magnitude (a.u.)       :      0.71704
Magnitude (Debye)      :      1.82257

Rotational constants in cm-1:     4.265209     0.815486     0.782361
Rotational constants in MHz : 127867.752927 24447.667765 23454.584811

                             ****ORCA TERMINATED NORMALLY****
TOTAL RUN TIME: 0 days 0 hours 1 minutes 3 seconds 642 msec
