                         Program Version 4.1.2  - RELEASE  -
|  1> #Run DFT-D3 single point of the dimer
|  2> ! wB97X-D3 def2-TZVP TIGHTSCF CHELPG PMODEL PAL8
|  3>
|  4> %base "19-7_DFT_AB"
|  5>
|  6> %scf
|  7> MaxIter 1000
|  8> end
|  9>
| 10> * xyz 0 1
| 11>   C                      -7.667179            -9.209066            3.339312
| 12>   O                      -8.331323            -9.779651            4.428187
| 13>   H                      -8.630029            -10.674345           4.174091
| 14>   H                      -6.594837            -9.317972            3.473686
| 15>   H                      -7.952272            -9.648018            2.417688
| 16>   H                      -7.931544            -8.142269            3.023550
| 17>   C                      -9.648259            -7.114879            0.808518
| 18>   O                      -10.714223           -6.721313            1.572976
| 19>   H                      -11.489091           -7.226045            1.245931
| 20>   H                      -8.693586            -6.596970            1.099219
| 21>   H                      -9.395222            -8.139283            0.973610
| 22>   H                      -9.822167            -7.014202            -0.280292
| 23> *
| 24>
| 25> #Run DFT-D3 single point of the molecule with dimer basis set
| 26> $new_job
| 27> %base "19-7_DFT_A"
| 28> ! wB97X-D3 def2-TZVP TIGHTSCF CHELPG PMODEL
| 29>
| 30> %scf
| 31> MaxIter 1000
| 32> end
| 33>
| 34> * xyz 0 1
| 35>   C                      -7.667179            -9.209066            3.339312
| 36>   O                      -8.331323            -9.779651            4.428187
| 37>   H                      -8.630029            -10.674345           4.174091
| 38>   H                      -6.594837            -9.317972            3.473686
| 39>   H                      -7.952272            -9.648018            2.417688
| 40>   H                      -7.931544            -8.142269            3.023550
| 41>   C                    : -9.648259            -7.114879            0.808518
| 42>   O                    : -10.714223           -6.721313            1.572976
| 43>   H                    : -11.489091           -7.226045            1.245931
| 44>   H                    : -8.693586            -6.596970            1.099219
| 45>   H                    : -9.395222            -8.139283            0.973610
| 46>   H                    : -9.822167            -7.014202            -0.280292
| 47> *
| 48>
| 49> #Run DFT-D3 single point of the particle with dimer basis set
| 50> $new_job
| 51> %base "19-7_DFT_B"
| 52> ! wB97X-D3 def2-TZVP TIGHTSCF CHELPG PMODEL
| 53>
| 54> %scf
| 55> MaxIter 1000
| 56> end
| 57>
| 58> * xyz 0 1
| 59>   C                    : -7.667179            -9.209066            3.339312
| 60>   O                    : -8.331323            -9.779651            4.428187
| 61>   H                    : -8.630029            -10.674345           4.174091
| 62>   H                    : -6.594837            -9.317972            3.473686
| 63>   H                    : -7.952272            -9.648018            2.417688
| 64>   H                    : -7.931544            -8.142269            3.023550
| 65>   C                      -9.648259            -7.114879            0.808518
| 66>   O                      -10.714223           -6.721313            1.572976
| 67>   H                      -11.489091           -7.226045            1.245931
| 68>   H                      -8.693586            -6.596970            1.099219
| 69>   H                      -9.395222            -8.139283            0.973610
| 70>   H                      -9.822167            -7.014202            -0.280292
| 71> *
| 72>
| 73>                          ****END OF INPUT****
 Total Charge           Charge          ....    0
 Multiplicity           Mult            ....    1
 Number of Electrons    NEL             ....   36
Dispersion correction           -0.001570493
FINAL SINGLE POINT ENERGY      -231.459523791763
Dispersion correction           -0.000250984
FINAL SINGLE POINT ENERGY      -115.726867247259

CARTESIAN COORDINATES (ANGSTROEM)
---------------------------------
  C     -7.667179   -9.209066    3.339312
  O     -8.331323   -9.779651    4.428187
  H     -8.630029  -10.674345    4.174091
  H     -6.594837   -9.317972    3.473686
  H     -7.952272   -9.648018    2.417688
  H     -7.931544   -8.142269    3.023550
  C     -9.648259   -7.114879    0.808518
  O    -10.714223   -6.721313    1.572976
  H    -11.489091   -7.226045    1.245931
  H     -8.693586   -6.596970    1.099219
  H     -9.395222   -8.139283    0.973610
  H     -9.822167   -7.014202   -0.280292

 Multiplicity           Mult            ....    1
 Number of Electrons    NEL             ....   18
 Basis Dimension        Dim             ....  172

ORBITAL ENERGIES
----------------

  NO   OCC          E(Eh)            E(eV)
   0   2.0000     -19.234279      -523.3913
   1   2.0000     -10.310462      -280.5619
   2   2.0000      -1.149337       -31.2750
   3   2.0000      -0.790718       -21.5165
   4   2.0000      -0.619112       -16.8469
   5   2.0000      -0.546993       -14.8844
   6   2.0000      -0.530283       -14.4297
   7   2.0000      -0.430367       -11.7109
   8   2.0000      -0.370885       -10.0923
   9   0.0000       0.088435         2.4064
  10   0.0000       0.117157         3.1880
  11   0.0000       0.151574         4.1245
  12   0.0000       0.176480         4.8023
  13   0.0000       0.188522         5.1299

MULLIKEN ATOMIC CHARGES
-----------------------
   0 C :    0.003449
   1 O :   -0.000290
   2 H :   -0.000081
   3 H :    0.000325
   4 H :   -0.002418
   5 H :   -0.000573
   6 C :   -0.166042
   7 O :   -0.465989
   8 H :    0.319537
   9 H :    0.111005
  10 H :    0.098028
  11 H :    0.103047
Sum of atomic charges:    0.0000000

LOEWDIN ATOMIC CHARGES
----------------------
   0 C :   -0.004010
   1 O :   -0.000018
   2 H :   -0.000005
   3 H :   -0.000005
   4 H :   -0.003055
   5 H :   -0.003373
   6 C :   -0.427277
   7 O :   -0.049981
   8 H :    0.188387
   9 H :    0.116013
  10 H :    0.088701
  11 H :    0.094623

  Mayer bond orders larger than 0.1
B(  6-C ,  7-O ) :   1.0003 B(  6-C ,  9-H ) :   0.9709 B(  6-C , 10-H ) :   0.9791
B(  6-C , 11-H ) :   0.9762 B(  7-O ,  8-H ) :   0.8922

Dispersion correction           -0.000223719
FINAL SINGLE POINT ENERGY      -115.732678716505

DIPOLE MOMENT
-------------
                                X             Y             Z
Electronic contribution:     -1.42017       0.68222       1.11968
Nuclear contribution   :      1.32800      -1.15829      -1.58709
                        -----------------------------------------
Total Dipole Moment    :     -0.09217      -0.47607      -0.46741
                        -----------------------------------------
Magnitude (a.u.)       :      0.67351
Magnitude (Debye)      :      1.71192

Rotational constants in cm-1:     4.299655     0.872078     0.831364
Rotational constants in MHz : 128900.422066 26144.250705 24923.676355

                             ****ORCA TERMINATED NORMALLY****
TOTAL RUN TIME: 0 days 0 hours 2 minutes 22 seconds 596 msec
