                         Program Version 4.1.2  - RELEASE  -
|  1> #Run DFT-D3 single point of the dimer
|  2> ! wB97X-D3 def2-TZVP TIGHTSCF CHELPG PMODEL PAL8
|  3>
|  4> %base "9-123_DFT_AB"
|  5>
|  6> %scf
|  7> MaxIter 1000
|  8> end
|  9>
| 10> * xyz 0 1
| 11>   C                      -3.155609            9.352243             -9.350162
| 12>   O                      -4.380703            9.474228             -10.030575
| 13>   H                      -4.891382            10.142044            -9.556655
| 14>   H                      -2.955609            10.375344            -8.993204
| 15>   H                      -3.249638            8.739075             -8.469921
| 16>   H                      -2.251950            8.992903             -9.951599
| 17>   C                      0.654178             10.551263            -9.072198
| 18>   O                      -0.589162            11.121066            -8.864136
| 19>   H                      -0.699326            11.814836            -9.518198
| 20>   H                      1.474204             11.212147            -8.649434
| 21>   H                      0.739361             9.587652             -8.632040
| 22>   H                      0.737810             10.367867            -10.111931
| 23> *
| 24>
| 25> #Run DFT-D3 single point of the molecule with dimer basis set
| 26> $new_job
| 27> %base "9-123_DFT_A"
| 28> ! wB97X-D3 def2-TZVP TIGHTSCF CHELPG PMODEL
| 29>
| 30> %scf
| 31> MaxIter 1000
| 32> end
| 33>
| 34> * xyz 0 1
| 35>   C                      -3.155609            9.352243             -9.350162
| 36>   O                      -4.380703            9.474228             -10.030575
| 37>   H                      -4.891382            10.142044            -9.556655
| 38>   H                      -2.955609            10.375344            -8.993204
| 39>   H                      -3.249638            8.739075             -8.469921
| 40>   H                      -2.251950            8.992903             -9.951599
| 41>   C                    : 0.654178             10.551263            -9.072198
| 42>   O                    : -0.589162            11.121066            -8.864136
| 43>   H                    : -0.699326            11.814836            -9.518198
| 44>   H                    : 1.474204             11.212147            -8.649434
| 45>   H                    : 0.739361             9.587652             -8.632040
| 46>   H                    : 0.737810             10.367867            -10.111931
| 47> *
| 48>
| 49> #Run DFT-D3 single point of the particle with dimer basis set
| 50> $new_job
| 51> %base "9-123_DFT_B"
| 52> ! wB97X-D3 def2-TZVP TIGHTSCF CHELPG PMODEL
| 53>
| 54> %scf
| 55> MaxIter 1000
| 56> end
| 57>
| 58> * xyz 0 1
| 59>   C                    : -3.155609            9.352243             -9.350162
| 60>   O                    : -4.380703            9.474228             -10.030575
| 61>   H                    : -4.891382            10.142044            -9.556655
| 62>   H                    : -2.955609            10.375344            -8.993204
| 63>   H                    : -3.249638            8.739075             -8.469921
| 64>   H                    : -2.251950            8.992903             -9.951599
| 65>   C                      0.654178             10.551263            -9.072198
| 66>   O                      -0.589162            11.121066            -8.864136
| 67>   H                      -0.699326            11.814836            -9.518198
| 68>   H                      1.474204             11.212147            -8.649434
| 69>   H                      0.739361             9.587652             -8.632040
| 70>   H                      0.737810             10.367867            -10.111931
| 71> *
| 72>
| 73>                          ****END OF INPUT****
 Total Charge           Charge          ....    0
 Multiplicity           Mult            ....    1
 Number of Electrons    NEL             ....   36
Dispersion correction           -0.001760429
FINAL SINGLE POINT ENERGY      -231.462014679972
Dispersion correction           -0.000229254
FINAL SINGLE POINT ENERGY      -115.729431488500

CARTESIAN COORDINATES (ANGSTROEM)
---------------------------------
  C     -3.155609    9.352243   -9.350162
  O     -4.380703    9.474228  -10.030575
  H     -4.891382   10.142044   -9.556655
  H     -2.955609   10.375344   -8.993204
  H     -3.249638    8.739075   -8.469921
  H     -2.251950    8.992903   -9.951599
  C      0.654178   10.551263   -9.072198
  O     -0.589162   11.121066   -8.864136
  H     -0.699326   11.814836   -9.518198
  H      1.474204   11.212147   -8.649434
  H      0.739361    9.587652   -8.632040
  H      0.737810   10.367867  -10.111931

 Multiplicity           Mult            ....    1
 Number of Electrons    NEL             ....   18
 Basis Dimension        Dim             ....  172

ORBITAL ENERGIES
----------------

  NO   OCC          E(Eh)            E(eV)
   0   2.0000     -19.228443      -523.2325
   1   2.0000     -10.307171      -280.4724
   2   2.0000      -1.146487       -31.1975
   3   2.0000      -0.796061       -21.6619
   4   2.0000      -0.613696       -16.6995
   5   2.0000      -0.550673       -14.9846
   6   2.0000      -0.537264       -14.6197
   7   2.0000      -0.427296       -11.6273
   8   2.0000      -0.372377       -10.1329
   9   0.0000       0.094939         2.5834
  10   0.0000       0.125145         3.4054
  11   0.0000       0.152750         4.1565
  12   0.0000       0.180392         4.9087
  13   0.0000       0.197034         5.3616

MULLIKEN ATOMIC CHARGES
-----------------------
   0 C :    0.004670
   1 O :    0.000054
   2 H :    0.000005
   3 H :   -0.008192
   4 H :   -0.002373
   5 H :   -0.003601
   6 C :   -0.156396
   7 O :   -0.467338
   8 H :    0.317649
   9 H :    0.094258
  10 H :    0.117487
  11 H :    0.103776
Sum of atomic charges:    0.0000000

LOEWDIN ATOMIC CHARGES
----------------------
   0 C :   -0.015680
   1 O :   -0.000054
   2 H :   -0.000010
   3 H :   -0.011965
   4 H :   -0.000466
   5 H :   -0.003278
   6 C :   -0.403388
   7 O :   -0.033147
   8 H :    0.173524
   9 H :    0.103199
  10 H :    0.101182
  11 H :    0.090083

  Mayer bond orders larger than 0.1
B(  6-C ,  7-O ) :   0.9913 B(  6-C ,  9-H ) :   0.9702 B(  6-C , 10-H ) :   0.9753
B(  6-C , 11-H ) :   0.9903 B(  7-O ,  8-H ) :   0.8964

Dispersion correction           -0.000215872
FINAL SINGLE POINT ENERGY      -115.732122007800

DIPOLE MOMENT
-------------
                                X             Y             Z
Electronic contribution:     -1.62004       0.61468       0.38925
Nuclear contribution   :      2.02164      -0.42622      -0.89881
                        -----------------------------------------
Total Dipole Moment    :      0.40159       0.18845      -0.50957
                        -----------------------------------------
Magnitude (a.u.)       :      0.67561
Magnitude (Debye)      :      1.71726

Rotational constants in cm-1:     4.319822     0.860522     0.842784
Rotational constants in MHz : 129505.009833 25797.812930 25266.025678

                             ****ORCA TERMINATED NORMALLY****
TOTAL RUN TIME: 0 days 0 hours 0 minutes 43 seconds 311 msec
