                         Program Version 4.1.2  - RELEASE  -
|  1> #Run DFT-D3 single point of the dimer
|  2> ! wB97X-D3 def2-TZVP TIGHTSCF CHELPG PMODEL PAL8
|  3>
|  4> %base "21-153_DFT_AB"
|  5>
|  6> %scf
|  7> MaxIter 1000
|  8> end
|  9>
| 10> * xyz 0 1
| 11>   C                      5.398878             -5.549373            -9.768657
| 12>   O                      6.151562             -4.934993            -8.756105
| 13>   H                      6.269744             -5.501653            -7.966790
| 14>   H                      5.244938             -4.844621            -10.561838
| 15>   H                      5.819859             -6.446248            -10.290927
| 16>   H                      4.414631             -5.822922            -9.411986
| 17>   C                      2.873291             -2.529165            -7.643603
| 18>   O                      3.707500             -3.600925            -7.742358
| 19>   H                      4.663623             -3.302338            -7.745049
| 20>   H                      1.923567             -2.610872            -8.190210
| 21>   H                      2.564570             -2.405424            -6.552309
| 22>   H                      3.394196             -1.553683            -7.938926
| 23> *
| 24>
| 25> #Run DFT-D3 single point of the molecule with dimer basis set
| 26> $new_job
| 27> %base "21-153_DFT_A"
| 28> ! wB97X-D3 def2-TZVP TIGHTSCF CHELPG PMODEL
| 29>
| 30> %scf
| 31> MaxIter 1000
| 32> end
| 33>
| 34> * xyz 0 1
| 35>   C                      5.398878             -5.549373            -9.768657
| 36>   O                      6.151562             -4.934993            -8.756105
| 37>   H                      6.269744             -5.501653            -7.966790
| 38>   H                      5.244938             -4.844621            -10.561838
| 39>   H                      5.819859             -6.446248            -10.290927
| 40>   H                      4.414631             -5.822922            -9.411986
| 41>   C                    : 2.873291             -2.529165            -7.643603
| 42>   O                    : 3.707500             -3.600925            -7.742358
| 43>   H                    : 4.663623             -3.302338            -7.745049
| 44>   H                    : 1.923567             -2.610872            -8.190210
| 45>   H                    : 2.564570             -2.405424            -6.552309
| 46>   H                    : 3.394196             -1.553683            -7.938926
| 47> *
| 48>
| 49> #Run DFT-D3 single point of the particle with dimer basis set
| 50> $new_job
| 51> %base "21-153_DFT_B"
| 52> ! wB97X-D3 def2-TZVP TIGHTSCF CHELPG PMODEL
| 53>
| 54> %scf
| 55> MaxIter 1000
| 56> end
| 57>
| 58> * xyz 0 1
| 59>   C                    : 5.398878             -5.549373            -9.768657
| 60>   O                    : 6.151562             -4.934993            -8.756105
| 61>   H                    : 6.269744             -5.501653            -7.966790
| 62>   H                    : 5.244938             -4.844621            -10.561838
| 63>   H                    : 5.819859             -6.446248            -10.290927
| 64>   H                    : 4.414631             -5.822922            -9.411986
| 65>   C                      2.873291             -2.529165            -7.643603
| 66>   O                      3.707500             -3.600925            -7.742358
| 67>   H                      4.663623             -3.302338            -7.745049
| 68>   H                      1.923567             -2.610872            -8.190210
| 69>   H                      2.564570             -2.405424            -6.552309
| 70>   H                      3.394196             -1.553683            -7.938926
| 71> *
| 72>
| 73>                          ****END OF INPUT****
 Total Charge           Charge          ....    0
 Multiplicity           Mult            ....    1
 Number of Electrons    NEL             ....   36
Dispersion correction           -0.001821923
FINAL SINGLE POINT ENERGY      -231.468579094359
Dispersion correction           -0.000268010
FINAL SINGLE POINT ENERGY      -115.734514006505

CARTESIAN COORDINATES (ANGSTROEM)
---------------------------------
  C      5.398878   -5.549373   -9.768657
  O      6.151562   -4.934993   -8.756105
  H      6.269744   -5.501653   -7.966790
  H      5.244938   -4.844621  -10.561838
  H      5.819859   -6.446248  -10.290927
  H      4.414631   -5.822922   -9.411986
  C      2.873291   -2.529165   -7.643603
  O      3.707500   -3.600925   -7.742358
  H      4.663623   -3.302338   -7.745049
  H      1.923567   -2.610872   -8.190210
  H      2.564570   -2.405424   -6.552309
  H      3.394196   -1.553683   -7.938926

 Multiplicity           Mult            ....    1
 Number of Electrons    NEL             ....   18
 Basis Dimension        Dim             ....  172

ORBITAL ENERGIES
----------------

  NO   OCC          E(Eh)            E(eV)
   0   2.0000     -19.235986      -523.4378
   1   2.0000     -10.319648      -280.8119
   2   2.0000      -1.147260       -31.2185
   3   2.0000      -0.784342       -21.3430
   4   2.0000      -0.615917       -16.7600
   5   2.0000      -0.541243       -14.7280
   6   2.0000      -0.535002       -14.5581
   7   2.0000      -0.425148       -11.5689
   8   2.0000      -0.365578        -9.9479
   9   0.0000       0.083487         2.2718
  10   0.0000       0.121805         3.3145
  11   0.0000       0.148735         4.0473
  12   0.0000       0.176675         4.8076
  13   0.0000       0.192061         5.2263

MULLIKEN ATOMIC CHARGES
-----------------------
   0 C :   -0.003160
   1 O :   -0.000164
   2 H :   -0.000569
   3 H :   -0.000882
   4 H :   -0.000493
   5 H :   -0.003751
   6 C :   -0.164870
   7 O :   -0.451407
   8 H :    0.328818
   9 H :    0.116720
  10 H :    0.088017
  11 H :    0.091742
Sum of atomic charges:    0.0000000

LOEWDIN ATOMIC CHARGES
----------------------
   0 C :   -0.011701
   1 O :   -0.005744
   2 H :   -0.001055
   3 H :   -0.000991
   4 H :   -0.000167
   5 H :   -0.004678
   6 C :   -0.440614
   7 O :   -0.041899
   8 H :    0.204721
   9 H :    0.102802
  10 H :    0.098826
  11 H :    0.100499

  Mayer bond orders larger than 0.1
B(  6-C ,  7-O ) :   1.0174 B(  6-C ,  9-H ) :   0.9700 B(  6-C , 10-H ) :   0.9741
B(  6-C , 11-H ) :   0.9837 B(  7-O ,  8-H ) :   0.8822

Dispersion correction           -0.000247460
FINAL SINGLE POINT ENERGY      -115.728840576721

DIPOLE MOMENT
-------------
                                X             Y             Z
Electronic contribution:      1.00481      -1.62712      -0.28835
Nuclear contribution   :     -0.69402       2.20058       0.30556
                        -----------------------------------------
Total Dipole Moment    :      0.31080       0.57346       0.01721
                        -----------------------------------------
Magnitude (a.u.)       :      0.65250
Magnitude (Debye)      :      1.65851

Rotational constants in cm-1:     4.114022     0.868760     0.830166
Rotational constants in MHz : 123335.289110 26044.782924 24887.738778

                             ****ORCA TERMINATED NORMALLY****
TOTAL RUN TIME: 0 days 0 hours 1 minutes 5 seconds 4 msec
