                         Program Version 4.1.2  - RELEASE  -
|  1> #Run DFT-D3 single point of the dimer
|  2> ! wB97X-D3 def2-TZVP TIGHTSCF CHELPG PMODEL PAL8
|  3>
|  4> %base "10-22_DFT_AB"
|  5>
|  6> %scf
|  7> MaxIter 1000
|  8> end
|  9>
| 10> * xyz 0 1
| 11>   C                      9.584878             9.486159             -2.318972
| 12>   O                      8.406559             10.126476            -2.024404
| 13>   H                      7.795485             9.747395             -2.700372
| 14>   H                      9.401391             8.478447             -2.650509
| 15>   H                      10.200250            10.016750            -3.046298
| 16>   H                      10.196088            9.389947             -1.386170
| 17>   C                      9.558170             8.529743             1.949500
| 18>   O                      8.693735             7.594737             2.555653
| 19>   H                      9.183591             7.333835             3.340787
| 20>   H                      9.561195             9.357511             2.582736
| 21>   H                      10.656874            8.230546             1.817094
| 22>   H                      9.300392             8.859835             0.977610
| 23> *
| 24>
| 25> #Run DFT-D3 single point of the molecule with dimer basis set
| 26> $new_job
| 27> %base "10-22_DFT_A"
| 28> ! wB97X-D3 def2-TZVP TIGHTSCF CHELPG PMODEL
| 29>
| 30> %scf
| 31> MaxIter 1000
| 32> end
| 33>
| 34> * xyz 0 1
| 35>   C                      9.584878             9.486159             -2.318972
| 36>   O                      8.406559             10.126476            -2.024404
| 37>   H                      7.795485             9.747395             -2.700372
| 38>   H                      9.401391             8.478447             -2.650509
| 39>   H                      10.200250            10.016750            -3.046298
| 40>   H                      10.196088            9.389947             -1.386170
| 41>   C                    : 9.558170             8.529743             1.949500
| 42>   O                    : 8.693735             7.594737             2.555653
| 43>   H                    : 9.183591             7.333835             3.340787
| 44>   H                    : 9.561195             9.357511             2.582736
| 45>   H                    : 10.656874            8.230546             1.817094
| 46>   H                    : 9.300392             8.859835             0.977610
| 47> *
| 48>
| 49> #Run DFT-D3 single point of the particle with dimer basis set
| 50> $new_job
| 51> %base "10-22_DFT_B"
| 52> ! wB97X-D3 def2-TZVP TIGHTSCF CHELPG PMODEL
| 53>
| 54> %scf
| 55> MaxIter 1000
| 56> end
| 57>
| 58> * xyz 0 1
| 59>   C                    : 9.584878             9.486159             -2.318972
| 60>   O                    : 8.406559             10.126476            -2.024404
| 61>   H                    : 7.795485             9.747395             -2.700372
| 62>   H                    : 9.401391             8.478447             -2.650509
| 63>   H                    : 10.200250            10.016750            -3.046298
| 64>   H                    : 10.196088            9.389947             -1.386170
| 65>   C                      9.558170             8.529743             1.949500
| 66>   O                      8.693735             7.594737             2.555653
| 67>   H                      9.183591             7.333835             3.340787
| 68>   H                      9.561195             9.357511             2.582736
| 69>   H                      10.656874            8.230546             1.817094
| 70>   H                      9.300392             8.859835             0.977610
| 71> *
| 72>
| 73>                          ****END OF INPUT****
 Total Charge           Charge          ....    0
 Multiplicity           Mult            ....    1
 Number of Electrons    NEL             ....   36
Dispersion correction           -0.001169926
FINAL SINGLE POINT ENERGY      -231.460633222335
Dispersion correction           -0.000216259
FINAL SINGLE POINT ENERGY      -115.732367712600

CARTESIAN COORDINATES (ANGSTROEM)
---------------------------------
  C      9.584878    9.486159   -2.318972
  O      8.406559   10.126476   -2.024404
  H      7.795485    9.747395   -2.700372
  H      9.401391    8.478447   -2.650509
  H     10.200250   10.016750   -3.046298
  H     10.196088    9.389947   -1.386170
  C      9.558170    8.529743    1.949500
  O      8.693735    7.594737    2.555653
  H      9.183591    7.333835    3.340787
  H      9.561195    9.357511    2.582736
  H     10.656874    8.230546    1.817094
  H      9.300392    8.859835    0.977610

 Multiplicity           Mult            ....    1
 Number of Electrons    NEL             ....   18
 Basis Dimension        Dim             ....  172

ORBITAL ENERGIES
----------------

  NO   OCC          E(Eh)            E(eV)
   0   2.0000     -19.233954      -523.3825
   1   2.0000     -10.309044      -280.5233
   2   2.0000      -1.142185       -31.0804
   3   2.0000      -0.798674       -21.7330
   4   2.0000      -0.610353       -16.6086
   5   2.0000      -0.550838       -14.9891
   6   2.0000      -0.527363       -14.3503
   7   2.0000      -0.438105       -11.9214
   8   2.0000      -0.373339       -10.1591
   9   0.0000       0.085915         2.3379
  10   0.0000       0.116182         3.1615
  11   0.0000       0.148675         4.0457
  12   0.0000       0.170983         4.6527
  13   0.0000       0.193116         5.2550

MULLIKEN ATOMIC CHARGES
-----------------------
   0 C :    0.000948
   1 O :   -0.000121
   2 H :   -0.000021
   3 H :   -0.000149
   4 H :   -0.000011
   5 H :   -0.001272
   6 C :   -0.173904
   7 O :   -0.463101
   8 H :    0.318108
   9 H :    0.109095
  10 H :    0.091117
  11 H :    0.119310
Sum of atomic charges:   -0.0000000

LOEWDIN ATOMIC CHARGES
----------------------
   0 C :   -0.001766
   1 O :   -0.000155
   2 H :   -0.000015
   3 H :   -0.000045
   4 H :   -0.000012
   5 H :   -0.002087
   6 C :   -0.389949
   7 O :   -0.070601
   8 H :    0.175646
   9 H :    0.085844
  10 H :    0.103490
  11 H :    0.099651

  Mayer bond orders larger than 0.1
B(  6-C ,  7-O ) :   1.0034 B(  6-C ,  9-H ) :   0.9870 B(  6-C , 10-H ) :   0.9732
B(  6-C , 11-H ) :   0.9736 B(  7-O ,  8-H ) :   0.8994

Dispersion correction           -0.000230221
FINAL SINGLE POINT ENERGY      -115.727404239350

DIPOLE MOMENT
-------------
                                X             Y             Z
Electronic contribution:     -1.37946      -1.24631       0.62615
Nuclear contribution   :      1.99808       1.46864      -0.37704
                        -----------------------------------------
Total Dipole Moment    :      0.61862       0.22233       0.24911
                        -----------------------------------------
Magnitude (a.u.)       :      0.70298
Magnitude (Debye)      :      1.78682

Rotational constants in cm-1:     4.473459     0.833211     0.802233
Rotational constants in MHz : 134110.940386 24979.034769 24050.354142

                             ****ORCA TERMINATED NORMALLY****
TOTAL RUN TIME: 0 days 0 hours 1 minutes 4 seconds 923 msec
