                         Program Version 4.1.2  - RELEASE  -
|  1> #Run DFT-D3 single point of the dimer
|  2> ! wB97X-D3 def2-TZVP TIGHTSCF CHELPG PMODEL PAL8
|  3>
|  4> %base "20-60_DFT_AB"
|  5>
|  6> %scf
|  7> MaxIter 1000
|  8> end
|  9>
| 10> * xyz 0 1
| 11>   C                      6.774995             -8.324252            -6.953877
| 12>   O                      7.881105             -8.521997            -6.079112
| 13>   H                      7.517149             -8.829247            -5.213137
| 14>   H                      6.347906             -9.271718            -7.258913
| 15>   H                      6.000089             -7.780573            -6.407686
| 16>   H                      7.153695             -7.866640            -7.863631
| 17>   C                      2.907116             -9.187198            -6.133131
| 18>   O                      2.091800             -9.982552            -5.330885
| 19>   H                      2.195654             -9.664146            -4.384575
| 20>   H                      3.968683             -9.348297            -5.867276
| 21>   H                      2.841180             -9.300509            -7.224873
| 22>   H                      2.736581             -8.144323            -5.972114
| 23> *
| 24>
| 25> #Run DFT-D3 single point of the molecule with dimer basis set
| 26> $new_job
| 27> %base "20-60_DFT_A"
| 28> ! wB97X-D3 def2-TZVP TIGHTSCF CHELPG PMODEL
| 29>
| 30> %scf
| 31> MaxIter 1000
| 32> end
| 33>
| 34> * xyz 0 1
| 35>   C                      6.774995             -8.324252            -6.953877
| 36>   O                      7.881105             -8.521997            -6.079112
| 37>   H                      7.517149             -8.829247            -5.213137
| 38>   H                      6.347906             -9.271718            -7.258913
| 39>   H                      6.000089             -7.780573            -6.407686
| 40>   H                      7.153695             -7.866640            -7.863631
| 41>   C                    : 2.907116             -9.187198            -6.133131
| 42>   O                    : 2.091800             -9.982552            -5.330885
| 43>   H                    : 2.195654             -9.664146            -4.384575
| 44>   H                    : 3.968683             -9.348297            -5.867276
| 45>   H                    : 2.841180             -9.300509            -7.224873
| 46>   H                    : 2.736581             -8.144323            -5.972114
| 47> *
| 48>
| 49> #Run DFT-D3 single point of the particle with dimer basis set
| 50> $new_job
| 51> %base "20-60_DFT_B"
| 52> ! wB97X-D3 def2-TZVP TIGHTSCF CHELPG PMODEL
| 53>
| 54> %scf
| 55> MaxIter 1000
| 56> end
| 57>
| 58> * xyz 0 1
| 59>   C                    : 6.774995             -8.324252            -6.953877
| 60>   O                    : 7.881105             -8.521997            -6.079112
| 61>   H                    : 7.517149             -8.829247            -5.213137
| 62>   H                    : 6.347906             -9.271718            -7.258913
| 63>   H                    : 6.000089             -7.780573            -6.407686
| 64>   H                    : 7.153695             -7.866640            -7.863631
| 65>   C                      2.907116             -9.187198            -6.133131
| 66>   O                      2.091800             -9.982552            -5.330885
| 67>   H                      2.195654             -9.664146            -4.384575
| 68>   H                      3.968683             -9.348297            -5.867276
| 69>   H                      2.841180             -9.300509            -7.224873
| 70>   H                      2.736581             -8.144323            -5.972114
| 71> *
| 72>
| 73>                          ****END OF INPUT****
 Total Charge           Charge          ....    0
 Multiplicity           Mult            ....    1
 Number of Electrons    NEL             ....   36
Dispersion correction           -0.001374506
FINAL SINGLE POINT ENERGY      -231.465139244169
Dispersion correction           -0.000226969
FINAL SINGLE POINT ENERGY      -115.734243920835

CARTESIAN COORDINATES (ANGSTROEM)
---------------------------------
  C      6.774995   -8.324252   -6.953877
  O      7.881105   -8.521997   -6.079112
  H      7.517149   -8.829247   -5.213137
  H      6.347906   -9.271718   -7.258913
  H      6.000089   -7.780573   -6.407686
  H      7.153695   -7.866640   -7.863631
  C      2.907116   -9.187198   -6.133131
  O      2.091800   -9.982552   -5.330885
  H      2.195654   -9.664146   -4.384575
  H      3.968683   -9.348297   -5.867276
  H      2.841180   -9.300509   -7.224873
  H      2.736581   -8.144323   -5.972114

 Multiplicity           Mult            ....    1
 Number of Electrons    NEL             ....   18
 Basis Dimension        Dim             ....  172

ORBITAL ENERGIES
----------------

  NO   OCC          E(Eh)            E(eV)
   0   2.0000     -19.235219      -523.4169
   1   2.0000     -10.309680      -280.5407
   2   2.0000      -1.136022       -30.9127
   3   2.0000      -0.792710       -21.5707
   4   2.0000      -0.611531       -16.6406
   5   2.0000      -0.540788       -14.7156
   6   2.0000      -0.533612       -14.5203
   7   2.0000      -0.429157       -11.6780
   8   2.0000      -0.369893       -10.0653
   9   0.0000       0.083133         2.2622
  10   0.0000       0.110688         3.0120
  11   0.0000       0.148957         4.0533
  12   0.0000       0.163747         4.4558
  13   0.0000       0.188861         5.1392

MULLIKEN ATOMIC CHARGES
-----------------------
   0 C :    0.000946
   1 O :    0.000035
   2 H :   -0.000123
   3 H :   -0.001457
   4 H :   -0.001803
   5 H :   -0.000201
   6 C :   -0.177362
   7 O :   -0.469139
   8 H :    0.323119
   9 H :    0.098216
  10 H :    0.122952
  11 H :    0.104815
Sum of atomic charges:    0.0000000

LOEWDIN ATOMIC CHARGES
----------------------
   0 C :   -0.004459
   1 O :   -0.000009
   2 H :   -0.000088
   3 H :   -0.001693
   4 H :   -0.002379
   5 H :   -0.000041
   6 C :   -0.410821
   7 O :   -0.078763
   8 H :    0.199961
   9 H :    0.098583
  10 H :    0.110841
  11 H :    0.088867

  Mayer bond orders larger than 0.1
B(  6-C ,  7-O ) :   0.9954 B(  6-C ,  9-H ) :   0.9857 B(  6-C , 10-H ) :   0.9661
B(  6-C , 11-H ) :   0.9785 B(  7-O ,  8-H ) :   0.8874

Dispersion correction           -0.000233422
FINAL SINGLE POINT ENERGY      -115.730504359588

DIPOLE MOMENT
-------------
                                X             Y             Z
Electronic contribution:     -1.25457      -1.20634       0.88505
Nuclear contribution   :      1.61482       1.72337      -0.60904
                        -----------------------------------------
Total Dipole Moment    :      0.36025       0.51703       0.27601
                        -----------------------------------------
Magnitude (a.u.)       :      0.68796
Magnitude (Debye)      :      1.74865

Rotational constants in cm-1:     4.379762     0.840944     0.807615
Rotational constants in MHz : 131301.956127 25210.874352 24211.701424

                             ****ORCA TERMINATED NORMALLY****
TOTAL RUN TIME: 0 days 0 hours 1 minutes 3 seconds 536 msec
