                         Program Version 4.1.2  - RELEASE  -
|  1> #Run DFT-D3 single point of the dimer
|  2> ! wB97X-D3 def2-TZVP TIGHTSCF CHELPG PMODEL PAL8
|  3>
|  4> %base "7-173_DFT_AB"
|  5>
|  6> %scf
|  7> MaxIter 1000
|  8> end
|  9>
| 10> * xyz 0 1
| 11>   C                      3.278767             9.966566             6.843198
| 12>   O                      1.925544             10.400813            6.441194
| 13>   H                      1.443355             9.600670             6.282680
| 14>   H                      3.783586             9.270249             6.212619
| 15>   H                      3.982962             10.774376            7.045077
| 16>   H                      3.233536             9.385685             7.769559
| 17>   C                      1.536890             6.629011             5.519386
| 18>   O                      0.725455             7.687187             5.987546
| 19>   H                      0.091693             7.294986             6.653605
| 20>   H                      1.917909             6.062887             6.367477
| 21>   H                      0.971347             5.888742             4.873822
| 22>   H                      2.438145             6.869504             4.946360
| 23> *
| 24>
| 25> #Run DFT-D3 single point of the molecule with dimer basis set
| 26> $new_job
| 27> %base "7-173_DFT_A"
| 28> ! wB97X-D3 def2-TZVP TIGHTSCF CHELPG PMODEL
| 29>
| 30> %scf
| 31> MaxIter 1000
| 32> end
| 33>
| 34> * xyz 0 1
| 35>   C                      3.278767             9.966566             6.843198
| 36>   O                      1.925544             10.400813            6.441194
| 37>   H                      1.443355             9.600670             6.282680
| 38>   H                      3.783586             9.270249             6.212619
| 39>   H                      3.982962             10.774376            7.045077
| 40>   H                      3.233536             9.385685             7.769559
| 41>   C                    : 1.536890             6.629011             5.519386
| 42>   O                    : 0.725455             7.687187             5.987546
| 43>   H                    : 0.091693             7.294986             6.653605
| 44>   H                    : 1.917909             6.062887             6.367477
| 45>   H                    : 0.971347             5.888742             4.873822
| 46>   H                    : 2.438145             6.869504             4.946360
| 47> *
| 48>
| 49> #Run DFT-D3 single point of the particle with dimer basis set
| 50> $new_job
| 51> %base "7-173_DFT_B"
| 52> ! wB97X-D3 def2-TZVP TIGHTSCF CHELPG PMODEL
| 53>
| 54> %scf
| 55> MaxIter 1000
| 56> end
| 57>
| 58> * xyz 0 1
| 59>   C                    : 3.278767             9.966566             6.843198
| 60>   O                    : 1.925544             10.400813            6.441194
| 61>   H                    : 1.443355             9.600670             6.282680
| 62>   H                    : 3.783586             9.270249             6.212619
| 63>   H                    : 3.982962             10.774376            7.045077
| 64>   H                    : 3.233536             9.385685             7.769559
| 65>   C                      1.536890             6.629011             5.519386
| 66>   O                      0.725455             7.687187             5.987546
| 67>   H                      0.091693             7.294986             6.653605
| 68>   H                      1.917909             6.062887             6.367477
| 69>   H                      0.971347             5.888742             4.873822
| 70>   H                      2.438145             6.869504             4.946360
| 71> *
| 72>
| 73>                          ****END OF INPUT****
 Total Charge           Charge          ....    0
 Multiplicity           Mult            ....    1
 Number of Electrons    NEL             ....   36
Dispersion correction           -0.002000263
FINAL SINGLE POINT ENERGY      -231.467998712029
Dispersion correction           -0.000273601
FINAL SINGLE POINT ENERGY      -115.729144000353

CARTESIAN COORDINATES (ANGSTROEM)
---------------------------------
  C      3.278767    9.966566    6.843198
  O      1.925544   10.400813    6.441194
  H      1.443355    9.600670    6.282680
  H      3.783586    9.270249    6.212619
  H      3.982962   10.774376    7.045077
  H      3.233536    9.385685    7.769559
  C      1.536890    6.629011    5.519386
  O      0.725455    7.687187    5.987546
  H      0.091693    7.294986    6.653605
  H      1.917909    6.062887    6.367477
  H      0.971347    5.888742    4.873822
  H      2.438145    6.869504    4.946360

 Multiplicity           Mult            ....    1
 Number of Electrons    NEL             ....   18
 Basis Dimension        Dim             ....  172

ORBITAL ENERGIES
----------------

  NO   OCC          E(Eh)            E(eV)
   0   2.0000     -19.237581      -523.4812
   1   2.0000     -10.317426      -280.7514
   2   2.0000      -1.132006       -30.8034
   3   2.0000      -0.791551       -21.5392
   4   2.0000      -0.607223       -16.5234
   5   2.0000      -0.536110       -14.5883
   6   2.0000      -0.533009       -14.5039
   7   2.0000      -0.429955       -11.6997
   8   2.0000      -0.372700       -10.1417
   9   0.0000       0.092830         2.5260
  10   0.0000       0.121466         3.3053
  11   0.0000       0.145682         3.9642
  12   0.0000       0.189389         5.1535
  13   0.0000       0.199559         5.4303

MULLIKEN ATOMIC CHARGES
-----------------------
   0 C :    0.003091
   1 O :   -0.001082
   2 H :   -0.007286
   3 H :   -0.001105
   4 H :   -0.000189
   5 H :   -0.002527
   6 C :   -0.180190
   7 O :   -0.467812
   8 H :    0.321771
   9 H :    0.106408
  10 H :    0.100403
  11 H :    0.128518
Sum of atomic charges:   -0.0000000

LOEWDIN ATOMIC CHARGES
----------------------
   0 C :   -0.003871
   1 O :   -0.003572
   2 H :   -0.033049
   3 H :   -0.000644
   4 H :   -0.000061
   5 H :   -0.000713
   6 C :   -0.399163
   7 O :   -0.058851
   8 H :    0.196436
   9 H :    0.094158
  10 H :    0.100557
  11 H :    0.108774

  Mayer bond orders larger than 0.1
B(  6-C ,  7-O ) :   0.9877 B(  6-C ,  9-H ) :   0.9830 B(  6-C , 10-H ) :   0.9695
B(  6-C , 11-H ) :   0.9715 B(  7-O ,  8-H ) :   0.8877

Dispersion correction           -0.000252767
FINAL SINGLE POINT ENERGY      -115.730795383389

DIPOLE MOMENT
-------------
                                X             Y             Z
Electronic contribution:     -0.97027       1.64232       0.49090
Nuclear contribution   :      0.91735      -2.30275      -0.24777
                        -----------------------------------------
Total Dipole Moment    :     -0.05293      -0.66043       0.24313
                        -----------------------------------------
Magnitude (a.u.)       :      0.70575
Magnitude (Debye)      :      1.79387

Rotational constants in cm-1:     4.302811     0.815818     0.788765
Rotational constants in MHz : 128995.042638 24457.622577 23646.577325

                             ****ORCA TERMINATED NORMALLY****
TOTAL RUN TIME: 0 days 0 hours 1 minutes 13 seconds 266 msec
