                         Program Version 4.1.2  - RELEASE  -
|  1> #Run DFT-D3 single point of the dimer
|  2> ! wB97X-D3 def2-TZVP TIGHTSCF CHELPG PMODEL PAL8
|  3>
|  4> %base "7-49_DFT_AB"
|  5>
|  6> %scf
|  7> MaxIter 1000
|  8> end
|  9>
| 10> * xyz 0 1
| 11>   C                      -10.430630           5.965214             -6.659766
| 12>   O                      -11.506915           6.842817             -6.664926
| 13>   H                      -12.269845           6.244401             -6.518812
| 14>   H                      -10.239529           5.594698             -5.660409
| 15>   H                      -10.552653           5.211127             -7.463928
| 16>   H                      -9.466643            6.469908             -6.833632
| 17>   C                      -5.953416            6.441439             -5.791146
| 18>   O                      -4.882713            6.105189             -6.733241
| 19>   H                      -4.725952            5.151699             -6.657263
| 20>   H                      -5.894636            7.567412             -5.696806
| 21>   H                      -6.940423            6.332680             -6.210736
| 22>   H                      -5.806236            5.876499             -4.860108
| 23> *
| 24>
| 25> #Run DFT-D3 single point of the molecule with dimer basis set
| 26> $new_job
| 27> %base "7-49_DFT_A"
| 28> ! wB97X-D3 def2-TZVP TIGHTSCF CHELPG PMODEL
| 29>
| 30> %scf
| 31> MaxIter 1000
| 32> end
| 33>
| 34> * xyz 0 1
| 35>   C                      -10.430630           5.965214             -6.659766
| 36>   O                      -11.506915           6.842817             -6.664926
| 37>   H                      -12.269845           6.244401             -6.518812
| 38>   H                      -10.239529           5.594698             -5.660409
| 39>   H                      -10.552653           5.211127             -7.463928
| 40>   H                      -9.466643            6.469908             -6.833632
| 41>   C                    : -5.953416            6.441439             -5.791146
| 42>   O                    : -4.882713            6.105189             -6.733241
| 43>   H                    : -4.725952            5.151699             -6.657263
| 44>   H                    : -5.894636            7.567412             -5.696806
| 45>   H                    : -6.940423            6.332680             -6.210736
| 46>   H                    : -5.806236            5.876499             -4.860108
| 47> *
| 48>
| 49> #Run DFT-D3 single point of the particle with dimer basis set
| 50> $new_job
| 51> %base "7-49_DFT_B"
| 52> ! wB97X-D3 def2-TZVP TIGHTSCF CHELPG PMODEL
| 53>
| 54> %scf
| 55> MaxIter 1000
| 56> end
| 57>
| 58> * xyz 0 1
| 59>   C                    : -10.430630           5.965214             -6.659766
| 60>   O                    : -11.506915           6.842817             -6.664926
| 61>   H                    : -12.269845           6.244401             -6.518812
| 62>   H                    : -10.239529           5.594698             -5.660409
| 63>   H                    : -10.552653           5.211127             -7.463928
| 64>   H                    : -9.466643            6.469908             -6.833632
| 65>   C                      -5.953416            6.441439             -5.791146
| 66>   O                      -4.882713            6.105189             -6.733241
| 67>   H                      -4.725952            5.151699             -6.657263
| 68>   H                      -5.894636            7.567412             -5.696806
| 69>   H                      -6.940423            6.332680             -6.210736
| 70>   H                      -5.806236            5.876499             -4.860108
| 71> *
| 72>
| 73>                          ****END OF INPUT****
 Total Charge           Charge          ....    0
 Multiplicity           Mult            ....    1
 Number of Electrons    NEL             ....   36
Dispersion correction           -0.001008963
FINAL SINGLE POINT ENERGY      -231.462636252194
Dispersion correction           -0.000219080
FINAL SINGLE POINT ENERGY      -115.731168470962

CARTESIAN COORDINATES (ANGSTROEM)
---------------------------------
  C    -10.430630    5.965214   -6.659766
  O    -11.506915    6.842817   -6.664926
  H    -12.269845    6.244401   -6.518812
  H    -10.239529    5.594698   -5.660409
  H    -10.552653    5.211127   -7.463928
  H     -9.466643    6.469908   -6.833632
  C     -5.953416    6.441439   -5.791146
  O     -4.882713    6.105189   -6.733241
  H     -4.725952    5.151699   -6.657263
  H     -5.894636    7.567412   -5.696806
  H     -6.940423    6.332680   -6.210736
  H     -5.806236    5.876499   -4.860108

 Multiplicity           Mult            ....    1
 Number of Electrons    NEL             ....   18
 Basis Dimension        Dim             ....  172

ORBITAL ENERGIES
----------------

  NO   OCC          E(Eh)            E(eV)
   0   2.0000     -19.229151      -523.2518
   1   2.0000     -10.320065      -280.8233
   2   2.0000      -1.119030       -30.4504
   3   2.0000      -0.793851       -21.6018
   4   2.0000      -0.599478       -16.3126
   5   2.0000      -0.545211       -14.8359
   6   2.0000      -0.509595       -13.8668
   7   2.0000      -0.437070       -11.8933
   8   2.0000      -0.373388       -10.1604
   9   0.0000       0.084453         2.2981
  10   0.0000       0.113857         3.0982
  11   0.0000       0.144524         3.9327
  12   0.0000       0.175801         4.7838
  13   0.0000       0.188317         5.1244

MULLIKEN ATOMIC CHARGES
-----------------------
   0 C :   -0.000940
   1 O :    0.000013
   2 H :   -0.000001
   3 H :   -0.000133
   4 H :   -0.000038
   5 H :    0.001347
   6 C :   -0.172221
   7 O :   -0.481109
   8 H :    0.310316
   9 H :    0.118632
  10 H :    0.110353
  11 H :    0.113782
Sum of atomic charges:    0.0000000

LOEWDIN ATOMIC CHARGES
----------------------
   0 C :   -0.001396
   1 O :   -0.000011
   2 H :   -0.000003
   3 H :   -0.000171
   4 H :   -0.000014
   5 H :   -0.002623
   6 C :   -0.353990
   7 O :   -0.119556
   8 H :    0.167130
   9 H :    0.118125
  10 H :    0.093000
  11 H :    0.099511

  Mayer bond orders larger than 0.1
B(  6-C ,  7-O ) :   0.9959 B(  6-C ,  9-H ) :   0.9754 B(  6-C , 10-H ) :   0.9667
B(  6-C , 11-H ) :   0.9784 B(  7-O ,  8-H ) :   0.9035

Dispersion correction           -0.000260813
FINAL SINGLE POINT ENERGY      -115.731220047826

DIPOLE MOMENT
-------------
                                X             Y             Z
Electronic contribution:      1.27448      -0.39158      -1.10877
Nuclear contribution   :     -1.63242      -0.05887       1.54492
                        -----------------------------------------
Total Dipole Moment    :     -0.35794      -0.45045       0.43615
                        -----------------------------------------
Magnitude (a.u.)       :      0.72198
Magnitude (Debye)      :      1.83512

Rotational constants in cm-1:     4.144928     0.794510     0.756304
Rotational constants in MHz : 124261.827357 23818.796718 22673.414047

                             ****ORCA TERMINATED NORMALLY****
TOTAL RUN TIME: 0 days 0 hours 1 minutes 3 seconds 937 msec
