                         Program Version 4.1.2  - RELEASE  -
|  1> #Run DFT-D3 single point of the dimer
|  2> ! wB97X-D3 def2-TZVP TIGHTSCF CHELPG PMODEL PAL8
|  3>
|  4> %base "13-218_DFT_AB"
|  5>
|  6> %scf
|  7> MaxIter 1000
|  8> end
|  9>
| 10> * xyz 0 1
| 11>   C                      0.922069             2.397543             -2.403654
| 12>   O                      1.090850             1.893788             -3.723139
| 13>   H                      2.030726             1.818473             -3.731177
| 14>   H                      -0.032940            3.018168             -2.168044
| 15>   H                      1.074150             1.541091             -1.683846
| 16>   H                      1.780223             3.123276             -2.281301
| 17>   C                      -0.695942            -1.118168            -4.644641
| 18>   O                      -0.689851            0.124149             -5.212528
| 19>   H                      -0.049258            0.673570             -4.677234
| 20>   H                      -0.102550            -1.842898            -5.168804
| 21>   H                      -0.440777            -1.019185            -3.624721
| 22>   H                      -1.700991            -1.589887            -4.669325
| 23> *
| 24>
| 25> #Run DFT-D3 single point of the molecule with dimer basis set
| 26> $new_job
| 27> %base "13-218_DFT_A"
| 28> ! wB97X-D3 def2-TZVP TIGHTSCF CHELPG PMODEL
| 29>
| 30> %scf
| 31> MaxIter 1000
| 32> end
| 33>
| 34> * xyz 0 1
| 35>   C                      0.922069             2.397543             -2.403654
| 36>   O                      1.090850             1.893788             -3.723139
| 37>   H                      2.030726             1.818473             -3.731177
| 38>   H                      -0.032940            3.018168             -2.168044
| 39>   H                      1.074150             1.541091             -1.683846
| 40>   H                      1.780223             3.123276             -2.281301
| 41>   C                    : -0.695942            -1.118168            -4.644641
| 42>   O                    : -0.689851            0.124149             -5.212528
| 43>   H                    : -0.049258            0.673570             -4.677234
| 44>   H                    : -0.102550            -1.842898            -5.168804
| 45>   H                    : -0.440777            -1.019185            -3.624721
| 46>   H                    : -1.700991            -1.589887            -4.669325
| 47> *
| 48>
| 49> #Run DFT-D3 single point of the particle with dimer basis set
| 50> $new_job
| 51> %base "13-218_DFT_B"
| 52> ! wB97X-D3 def2-TZVP TIGHTSCF CHELPG PMODEL
| 53>
| 54> %scf
| 55> MaxIter 1000
| 56> end
| 57>
| 58> * xyz 0 1
| 59>   C                    : 0.922069             2.397543             -2.403654
| 60>   O                    : 1.090850             1.893788             -3.723139
| 61>   H                    : 2.030726             1.818473             -3.731177
| 62>   H                    : -0.032940            3.018168             -2.168044
| 63>   H                    : 1.074150             1.541091             -1.683846
| 64>   H                    : 1.780223             3.123276             -2.281301
| 65>   C                      -0.695942            -1.118168            -4.644641
| 66>   O                      -0.689851            0.124149             -5.212528
| 67>   H                      -0.049258            0.673570             -4.677234
| 68>   H                      -0.102550            -1.842898            -5.168804
| 69>   H                      -0.440777            -1.019185            -3.624721
| 70>   H                      -1.700991            -1.589887            -4.669325
| 71> *
| 72>
| 73>                          ****END OF INPUT****
 Total Charge           Charge          ....    0
 Multiplicity           Mult            ....    1
 Number of Electrons    NEL             ....   36
Dispersion correction           -0.001626679
FINAL SINGLE POINT ENERGY      -231.462938242304
Dispersion correction           -0.000228027
FINAL SINGLE POINT ENERGY      -115.724187974367

CARTESIAN COORDINATES (ANGSTROEM)
---------------------------------
  C      0.922069    2.397543   -2.403654
  O      1.090850    1.893788   -3.723139
  H      2.030726    1.818473   -3.731177
  H     -0.032940    3.018168   -2.168044
  H      1.074150    1.541091   -1.683846
  H      1.780223    3.123276   -2.281301
  C     -0.695942   -1.118168   -4.644641
  O     -0.689851    0.124149   -5.212528
  H     -0.049258    0.673570   -4.677234
  H     -0.102550   -1.842898   -5.168804
  H     -0.440777   -1.019185   -3.624721
  H     -1.700991   -1.589887   -4.669325

 Multiplicity           Mult            ....    1
 Number of Electrons    NEL             ....   18
 Basis Dimension        Dim             ....  172

ORBITAL ENERGIES
----------------

  NO   OCC          E(Eh)            E(eV)
   0   2.0000     -19.233502      -523.3702
   1   2.0000     -10.303248      -280.3656
   2   2.0000      -1.146840       -31.2071
   3   2.0000      -0.791953       -21.5501
   4   2.0000      -0.617822       -16.8118
   5   2.0000      -0.553418       -15.0593
   6   2.0000      -0.532674       -14.4948
   7   2.0000      -0.427931       -11.6446
   8   2.0000      -0.369695       -10.0599
   9   0.0000       0.064407         1.7526
  10   0.0000       0.131797         3.5864
  11   0.0000       0.149536         4.0691
  12   0.0000       0.166126         4.5205
  13   0.0000       0.183047         4.9810

MULLIKEN ATOMIC CHARGES
-----------------------
   0 C :   -0.001830
   1 O :   -0.002091
   2 H :   -0.000187
   3 H :    0.000153
   4 H :    0.000040
   5 H :   -0.000031
   6 C :   -0.153434
   7 O :   -0.457669
   8 H :    0.316610
   9 H :    0.095774
  10 H :    0.099803
  11 H :    0.102862
Sum of atomic charges:    0.0000000

LOEWDIN ATOMIC CHARGES
----------------------
   0 C :   -0.002904
   1 O :   -0.021018
   2 H :   -0.001428
   3 H :   -0.000100
   4 H :   -0.000117
   5 H :   -0.000085
   6 C :   -0.423055
   7 O :   -0.046884
   8 H :    0.209740
   9 H :    0.089733
  10 H :    0.089284
  11 H :    0.106835

  Mayer bond orders larger than 0.1
B(  6-C ,  7-O ) :   1.0092 B(  6-C ,  9-H ) :   0.9769 B(  6-C , 10-H ) :   0.9916
B(  6-C , 11-H ) :   0.9753 B(  7-O ,  8-H ) :   0.9006

Dispersion correction           -0.000222022
FINAL SINGLE POINT ENERGY      -115.729277684902

DIPOLE MOMENT
-------------
                                X             Y             Z
Electronic contribution:     -0.00074       1.64143      -0.85785
Nuclear contribution   :      0.39042      -1.74956       1.41929
                        -----------------------------------------
Total Dipole Moment    :      0.38968      -0.10813       0.56144
                        -----------------------------------------
Magnitude (a.u.)       :      0.69193
Magnitude (Debye)      :      1.75874

Rotational constants in cm-1:     4.365142     0.881627     0.843496
Rotational constants in MHz : 130863.672544 26430.520499 25287.372563

                             ****ORCA TERMINATED NORMALLY****
TOTAL RUN TIME: 0 days 0 hours 1 minutes 10 seconds 153 msec
