                         Program Version 4.1.2  - RELEASE  -
|  1> #Run DFT-D3 single point of the dimer
|  2> ! wB97X-D3 def2-TZVP TIGHTSCF CHELPG PMODEL PAL8
|  3>
|  4> %base "13-138_DFT_AB"
|  5>
|  6> %scf
|  7> MaxIter 1000
|  8> end
|  9>
| 10> * xyz 0 1
| 11>   C                      -6.083136            5.885562             7.272078
| 12>   O                      -5.275935            6.974609             7.448054
| 13>   H                      -4.771461            7.052453             6.604360
| 14>   H                      -6.995972            5.890797             7.959285
| 15>   H                      -6.525911            5.758707             6.203153
| 16>   H                      -5.455596            4.991916             7.471403
| 17>   C                      -4.487210            10.815205            8.350348
| 18>   O                      -4.551574            10.014269            9.504995
| 19>   H                      -5.360947            9.518464             9.275820
| 20>   H                      -5.241380            11.625561            8.355887
| 21>   H                      -3.526033            11.207367            7.985136
| 22>   H                      -4.922902            10.255765            7.497466
| 23> *
| 24>
| 25> #Run DFT-D3 single point of the molecule with dimer basis set
| 26> $new_job
| 27> %base "13-138_DFT_A"
| 28> ! wB97X-D3 def2-TZVP TIGHTSCF CHELPG PMODEL
| 29>
| 30> %scf
| 31> MaxIter 1000
| 32> end
| 33>
| 34> * xyz 0 1
| 35>   C                      -6.083136            5.885562             7.272078
| 36>   O                      -5.275935            6.974609             7.448054
| 37>   H                      -4.771461            7.052453             6.604360
| 38>   H                      -6.995972            5.890797             7.959285
| 39>   H                      -6.525911            5.758707             6.203153
| 40>   H                      -5.455596            4.991916             7.471403
| 41>   C                    : -4.487210            10.815205            8.350348
| 42>   O                    : -4.551574            10.014269            9.504995
| 43>   H                    : -5.360947            9.518464             9.275820
| 44>   H                    : -5.241380            11.625561            8.355887
| 45>   H                    : -3.526033            11.207367            7.985136
| 46>   H                    : -4.922902            10.255765            7.497466
| 47> *
| 48>
| 49> #Run DFT-D3 single point of the particle with dimer basis set
| 50> $new_job
| 51> %base "13-138_DFT_B"
| 52> ! wB97X-D3 def2-TZVP TIGHTSCF CHELPG PMODEL
| 53>
| 54> %scf
| 55> MaxIter 1000
| 56> end
| 57>
| 58> * xyz 0 1
| 59>   C                    : -6.083136            5.885562             7.272078
| 60>   O                    : -5.275935            6.974609             7.448054
| 61>   H                    : -4.771461            7.052453             6.604360
| 62>   H                    : -6.995972            5.890797             7.959285
| 63>   H                    : -6.525911            5.758707             6.203153
| 64>   H                    : -5.455596            4.991916             7.471403
| 65>   C                      -4.487210            10.815205            8.350348
| 66>   O                      -4.551574            10.014269            9.504995
| 67>   H                      -5.360947            9.518464             9.275820
| 68>   H                      -5.241380            11.625561            8.355887
| 69>   H                      -3.526033            11.207367            7.985136
| 70>   H                      -4.922902            10.255765            7.497466
| 71> *
| 72>
| 73>                          ****END OF INPUT****
 Total Charge           Charge          ....    0
 Multiplicity           Mult            ....    1
 Number of Electrons    NEL             ....   36
Dispersion correction           -0.001211629
FINAL SINGLE POINT ENERGY      -231.455444959098
Dispersion correction           -0.000234275
FINAL SINGLE POINT ENERGY      -115.728455711358

CARTESIAN COORDINATES (ANGSTROEM)
---------------------------------
  C     -6.083136    5.885562    7.272078
  O     -5.275935    6.974609    7.448054
  H     -4.771461    7.052453    6.604360
  H     -6.995972    5.890797    7.959285
  H     -6.525911    5.758707    6.203153
  H     -5.455596    4.991916    7.471403
  C     -4.487210   10.815205    8.350348
  O     -4.551574   10.014269    9.504995
  H     -5.360947    9.518464    9.275820
  H     -5.241380   11.625561    8.355887
  H     -3.526033   11.207367    7.985136
  H     -4.922902   10.255765    7.497466

 Multiplicity           Mult            ....    1
 Number of Electrons    NEL             ....   18
 Basis Dimension        Dim             ....  172

ORBITAL ENERGIES
----------------

  NO   OCC          E(Eh)            E(eV)
   0   2.0000     -19.238857      -523.5159
   1   2.0000     -10.318435      -280.7789
   2   2.0000      -1.145802       -31.1788
   3   2.0000      -0.790256       -21.5040
   4   2.0000      -0.615461       -16.7475
   5   2.0000      -0.539624       -14.6839
   6   2.0000      -0.528292       -14.3755
   7   2.0000      -0.442737       -12.0475
   8   2.0000      -0.370806       -10.0902
   9   0.0000       0.073864         2.0100
  10   0.0000       0.113911         3.0997
  11   0.0000       0.147062         4.0018
  12   0.0000       0.164985         4.4895
  13   0.0000       0.191832         5.2200

MULLIKEN ATOMIC CHARGES
-----------------------
   0 C :   -0.000358
   1 O :   -0.000613
   2 H :   -0.000034
   3 H :   -0.000004
   4 H :   -0.000000
   5 H :    0.000020
   6 C :   -0.191201
   7 O :   -0.448961
   8 H :    0.322159
   9 H :    0.098883
  10 H :    0.123068
  11 H :    0.097043
Sum of atomic charges:   -0.0000000

LOEWDIN ATOMIC CHARGES
----------------------
   0 C :   -0.000165
   1 O :   -0.001181
   2 H :   -0.000313
   3 H :   -0.000011
   4 H :   -0.000002
   5 H :   -0.000002
   6 C :   -0.412441
   7 O :   -0.074127
   8 H :    0.189657
   9 H :    0.095070
  10 H :    0.106974
  11 H :    0.096540

  Mayer bond orders larger than 0.1
B(  6-C ,  7-O ) :   1.0039 B(  6-C ,  9-H ) :   0.9740 B(  6-C , 10-H ) :   0.9695
B(  6-C , 11-H ) :   0.9906 B(  7-O ,  8-H ) :   0.8972

Dispersion correction           -0.000224937
FINAL SINGLE POINT ENERGY      -115.724586923362

DIPOLE MOMENT
-------------
                                X             Y             Z
Electronic contribution:      0.31007      -0.97953       1.80310
Nuclear contribution   :     -0.78348       0.95907      -2.39031
                        -----------------------------------------
Total Dipole Moment    :     -0.47341      -0.02047      -0.58721
                        -----------------------------------------
Magnitude (a.u.)       :      0.75455
Magnitude (Debye)      :      1.91792

Rotational constants in cm-1:     4.292197     0.840349     0.798024
Rotational constants in MHz : 128676.832074 25193.036489 23924.159712

                             ****ORCA TERMINATED NORMALLY****
TOTAL RUN TIME: 0 days 0 hours 1 minutes 7 seconds 479 msec
