                         Program Version 4.1.2  - RELEASE  -
|  1> #Run DFT-D3 single point of the dimer
|  2> ! wB97X-D3 def2-TZVP TIGHTSCF CHELPG PMODEL PAL8
|  3>
|  4> %base "9-143_DFT_AB"
|  5>
|  6> %scf
|  7> MaxIter 1000
|  8> end
|  9>
| 10> * xyz 0 1
| 11>   C                      -0.644259            -10.288811           -0.613577
| 12>   O                      0.403820             -9.855791            0.193845
| 13>   H                      0.055486             -9.356534            0.947444
| 14>   H                      -1.065645            -11.179136           -0.133979
| 15>   H                      -1.357217            -9.505382            -0.921732
| 16>   H                      -0.289226            -10.785823           -1.502527
| 17>   C                      1.377095             -6.672413            -1.983015
| 18>   O                      0.978614             -6.700655            -0.650823
| 19>   H                      0.060636             -6.518501            -0.611805
| 20>   H                      1.068664             -7.500446            -2.507398
| 21>   H                      0.774104             -5.990312            -2.559494
| 22>   H                      2.463643             -6.499056            -2.114415
| 23> *
| 24>
| 25> #Run DFT-D3 single point of the molecule with dimer basis set
| 26> $new_job
| 27> %base "9-143_DFT_A"
| 28> ! wB97X-D3 def2-TZVP TIGHTSCF CHELPG PMODEL
| 29>
| 30> %scf
| 31> MaxIter 1000
| 32> end
| 33>
| 34> * xyz 0 1
| 35>   C                      -0.644259            -10.288811           -0.613577
| 36>   O                      0.403820             -9.855791            0.193845
| 37>   H                      0.055486             -9.356534            0.947444
| 38>   H                      -1.065645            -11.179136           -0.133979
| 39>   H                      -1.357217            -9.505382            -0.921732
| 40>   H                      -0.289226            -10.785823           -1.502527
| 41>   C                    : 1.377095             -6.672413            -1.983015
| 42>   O                    : 0.978614             -6.700655            -0.650823
| 43>   H                    : 0.060636             -6.518501            -0.611805
| 44>   H                    : 1.068664             -7.500446            -2.507398
| 45>   H                    : 0.774104             -5.990312            -2.559494
| 46>   H                    : 2.463643             -6.499056            -2.114415
| 47> *
| 48>
| 49> #Run DFT-D3 single point of the particle with dimer basis set
| 50> $new_job
| 51> %base "9-143_DFT_B"
| 52> ! wB97X-D3 def2-TZVP TIGHTSCF CHELPG PMODEL
| 53>
| 54> %scf
| 55> MaxIter 1000
| 56> end
| 57>
| 58> * xyz 0 1
| 59>   C                    : -0.644259            -10.288811           -0.613577
| 60>   O                    : 0.403820             -9.855791            0.193845
| 61>   H                    : 0.055486             -9.356534            0.947444
| 62>   H                    : -1.065645            -11.179136           -0.133979
| 63>   H                    : -1.357217            -9.505382            -0.921732
| 64>   H                    : -0.289226            -10.785823           -1.502527
| 65>   C                      1.377095             -6.672413            -1.983015
| 66>   O                      0.978614             -6.700655            -0.650823
| 67>   H                      0.060636             -6.518501            -0.611805
| 68>   H                      1.068664             -7.500446            -2.507398
| 69>   H                      0.774104             -5.990312            -2.559494
| 70>   H                      2.463643             -6.499056            -2.114415
| 71> *
| 72>
| 73>                          ****END OF INPUT****
 Total Charge           Charge          ....    0
 Multiplicity           Mult            ....    1
 Number of Electrons    NEL             ....   36
Dispersion correction           -0.001659740
FINAL SINGLE POINT ENERGY      -231.455733337358
Dispersion correction           -0.000240899
FINAL SINGLE POINT ENERGY      -115.731095275684

CARTESIAN COORDINATES (ANGSTROEM)
---------------------------------
  C     -0.644259  -10.288811   -0.613577
  O      0.403820   -9.855791    0.193845
  H      0.055486   -9.356534    0.947444
  H     -1.065645  -11.179136   -0.133979
  H     -1.357217   -9.505382   -0.921732
  H     -0.289226  -10.785823   -1.502527
  C      1.377095   -6.672413   -1.983015
  O      0.978614   -6.700655   -0.650823
  H      0.060636   -6.518501   -0.611805
  H      1.068664   -7.500446   -2.507398
  H      0.774104   -5.990312   -2.559494
  H      2.463643   -6.499056   -2.114415

 Multiplicity           Mult            ....    1
 Number of Electrons    NEL             ....   18
 Basis Dimension        Dim             ....  172

ORBITAL ENERGIES
----------------

  NO   OCC          E(Eh)            E(eV)
   0   2.0000     -19.228288      -523.2283
   1   2.0000     -10.304209      -280.3918
   2   2.0000      -1.148336       -31.2478
   3   2.0000      -0.805229       -21.9114
   4   2.0000      -0.630114       -17.1463
   5   2.0000      -0.539028       -14.6677
   6   2.0000      -0.531820       -14.4716
   7   2.0000      -0.440216       -11.9789
   8   2.0000      -0.368553       -10.0288
   9   0.0000       0.083526         2.2729
  10   0.0000       0.126601         3.4450
  11   0.0000       0.150773         4.1027
  12   0.0000       0.180902         4.9226
  13   0.0000       0.192027         5.2253

MULLIKEN ATOMIC CHARGES
-----------------------
   0 C :   -0.001036
   1 O :    0.000449
   2 H :   -0.002201
   3 H :   -0.000223
   4 H :   -0.001191
   5 H :   -0.000227
   6 C :   -0.154462
   7 O :   -0.466771
   8 H :    0.311900
   9 H :    0.102522
  10 H :    0.090254
  11 H :    0.120987
Sum of atomic charges:   -0.0000000

LOEWDIN ATOMIC CHARGES
----------------------
   0 C :   -0.002046
   1 O :   -0.003159
   2 H :   -0.002594
   3 H :   -0.000049
   4 H :   -0.000605
   5 H :   -0.000078
   6 C :   -0.395634
   7 O :   -0.041430
   8 H :    0.157397
   9 H :    0.080778
  10 H :    0.093781
  11 H :    0.113638

  Mayer bond orders larger than 0.1
B(  6-C ,  7-O ) :   1.0002 B(  6-C ,  9-H ) :   0.9729 B(  6-C , 10-H ) :   0.9888
B(  6-C , 11-H ) :   0.9745 B(  7-O ,  8-H ) :   0.9029

Dispersion correction           -0.000216814
FINAL SINGLE POINT ENERGY      -115.725731870213

DIPOLE MOMENT
-------------
                                X             Y             Z
Electronic contribution:     -0.27394      -0.07099       1.85124
Nuclear contribution   :     -0.19179       0.20134      -2.37248
                        -----------------------------------------
Total Dipole Moment    :     -0.46573       0.13036      -0.52124
                        -----------------------------------------
Magnitude (a.u.)       :      0.71105
Magnitude (Debye)      :      1.80734

Rotational constants in cm-1:     4.570553     0.865567     0.812865
Rotational constants in MHz : 137021.717806 25949.038292 24369.073416

                             ****ORCA TERMINATED NORMALLY****
TOTAL RUN TIME: 0 days 0 hours 0 minutes 44 seconds 227 msec
