                         Program Version 4.1.2  - RELEASE  -
|  1> #Run DFT-D3 single point of the dimer
|  2> ! wB97X-D3 def2-TZVP TIGHTSCF CHELPG PMODEL PAL8
|  3>
|  4> %base "7-162_DFT_AB"
|  5>
|  6> %scf
|  7> MaxIter 1000
|  8> end
|  9>
| 10> * xyz 0 1
| 11>   C                      -8.561972            4.980688             -1.128294
| 12>   O                      -8.776555            4.446458             0.175048
| 13>   H                      -9.757550            4.274761             0.155309
| 14>   H                      -9.265407            4.589186             -1.812265
| 15>   H                      -8.549891            6.069679             -1.239806
| 16>   H                      -7.606788            4.543564             -1.492682
| 17>   C                      -10.278311           5.123183             3.627313
| 18>   O                      -9.458025            4.117887             3.175524
| 19>   H                      -8.964271            4.480110             2.399712
| 20>   H                      -9.747657            6.136612             3.746273
| 21>   H                      -11.167310           5.214118             3.055660
| 22>   H                      -10.583108           4.878955             4.604476
| 23> *
| 24>
| 25> #Run DFT-D3 single point of the molecule with dimer basis set
| 26> $new_job
| 27> %base "7-162_DFT_A"
| 28> ! wB97X-D3 def2-TZVP TIGHTSCF CHELPG PMODEL
| 29>
| 30> %scf
| 31> MaxIter 1000
| 32> end
| 33>
| 34> * xyz 0 1
| 35>   C                      -8.561972            4.980688             -1.128294
| 36>   O                      -8.776555            4.446458             0.175048
| 37>   H                      -9.757550            4.274761             0.155309
| 38>   H                      -9.265407            4.589186             -1.812265
| 39>   H                      -8.549891            6.069679             -1.239806
| 40>   H                      -7.606788            4.543564             -1.492682
| 41>   C                    : -10.278311           5.123183             3.627313
| 42>   O                    : -9.458025            4.117887             3.175524
| 43>   H                    : -8.964271            4.480110             2.399712
| 44>   H                    : -9.747657            6.136612             3.746273
| 45>   H                    : -11.167310           5.214118             3.055660
| 46>   H                    : -10.583108           4.878955             4.604476
| 47> *
| 48>
| 49> #Run DFT-D3 single point of the particle with dimer basis set
| 50> $new_job
| 51> %base "7-162_DFT_B"
| 52> ! wB97X-D3 def2-TZVP TIGHTSCF CHELPG PMODEL
| 53>
| 54> %scf
| 55> MaxIter 1000
| 56> end
| 57>
| 58> * xyz 0 1
| 59>   C                    : -8.561972            4.980688             -1.128294
| 60>   O                    : -8.776555            4.446458             0.175048
| 61>   H                    : -9.757550            4.274761             0.155309
| 62>   H                    : -9.265407            4.589186             -1.812265
| 63>   H                    : -8.549891            6.069679             -1.239806
| 64>   H                    : -7.606788            4.543564             -1.492682
| 65>   C                      -10.278311           5.123183             3.627313
| 66>   O                      -9.458025            4.117887             3.175524
| 67>   H                      -8.964271            4.480110             2.399712
| 68>   H                      -9.747657            6.136612             3.746273
| 69>   H                      -11.167310           5.214118             3.055660
| 70>   H                      -10.583108           4.878955             4.604476
| 71> *
| 72>
| 73>                          ****END OF INPUT****
 Total Charge           Charge          ....    0
 Multiplicity           Mult            ....    1
 Number of Electrons    NEL             ....   36
Dispersion correction           -0.001421092
FINAL SINGLE POINT ENERGY      -231.468202148936
Dispersion correction           -0.000243018
FINAL SINGLE POINT ENERGY      -115.730483934375

CARTESIAN COORDINATES (ANGSTROEM)
---------------------------------
  C     -8.561972    4.980688   -1.128294
  O     -8.776555    4.446458    0.175048
  H     -9.757550    4.274761    0.155309
  H     -9.265407    4.589186   -1.812265
  H     -8.549891    6.069679   -1.239806
  H     -7.606788    4.543564   -1.492682
  C    -10.278311    5.123183    3.627313
  O     -9.458025    4.117887    3.175524
  H     -8.964271    4.480110    2.399712
  H     -9.747657    6.136612    3.746273
  H    -11.167310    5.214118    3.055660
  H    -10.583108    4.878955    4.604476

 Multiplicity           Mult            ....    1
 Number of Electrons    NEL             ....   18
 Basis Dimension        Dim             ....  172

ORBITAL ENERGIES
----------------

  NO   OCC          E(Eh)            E(eV)
   0   2.0000     -19.234498      -523.3973
   1   2.0000     -10.306355      -280.4502
   2   2.0000      -1.145959       -31.1831
   3   2.0000      -0.794330       -21.6148
   4   2.0000      -0.612376       -16.6636
   5   2.0000      -0.550821       -14.9886
   6   2.0000      -0.533168       -14.5083
   7   2.0000      -0.428526       -11.6608
   8   2.0000      -0.374112       -10.1801
   9   0.0000       0.074368         2.0237
  10   0.0000       0.121071         3.2945
  11   0.0000       0.153679         4.1818
  12   0.0000       0.172608         4.6969
  13   0.0000       0.194362         5.2889

MULLIKEN ATOMIC CHARGES
-----------------------
   0 C :   -0.000382
   1 O :   -0.002745
   2 H :   -0.003296
   3 H :    0.000028
   4 H :   -0.000017
   5 H :    0.000054
   6 C :   -0.153699
   7 O :   -0.459812
   8 H :    0.318712
   9 H :    0.089471
  10 H :    0.099975
  11 H :    0.111712
Sum of atomic charges:   -0.0000000

LOEWDIN ATOMIC CHARGES
----------------------
   0 C :   -0.000646
   1 O :   -0.010855
   2 H :   -0.003827
   3 H :   -0.000015
   4 H :   -0.000019
   5 H :   -0.000019
   6 C :   -0.417707
   7 O :   -0.048518
   8 H :    0.193485
   9 H :    0.103082
  10 H :    0.086799
  11 H :    0.098240

  Mayer bond orders larger than 0.1
B(  6-C ,  7-O ) :   1.0166 B(  6-C ,  9-H ) :   0.9820 B(  6-C , 10-H ) :   0.9720
B(  6-C , 11-H ) :   0.9777 B(  7-O ,  8-H ) :   0.8954

Dispersion correction           -0.000229741
FINAL SINGLE POINT ENERGY      -115.731784441451

DIPOLE MOMENT
-------------
                                X             Y             Z
Electronic contribution:      0.98518      -1.48284      -0.55048
Nuclear contribution   :     -0.99745       2.05417       0.26688
                        -----------------------------------------
Total Dipole Moment    :     -0.01226       0.57133      -0.28360
                        -----------------------------------------
Magnitude (a.u.)       :      0.63796
Magnitude (Debye)      :      1.62157

Rotational constants in cm-1:     4.301875     0.868354     0.838951
Rotational constants in MHz : 128966.963765 26032.600583 25151.112560

                             ****ORCA TERMINATED NORMALLY****
TOTAL RUN TIME: 0 days 0 hours 1 minutes 14 seconds 279 msec
