                         Program Version 4.1.2  - RELEASE  -
|  1> #Run DFT-D3 single point of the dimer
|  2> ! wB97X-D3 def2-TZVP TIGHTSCF CHELPG PMODEL PAL8
|  3>
|  4> %base "7-65_DFT_AB"
|  5>
|  6> %scf
|  7> MaxIter 1000
|  8> end
|  9>
| 10> * xyz 0 1
| 11>   C                      -1.585404            3.392058             7.212129
| 12>   O                      -2.120105            3.744945             8.520689
| 13>   H                      -1.462705            3.477092             9.167592
| 14>   H                      -2.311762            3.531126             6.455074
| 15>   H                      -0.759444            4.075805             6.822156
| 16>   H                      -1.228848            2.336794             7.215379
| 17>   C                      -5.313664            3.647078             3.927295
| 18>   O                      -4.492355            3.867604             2.800797
| 19>   H                      -4.357079            4.800770             2.836203
| 20>   H                      -5.056100            4.335919             4.754357
| 21>   H                      -6.403548            3.853132             3.636256
| 22>   H                      -5.199479            2.610414             4.349662
| 23> *
| 24>
| 25> #Run DFT-D3 single point of the molecule with dimer basis set
| 26> $new_job
| 27> %base "7-65_DFT_A"
| 28> ! wB97X-D3 def2-TZVP TIGHTSCF CHELPG PMODEL
| 29>
| 30> %scf
| 31> MaxIter 1000
| 32> end
| 33>
| 34> * xyz 0 1
| 35>   C                      -1.585404            3.392058             7.212129
| 36>   O                      -2.120105            3.744945             8.520689
| 37>   H                      -1.462705            3.477092             9.167592
| 38>   H                      -2.311762            3.531126             6.455074
| 39>   H                      -0.759444            4.075805             6.822156
| 40>   H                      -1.228848            2.336794             7.215379
| 41>   C                    : -5.313664            3.647078             3.927295
| 42>   O                    : -4.492355            3.867604             2.800797
| 43>   H                    : -4.357079            4.800770             2.836203
| 44>   H                    : -5.056100            4.335919             4.754357
| 45>   H                    : -6.403548            3.853132             3.636256
| 46>   H                    : -5.199479            2.610414             4.349662
| 47> *
| 48>
| 49> #Run DFT-D3 single point of the particle with dimer basis set
| 50> $new_job
| 51> %base "7-65_DFT_B"
| 52> ! wB97X-D3 def2-TZVP TIGHTSCF CHELPG PMODEL
| 53>
| 54> %scf
| 55> MaxIter 1000
| 56> end
| 57>
| 58> * xyz 0 1
| 59>   C                    : -1.585404            3.392058             7.212129
| 60>   O                    : -2.120105            3.744945             8.520689
| 61>   H                    : -1.462705            3.477092             9.167592
| 62>   H                    : -2.311762            3.531126             6.455074
| 63>   H                    : -0.759444            4.075805             6.822156
| 64>   H                    : -1.228848            2.336794             7.215379
| 65>   C                      -5.313664            3.647078             3.927295
| 66>   O                      -4.492355            3.867604             2.800797
| 67>   H                      -4.357079            4.800770             2.836203
| 68>   H                      -5.056100            4.335919             4.754357
| 69>   H                      -6.403548            3.853132             3.636256
| 70>   H                      -5.199479            2.610414             4.349662
| 71> *
| 72>
| 73>                          ****END OF INPUT****
 Total Charge           Charge          ....    0
 Multiplicity           Mult            ....    1
 Number of Electrons    NEL             ....   36
Dispersion correction           -0.000888881
FINAL SINGLE POINT ENERGY      -231.464720206073
Dispersion correction           -0.000275674
FINAL SINGLE POINT ENERGY      -115.731782683248

CARTESIAN COORDINATES (ANGSTROEM)
---------------------------------
  C     -1.585404    3.392058    7.212129
  O     -2.120105    3.744945    8.520689
  H     -1.462705    3.477092    9.167592
  H     -2.311762    3.531126    6.455074
  H     -0.759444    4.075805    6.822156
  H     -1.228848    2.336794    7.215379
  C     -5.313664    3.647078    3.927295
  O     -4.492355    3.867604    2.800797
  H     -4.357079    4.800770    2.836203
  H     -5.056100    4.335919    4.754357
  H     -6.403548    3.853132    3.636256
  H     -5.199479    2.610414    4.349662

 Multiplicity           Mult            ....    1
 Number of Electrons    NEL             ....   18
 Basis Dimension        Dim             ....  172

ORBITAL ENERGIES
----------------

  NO   OCC          E(Eh)            E(eV)
   0   2.0000     -19.231338      -523.3113
   1   2.0000     -10.323833      -280.9258
   2   2.0000      -1.145791       -31.1785
   3   2.0000      -0.786430       -21.3999
   4   2.0000      -0.612825       -16.6758
   5   2.0000      -0.539648       -14.6846
   6   2.0000      -0.524264       -14.2659
   7   2.0000      -0.438356       -11.9283
   8   2.0000      -0.373189       -10.1550
   9   0.0000       0.084462         2.2983
  10   0.0000       0.113455         3.0873
  11   0.0000       0.150342         4.0910
  12   0.0000       0.168093         4.5740
  13   0.0000       0.184388         5.0174

MULLIKEN ATOMIC CHARGES
-----------------------
   0 C :   -0.000872
   1 O :    0.000034
   2 H :    0.000001
   3 H :    0.001357
   4 H :    0.000016
   5 H :    0.000016
   6 C :   -0.188734
   7 O :   -0.455619
   8 H :    0.312355
   9 H :    0.106313
  10 H :    0.104205
  11 H :    0.120927
Sum of atomic charges:   -0.0000000

LOEWDIN ATOMIC CHARGES
----------------------
   0 C :   -0.000154
   1 O :   -0.000004
   2 H :   -0.000000
   3 H :   -0.000185
   4 H :   -0.000002
   5 H :   -0.000002
   6 C :   -0.402703
   7 O :   -0.068677
   8 H :    0.162187
   9 H :    0.095409
  10 H :    0.102539
  11 H :    0.111592

  Mayer bond orders larger than 0.1
B(  6-C ,  7-O ) :   0.9982 B(  6-C ,  9-H ) :   0.9803 B(  6-C , 10-H ) :   0.9736
B(  6-C , 11-H ) :   0.9702 B(  7-O ,  8-H ) :   0.9059

Dispersion correction           -0.000235884
FINAL SINGLE POINT ENERGY      -115.732177319224

DIPOLE MOMENT
-------------
                                X             Y             Z
Electronic contribution:      1.14385       0.09206      -1.52876
Nuclear contribution   :     -1.33742       0.41785       1.99369
                        -----------------------------------------
Total Dipole Moment    :     -0.19357       0.50991       0.46494
                        -----------------------------------------
Magnitude (a.u.)       :      0.71669
Magnitude (Debye)      :      1.82168

Rotational constants in cm-1:     4.077076     0.832364     0.805971
Rotational constants in MHz : 122227.665287 24953.658935 24162.405197

                             ****ORCA TERMINATED NORMALLY****
TOTAL RUN TIME: 0 days 0 hours 1 minutes 3 seconds 319 msec
