                         Program Version 4.1.2  - RELEASE  -
|  1> #Run DFT-D3 single point of the dimer
|  2> ! wB97X-D3 def2-TZVP TIGHTSCF CHELPG PMODEL PAL8
|  3>
|  4> %base "14-175_DFT_AB"
|  5>
|  6> %scf
|  7> MaxIter 1000
|  8> end
|  9>
| 10> * xyz 0 1
| 11>   C                      3.635864             -5.556953            -2.308209
| 12>   O                      3.171473             -6.210528            -3.448860
| 13>   H                      2.824293             -5.657215            -4.153483
| 14>   H                      4.319878             -4.643788            -2.464599
| 15>   H                      2.849354             -5.168747            -1.660956
| 16>   H                      4.133987             -6.177827            -1.656869
| 17>   C                      0.056977             -5.274057            -4.767451
| 18>   O                      0.704378             -4.133532            -4.233959
| 19>   H                      1.190929             -3.653032            -4.940093
| 20>   H                      -0.758321            -5.637046            -4.177142
| 21>   H                      -0.247004            -5.116081            -5.771249
| 22>   H                      0.774531             -6.032431            -4.654513
| 23> *
| 24>
| 25> #Run DFT-D3 single point of the molecule with dimer basis set
| 26> $new_job
| 27> %base "14-175_DFT_A"
| 28> ! wB97X-D3 def2-TZVP TIGHTSCF CHELPG PMODEL
| 29>
| 30> %scf
| 31> MaxIter 1000
| 32> end
| 33>
| 34> * xyz 0 1
| 35>   C                      3.635864             -5.556953            -2.308209
| 36>   O                      3.171473             -6.210528            -3.448860
| 37>   H                      2.824293             -5.657215            -4.153483
| 38>   H                      4.319878             -4.643788            -2.464599
| 39>   H                      2.849354             -5.168747            -1.660956
| 40>   H                      4.133987             -6.177827            -1.656869
| 41>   C                    : 0.056977             -5.274057            -4.767451
| 42>   O                    : 0.704378             -4.133532            -4.233959
| 43>   H                    : 1.190929             -3.653032            -4.940093
| 44>   H                    : -0.758321            -5.637046            -4.177142
| 45>   H                    : -0.247004            -5.116081            -5.771249
| 46>   H                    : 0.774531             -6.032431            -4.654513
| 47> *
| 48>
| 49> #Run DFT-D3 single point of the particle with dimer basis set
| 50> $new_job
| 51> %base "14-175_DFT_B"
| 52> ! wB97X-D3 def2-TZVP TIGHTSCF CHELPG PMODEL
| 53>
| 54> %scf
| 55> MaxIter 1000
| 56> end
| 57>
| 58> * xyz 0 1
| 59>   C                    : 3.635864             -5.556953            -2.308209
| 60>   O                    : 3.171473             -6.210528            -3.448860
| 61>   H                    : 2.824293             -5.657215            -4.153483
| 62>   H                    : 4.319878             -4.643788            -2.464599
| 63>   H                    : 2.849354             -5.168747            -1.660956
| 64>   H                    : 4.133987             -6.177827            -1.656869
| 65>   C                      0.056977             -5.274057            -4.767451
| 66>   O                      0.704378             -4.133532            -4.233959
| 67>   H                      1.190929             -3.653032            -4.940093
| 68>   H                      -0.758321            -5.637046            -4.177142
| 69>   H                      -0.247004            -5.116081            -5.771249
| 70>   H                      0.774531             -6.032431            -4.654513
| 71> *
| 72>
| 73>                          ****END OF INPUT****
 Total Charge           Charge          ....    0
 Multiplicity           Mult            ....    1
 Number of Electrons    NEL             ....   36
Dispersion correction           -0.001934813
FINAL SINGLE POINT ENERGY      -231.459811313060
Dispersion correction           -0.000281365
FINAL SINGLE POINT ENERGY      -115.728712914890

CARTESIAN COORDINATES (ANGSTROEM)
---------------------------------
  C      3.635864   -5.556953   -2.308209
  O      3.171473   -6.210528   -3.448860
  H      2.824293   -5.657215   -4.153483
  H      4.319878   -4.643788   -2.464599
  H      2.849354   -5.168747   -1.660956
  H      4.133987   -6.177827   -1.656869
  C      0.056977   -5.274057   -4.767451
  O      0.704378   -4.133532   -4.233959
  H      1.190929   -3.653032   -4.940093
  H     -0.758321   -5.637046   -4.177142
  H     -0.247004   -5.116081   -5.771249
  H      0.774531   -6.032431   -4.654513

 Multiplicity           Mult            ....    1
 Number of Electrons    NEL             ....   18
 Basis Dimension        Dim             ....  172

ORBITAL ENERGIES
----------------

  NO   OCC          E(Eh)            E(eV)
   0   2.0000     -19.227135      -523.1969
   1   2.0000     -10.301489      -280.3178
   2   2.0000      -1.128285       -30.7022
   3   2.0000      -0.801775       -21.8174
   4   2.0000      -0.607053       -16.5187
   5   2.0000      -0.548510       -14.9257
   6   2.0000      -0.535035       -14.5590
   7   2.0000      -0.430289       -11.7088
   8   2.0000      -0.367745       -10.0068
   9   0.0000       0.091255         2.4832
  10   0.0000       0.124208         3.3799
  11   0.0000       0.154150         4.1946
  12   0.0000       0.177387         4.8270
  13   0.0000       0.198886         5.4120

MULLIKEN ATOMIC CHARGES
-----------------------
   0 C :    0.001429
   1 O :    0.001774
   2 H :   -0.007012
   3 H :   -0.000250
   4 H :   -0.002201
   5 H :   -0.000269
   6 C :   -0.149742
   7 O :   -0.486810
   8 H :    0.318380
   9 H :    0.116531
  10 H :    0.106509
  11 H :    0.101661
Sum of atomic charges:   -0.0000000

LOEWDIN ATOMIC CHARGES
----------------------
   0 C :   -0.003443
   1 O :   -0.002878
   2 H :   -0.010046
   3 H :   -0.000128
   4 H :   -0.001037
   5 H :   -0.000058
   6 C :   -0.366127
   7 O :   -0.084871
   8 H :    0.182252
   9 H :    0.103523
  10 H :    0.091227
  11 H :    0.091585

  Mayer bond orders larger than 0.1
B(  6-C ,  7-O ) :   0.9960 B(  6-C ,  9-H ) :   0.9744 B(  6-C , 10-H ) :   0.9844
B(  6-C , 11-H ) :   0.9895 B(  7-O ,  8-H ) :   0.8931

Dispersion correction           -0.000224532
FINAL SINGLE POINT ENERGY      -115.729131958316

DIPOLE MOMENT
-------------
                                X             Y             Z
Electronic contribution:      0.63293       1.42019       0.71102
Nuclear contribution   :     -0.60812      -1.58961      -1.38355
                        -----------------------------------------
Total Dipole Moment    :      0.02481      -0.16942      -0.67253
                        -----------------------------------------
Magnitude (a.u.)       :      0.69398
Magnitude (Debye)      :      1.76397

Rotational constants in cm-1:     4.496902     0.838699     0.803375
Rotational constants in MHz : 134813.716088 25143.555465 24084.567175

                             ****ORCA TERMINATED NORMALLY****
TOTAL RUN TIME: 0 days 0 hours 1 minutes 3 seconds 951 msec
