                         Program Version 4.1.2  - RELEASE  -
|  1> #Run DFT-D3 single point of the dimer
|  2> ! wB97X-D3 def2-TZVP TIGHTSCF  CHELPG PAL8
|  3>
|  4> %base "198_charges"
|  5>
|  6> %scf
|  7> MaxIter 1000
|  8> end
|  9> %output
| 10>   Print[ P_Mayer ] 1
| 11>   Print[ P_NatPop ] 1
| 12>   Print[ P_Hirshfeld ] 1
| 13>   Print[ P_Mulliken ] 1
| 14>   Print [ P_Loewdin ] 1
| 15> end
| 16>
| 17> * xyz 0 1
| 18>   C                      -2.162940            5.925477             -11.747272
| 19>   O                      -2.917976            6.879984             -12.351883
| 20>   H                      -2.493861            7.730069             -12.059770
| 21>   H                      -2.390660            5.898216             -10.696975
| 22>   H                      -2.402999            4.987030             -12.186739
| 23>   H                      -1.107598            6.173746             -11.939831
| 24> *
| 25>
| 26>                          ****END OF INPUT****

CARTESIAN COORDINATES (ANGSTROEM)
---------------------------------
  C     -2.162940    5.925477  -11.747272
  O     -2.917976    6.879984  -12.351883
  H     -2.493861    7.730069  -12.059770
  H     -2.390660    5.898216  -10.696975
  H     -2.402999    4.987030  -12.186739
  H     -1.107598    6.173746  -11.939831

 Total Charge           Charge          ....    0
 Multiplicity           Mult            ....    1
 Number of Electrons    NEL             ....   18
 Basis Dimension        Dim             ....   86

ORBITAL ENERGIES
----------------

  NO   OCC          E(Eh)            E(eV)
   0   2.0000     -19.228985      -523.2473
   1   2.0000     -10.302457      -280.3441
   2   2.0000      -1.150649       -31.3107
   3   2.0000      -0.788166       -21.4471
   4   2.0000      -0.614745       -16.7281
   5   2.0000      -0.556119       -15.1328
   6   2.0000      -0.534489       -14.5442
   7   2.0000      -0.431223       -11.7342
   8   2.0000      -0.367718       -10.0061
   9   0.0000       0.108942         2.9645
  10   0.0000       0.164146         4.4666
  11   0.0000       0.202768         5.5176
  12   0.0000       0.209953         5.7131
  13   0.0000       0.226036         6.1508

MULLIKEN ATOMIC CHARGES
-----------------------
   0 C :   -0.149896
   1 O :   -0.462802
   2 H :    0.316750
   3 H :    0.094423
   4 H :    0.109703
   5 H :    0.091822
Sum of atomic charges:   -0.0000000

LOEWDIN ATOMIC CHARGES
----------------------
   0 C :   -0.426160
   1 O :   -0.054256
   2 H :    0.194872
   3 H :    0.089061
   4 H :    0.100806
   5 H :    0.095678

  Mayer bond orders larger than 0.1
B(  0-C ,  1-O ) :   1.0018 B(  0-C ,  3-H ) :   0.9776 B(  0-C ,  4-H ) :   0.9743
B(  0-C ,  5-H ) :   0.9908 B(  1-O ,  2-H ) :   0.8957

Dispersion correction           -0.000186507
FINAL SINGLE POINT ENERGY      -115.730086691837

DIPOLE MOMENT
-------------
                                X             Y             Z
Electronic contribution:     -1.09737       1.05793      -0.83164
Nuclear contribution   :      1.61954      -0.89037       1.21513
                        -----------------------------------------
Total Dipole Moment    :      0.52216       0.16755       0.38349
                        -----------------------------------------
Magnitude (a.u.)       :      0.66917
Magnitude (Debye)      :      1.70090

Rotational constants in cm-1:     4.172751     0.907679     0.870655
Rotational constants in MHz : 125095.942468 27211.543818 26101.584195

                             ****ORCA TERMINATED NORMALLY****
TOTAL RUN TIME: 0 days 0 hours 0 minutes 42 seconds 137 msec
