                         Program Version 4.1.2  - RELEASE  -
|  1> #Run DFT-D3 single point of the dimer
|  2> ! wB97X-D3 def2-TZVP TIGHTSCF CHELPG PMODEL PAL8
|  3>
|  4> %base "13-185_DFT_AB"
|  5>
|  6> %scf
|  7> MaxIter 1000
|  8> end
|  9>
| 10> * xyz 0 1
| 11>   C                      2.701878             9.705959             5.380964
| 12>   O                      1.464070             9.997816             5.992280
| 13>   H                      1.000192             9.224758             6.311026
| 14>   H                      3.526265             9.544627             6.159898
| 15>   H                      2.591694             8.808226             4.797396
| 16>   H                      3.152210             10.482703            4.708439
| 17>   C                      0.335127             6.368528             7.383852
| 18>   O                      0.494388             7.192351             6.270742
| 19>   H                      0.338019             6.570554             5.491384
| 20>   H                      -0.092078            6.845019             8.282586
| 21>   H                      -0.326130            5.576746             7.050708
| 22>   H                      1.301061             6.010898             7.747708
| 23> *
| 24>
| 25> #Run DFT-D3 single point of the molecule with dimer basis set
| 26> $new_job
| 27> %base "13-185_DFT_A"
| 28> ! wB97X-D3 def2-TZVP TIGHTSCF CHELPG PMODEL
| 29>
| 30> %scf
| 31> MaxIter 1000
| 32> end
| 33>
| 34> * xyz 0 1
| 35>   C                      2.701878             9.705959             5.380964
| 36>   O                      1.464070             9.997816             5.992280
| 37>   H                      1.000192             9.224758             6.311026
| 38>   H                      3.526265             9.544627             6.159898
| 39>   H                      2.591694             8.808226             4.797396
| 40>   H                      3.152210             10.482703            4.708439
| 41>   C                    : 0.335127             6.368528             7.383852
| 42>   O                    : 0.494388             7.192351             6.270742
| 43>   H                    : 0.338019             6.570554             5.491384
| 44>   H                    : -0.092078            6.845019             8.282586
| 45>   H                    : -0.326130            5.576746             7.050708
| 46>   H                    : 1.301061             6.010898             7.747708
| 47> *
| 48>
| 49> #Run DFT-D3 single point of the particle with dimer basis set
| 50> $new_job
| 51> %base "13-185_DFT_B"
| 52> ! wB97X-D3 def2-TZVP TIGHTSCF CHELPG PMODEL
| 53>
| 54> %scf
| 55> MaxIter 1000
| 56> end
| 57>
| 58> * xyz 0 1
| 59>   C                    : 2.701878             9.705959             5.380964
| 60>   O                    : 1.464070             9.997816             5.992280
| 61>   H                    : 1.000192             9.224758             6.311026
| 62>   H                    : 3.526265             9.544627             6.159898
| 63>   H                    : 2.591694             8.808226             4.797396
| 64>   H                    : 3.152210             10.482703            4.708439
| 65>   C                      0.335127             6.368528             7.383852
| 66>   O                      0.494388             7.192351             6.270742
| 67>   H                      0.338019             6.570554             5.491384
| 68>   H                      -0.092078            6.845019             8.282586
| 69>   H                      -0.326130            5.576746             7.050708
| 70>   H                      1.301061             6.010898             7.747708
| 71> *
| 72>
| 73>                          ****END OF INPUT****
 Total Charge           Charge          ....    0
 Multiplicity           Mult            ....    1
 Number of Electrons    NEL             ....   36
Dispersion correction           -0.001712249
FINAL SINGLE POINT ENERGY      -231.466526545481
Dispersion correction           -0.000263899
FINAL SINGLE POINT ENERGY      -115.730407119091

CARTESIAN COORDINATES (ANGSTROEM)
---------------------------------
  C      2.701878    9.705959    5.380964
  O      1.464070    9.997816    5.992280
  H      1.000192    9.224758    6.311026
  H      3.526265    9.544627    6.159898
  H      2.591694    8.808226    4.797396
  H      3.152210   10.482703    4.708439
  C      0.335127    6.368528    7.383852
  O      0.494388    7.192351    6.270742
  H      0.338019    6.570554    5.491384
  H     -0.092078    6.845019    8.282586
  H     -0.326130    5.576746    7.050708
  H      1.301061    6.010898    7.747708

 Multiplicity           Mult            ....    1
 Number of Electrons    NEL             ....   18
 Basis Dimension        Dim             ....  172

ORBITAL ENERGIES
----------------

  NO   OCC          E(Eh)            E(eV)
   0   2.0000     -19.234771      -523.4047
   1   2.0000     -10.311359      -280.5864
   2   2.0000      -1.137934       -30.9648
   3   2.0000      -0.787892       -21.4396
   4   2.0000      -0.609000       -16.5717
   5   2.0000      -0.547984       -14.9114
   6   2.0000      -0.532866       -14.5000
   7   2.0000      -0.429695       -11.6926
   8   2.0000      -0.370138       -10.0720
   9   0.0000       0.094556         2.5730
  10   0.0000       0.119247         3.2449
  11   0.0000       0.152693         4.1550
  12   0.0000       0.187151         5.0926
  13   0.0000       0.198260         5.3949

MULLIKEN ATOMIC CHARGES
-----------------------
   0 C :    0.003902
   1 O :    0.001573
   2 H :   -0.010210
   3 H :   -0.000704
   4 H :   -0.006379
   5 H :   -0.000342
   6 C :   -0.153583
   7 O :   -0.453286
   8 H :    0.318350
   9 H :    0.111028
  10 H :    0.096983
  11 H :    0.092667
Sum of atomic charges:   -0.0000000

LOEWDIN ATOMIC CHARGES
----------------------
   0 C :   -0.005908
   1 O :   -0.003655
   2 H :   -0.028571
   3 H :   -0.000170
   4 H :   -0.003133
   5 H :   -0.000075
   6 C :   -0.404154
   7 O :   -0.052280
   8 H :    0.203177
   9 H :    0.104981
  10 H :    0.096832
  11 H :    0.092956

  Mayer bond orders larger than 0.1
B(  6-C ,  7-O ) :   1.0067 B(  6-C ,  9-H ) :   0.9750 B(  6-C , 10-H ) :   0.9907
B(  6-C , 11-H ) :   0.9745 B(  7-O ,  8-H ) :   0.8924

Dispersion correction           -0.000225266
FINAL SINGLE POINT ENERGY      -115.728504716989

DIPOLE MOMENT
-------------
                                X             Y             Z
Electronic contribution:      0.21680       1.22106      -1.34058
Nuclear contribution   :     -0.39530      -1.92353       1.28813
                        -----------------------------------------
Total Dipole Moment    :     -0.17850      -0.70247      -0.05245
                        -----------------------------------------
Magnitude (a.u.)       :      0.72669
Magnitude (Debye)      :      1.84710

Rotational constants in cm-1:     4.207665     0.857880     0.818657
Rotational constants in MHz : 126142.630759 25718.601015 24542.727690

                             ****ORCA TERMINATED NORMALLY****
TOTAL RUN TIME: 0 days 0 hours 1 minutes 10 seconds 821 msec
