                         Program Version 4.1.2  - RELEASE  -
|  1> #Run DFT-D3 single point of the dimer
|  2> ! wB97X-D3 def2-TZVP TIGHTSCF CHELPG PMODEL PAL8
|  3>
|  4> %base "15-2_DFT_AB"
|  5>
|  6> %scf
|  7> MaxIter 1000
|  8> end
|  9>
| 10> * xyz 0 1
| 11>   C                      -6.481891            -7.877271            7.250222
| 12>   O                      -6.198547            -6.565036            6.837370
| 13>   H                      -6.806889            -6.005382            7.336781
| 14>   H                      -7.552956            -8.073217            7.112625
| 15>   H                      -5.784904            -8.580147            6.772301
| 16>   H                      -6.373916            -7.930089            8.316778
| 17>   C                      -5.946883            -9.520934            1.759639
| 18>   O                      -6.152325            -8.209981            1.137781
| 19>   H                      -5.894557            -8.237036            0.209221
| 20>   H                      -6.016455            -9.419049            2.892615
| 21>   H                      -6.762526            -10.186639           1.465938
| 22>   H                      -4.976280            -9.949934            1.473576
| 23> *
| 24>
| 25> #Run DFT-D3 single point of the molecule with dimer basis set
| 26> $new_job
| 27> %base "15-2_DFT_A"
| 28> ! wB97X-D3 def2-TZVP TIGHTSCF CHELPG PMODEL
| 29>
| 30> %scf
| 31> MaxIter 1000
| 32> end
| 33>
| 34> * xyz 0 1
| 35>   C                      -6.481891            -7.877271            7.250222
| 36>   O                      -6.198547            -6.565036            6.837370
| 37>   H                      -6.806889            -6.005382            7.336781
| 38>   H                      -7.552956            -8.073217            7.112625
| 39>   H                      -5.784904            -8.580147            6.772301
| 40>   H                      -6.373916            -7.930089            8.316778
| 41>   C                    : -5.946883            -9.520934            1.759639
| 42>   O                    : -6.152325            -8.209981            1.137781
| 43>   H                    : -5.894557            -8.237036            0.209221
| 44>   H                    : -6.016455            -9.419049            2.892615
| 45>   H                    : -6.762526            -10.186639           1.465938
| 46>   H                    : -4.976280            -9.949934            1.473576
| 47> *
| 48>
| 49> #Run DFT-D3 single point of the particle with dimer basis set
| 50> $new_job
| 51> %base "15-2_DFT_B"
| 52> ! wB97X-D3 def2-TZVP TIGHTSCF CHELPG PMODEL
| 53>
| 54> %scf
| 55> MaxIter 1000
| 56> end
| 57>
| 58> * xyz 0 1
| 59>   C                    : -6.481891            -7.877271            7.250222
| 60>   O                    : -6.198547            -6.565036            6.837370
| 61>   H                    : -6.806889            -6.005382            7.336781
| 62>   H                    : -7.552956            -8.073217            7.112625
| 63>   H                    : -5.784904            -8.580147            6.772301
| 64>   H                    : -6.373916            -7.930089            8.316778
| 65>   C                      -5.946883            -9.520934            1.759639
| 66>   O                      -6.152325            -8.209981            1.137781
| 67>   H                      -5.894557            -8.237036            0.209221
| 68>   H                      -6.016455            -9.419049            2.892615
| 69>   H                      -6.762526            -10.186639           1.465938
| 70>   H                      -4.976280            -9.949934            1.473576
| 71> *
| 72>
| 73>                          ****END OF INPUT****
 Total Charge           Charge          ....    0
 Multiplicity           Mult            ....    1
 Number of Electrons    NEL             ....   36
Dispersion correction           -0.000627244
FINAL SINGLE POINT ENERGY      -231.466179287082
Dispersion correction           -0.000206335
FINAL SINGLE POINT ENERGY      -115.733050975682

CARTESIAN COORDINATES (ANGSTROEM)
---------------------------------
  C     -6.481891   -7.877271    7.250222
  O     -6.198547   -6.565036    6.837370
  H     -6.806889   -6.005382    7.336781
  H     -7.552956   -8.073217    7.112625
  H     -5.784904   -8.580147    6.772301
  H     -6.373916   -7.930089    8.316778
  C     -5.946883   -9.520934    1.759639
  O     -6.152325   -8.209981    1.137781
  H     -5.894557   -8.237036    0.209221
  H     -6.016455   -9.419049    2.892615
  H     -6.762526  -10.186639    1.465938
  H     -4.976280   -9.949934    1.473576

 Multiplicity           Mult            ....    1
 Number of Electrons    NEL             ....   18
 Basis Dimension        Dim             ....  172

ORBITAL ENERGIES
----------------

  NO   OCC          E(Eh)            E(eV)
   0   2.0000     -19.227773      -523.2143
   1   2.0000     -10.323489      -280.9164
   2   2.0000      -1.117973       -30.4216
   3   2.0000      -0.793382       -21.5890
   4   2.0000      -0.599288       -16.3074
   5   2.0000      -0.537791       -14.6340
   6   2.0000      -0.517695       -14.0872
   7   2.0000      -0.431801       -11.7499
   8   2.0000      -0.373855       -10.1731
   9   0.0000       0.087154         2.3716
  10   0.0000       0.115395         3.1401
  11   0.0000       0.143297         3.8993
  12   0.0000       0.168789         4.5930
  13   0.0000       0.182950         4.9783

MULLIKEN ATOMIC CHARGES
-----------------------
   0 C :    0.000029
   1 O :   -0.000003
   2 H :   -0.000000
   3 H :   -0.000009
   4 H :   -0.000081
   5 H :   -0.000002
   6 C :   -0.171251
   7 O :   -0.490649
   8 H :    0.313742
   9 H :    0.124801
  10 H :    0.113600
  11 H :    0.109822
Sum of atomic charges:    0.0000000

LOEWDIN ATOMIC CHARGES
----------------------
   0 C :   -0.000055
   1 O :   -0.000001
   2 H :   -0.000000
   3 H :   -0.000003
   4 H :   -0.000062
   5 H :   -0.000000
   6 C :   -0.353684
   7 O :   -0.120475
   8 H :    0.164550
   9 H :    0.117969
  10 H :    0.095596
  11 H :    0.096165

  Mayer bond orders larger than 0.1
B(  6-C ,  7-O ) :   0.9879 B(  6-C ,  9-H ) :   0.9713 B(  6-C , 10-H ) :   0.9738
B(  6-C , 11-H ) :   0.9740 B(  7-O ,  8-H ) :   0.8990

Dispersion correction           -0.000269972
FINAL SINGLE POINT ENERGY      -115.733419733936

DIPOLE MOMENT
-------------
                                X             Y             Z
Electronic contribution:     -0.24385       1.62529      -0.66912
Nuclear contribution   :      0.49631      -2.20814       0.34325
                        -----------------------------------------
Total Dipole Moment    :      0.25246      -0.58285      -0.32587
                        -----------------------------------------
Magnitude (a.u.)       :      0.71389
Magnitude (Debye)      :      1.81457

Rotational constants in cm-1:     4.175159     0.781361     0.752557
Rotational constants in MHz : 125168.121271 23424.621881 22561.089014

                             ****ORCA TERMINATED NORMALLY****
TOTAL RUN TIME: 0 days 0 hours 0 minutes 54 seconds 976 msec
