                         Program Version 4.1.2  - RELEASE  -
|  1> #Run DFT-D3 single point of the dimer
|  2> ! wB97X-D3 def2-TZVP TIGHTSCF CHELPG PMODEL PAL8
|  3>
|  4> %base "6-93_DFT_AB"
|  5>
|  6> %scf
|  7> MaxIter 1000
|  8> end
|  9>
| 10> * xyz 0 1
| 11>   C                      6.664978             3.067073             1.226311
| 12>   O                      8.059023             2.989451             1.564592
| 13>   H                      8.160365             2.945944             2.478638
| 14>   H                      6.091341             2.145018             1.217380
| 15>   H                      6.072127             3.731938             1.852075
| 16>   H                      6.459341             3.559162             0.310594
| 17>   C                      7.901909             0.421615             -1.397861
| 18>   O                      8.388678             -0.903477            -1.645681
| 19>   H                      8.347794             -1.011711            -2.624478
| 20>   H                      6.789285             0.488096             -1.529645
| 21>   H                      8.017625             0.587816             -0.284820
| 22>   H                      8.198702             1.272218             -2.006417
| 23> *
| 24>
| 25> #Run DFT-D3 single point of the molecule with dimer basis set
| 26> $new_job
| 27> %base "6-93_DFT_A"
| 28> ! wB97X-D3 def2-TZVP TIGHTSCF CHELPG PMODEL
| 29>
| 30> %scf
| 31> MaxIter 1000
| 32> end
| 33>
| 34> * xyz 0 1
| 35>   C                      6.664978             3.067073             1.226311
| 36>   O                      8.059023             2.989451             1.564592
| 37>   H                      8.160365             2.945944             2.478638
| 38>   H                      6.091341             2.145018             1.217380
| 39>   H                      6.072127             3.731938             1.852075
| 40>   H                      6.459341             3.559162             0.310594
| 41>   C                    : 7.901909             0.421615             -1.397861
| 42>   O                    : 8.388678             -0.903477            -1.645681
| 43>   H                    : 8.347794             -1.011711            -2.624478
| 44>   H                    : 6.789285             0.488096             -1.529645
| 45>   H                    : 8.017625             0.587816             -0.284820
| 46>   H                    : 8.198702             1.272218             -2.006417
| 47> *
| 48>
| 49> #Run DFT-D3 single point of the particle with dimer basis set
| 50> $new_job
| 51> %base "6-93_DFT_B"
| 52> ! wB97X-D3 def2-TZVP TIGHTSCF CHELPG PMODEL
| 53>
| 54> %scf
| 55> MaxIter 1000
| 56> end
| 57>
| 58> * xyz 0 1
| 59>   C                    : 6.664978             3.067073             1.226311
| 60>   O                    : 8.059023             2.989451             1.564592
| 61>   H                    : 8.160365             2.945944             2.478638
| 62>   H                    : 6.091341             2.145018             1.217380
| 63>   H                    : 6.072127             3.731938             1.852075
| 64>   H                    : 6.459341             3.559162             0.310594
| 65>   C                      7.901909             0.421615             -1.397861
| 66>   O                      8.388678             -0.903477            -1.645681
| 67>   H                      8.347794             -1.011711            -2.624478
| 68>   H                      6.789285             0.488096             -1.529645
| 69>   H                      8.017625             0.587816             -0.284820
| 70>   H                      8.198702             1.272218             -2.006417
| 71> *
| 72>
| 73>                          ****END OF INPUT****
 Total Charge           Charge          ....    0
 Multiplicity           Mult            ....    1
 Number of Electrons    NEL             ....   36
Dispersion correction           -0.001635818
FINAL SINGLE POINT ENERGY      -231.457790376862
Dispersion correction           -0.000278732
FINAL SINGLE POINT ENERGY      -115.727988477810

CARTESIAN COORDINATES (ANGSTROEM)
---------------------------------
  C      6.664978    3.067073    1.226311
  O      8.059023    2.989451    1.564592
  H      8.160365    2.945944    2.478638
  H      6.091341    2.145018    1.217380
  H      6.072127    3.731938    1.852075
  H      6.459341    3.559162    0.310594
  C      7.901909    0.421615   -1.397861
  O      8.388678   -0.903477   -1.645681
  H      8.347794   -1.011711   -2.624478
  H      6.789285    0.488096   -1.529645
  H      8.017625    0.587816   -0.284820
  H      8.198702    1.272218   -2.006417

 Multiplicity           Mult            ....    1
 Number of Electrons    NEL             ....   18
 Basis Dimension        Dim             ....  172

ORBITAL ENERGIES
----------------

  NO   OCC          E(Eh)            E(eV)
   0   2.0000     -19.239549      -523.5347
   1   2.0000     -10.320336      -280.8306
   2   2.0000      -1.130468       -30.7616
   3   2.0000      -0.791296       -21.5323
   4   2.0000      -0.613751       -16.7010
   5   2.0000      -0.525277       -14.2935
   6   2.0000      -0.516230       -14.0473
   7   2.0000      -0.446756       -12.1568
   8   2.0000      -0.371749       -10.1158
   9   0.0000       0.081059         2.2057
  10   0.0000       0.112511         3.0616
  11   0.0000       0.146120         3.9761
  12   0.0000       0.161146         4.3850
  13   0.0000       0.183810         5.0017

MULLIKEN ATOMIC CHARGES
-----------------------
   0 C :    0.000544
   1 O :   -0.000097
   2 H :   -0.000050
   3 H :   -0.001050
   4 H :    0.000004
   5 H :    0.000007
   6 C :   -0.193239
   7 O :   -0.459465
   8 H :    0.313162
   9 H :    0.100211
  10 H :    0.125806
  11 H :    0.114168
Sum of atomic charges:    0.0000000

LOEWDIN ATOMIC CHARGES
----------------------
   0 C :   -0.003577
   1 O :   -0.000868
   2 H :   -0.000095
   3 H :   -0.000999
   4 H :   -0.000028
   5 H :   -0.000144
   6 C :   -0.395542
   7 O :   -0.094017
   8 H :    0.183449
   9 H :    0.097826
  10 H :    0.120051
  11 H :    0.093945

  Mayer bond orders larger than 0.1
B(  6-C ,  7-O ) :   1.0116 B(  6-C ,  9-H ) :   0.9730 B(  6-C , 10-H ) :   0.9764
B(  6-C , 11-H ) :   0.9591 B(  7-O ,  8-H ) :   0.8985

Dispersion correction           -0.000274097
FINAL SINGLE POINT ENERGY      -115.728380598408

DIPOLE MOMENT
-------------
                                X             Y             Z
Electronic contribution:      0.89586      -1.74242      -0.28179
Nuclear contribution   :     -1.11687       2.18620      -0.23739
                        -----------------------------------------
Total Dipole Moment    :     -0.22102       0.44378      -0.51918
                        -----------------------------------------
Magnitude (a.u.)       :      0.71787
Magnitude (Debye)      :      1.82469

Rotational constants in cm-1:     4.229235     0.809252     0.766146
Rotational constants in MHz : 126789.286649 24260.768713 22968.464863

                             ****ORCA TERMINATED NORMALLY****
TOTAL RUN TIME: 0 days 0 hours 0 minutes 45 seconds 390 msec
