                         Program Version 4.1.2  - RELEASE  -
|  1> #Run DFT-D3 single point of the dimer
|  2> ! wB97X-D3 def2-TZVP TIGHTSCF CHELPG PMODEL PAL8
|  3>
|  4> %base "13-162_DFT_AB"
|  5>
|  6> %scf
|  7> MaxIter 1000
|  8> end
|  9>
| 10> * xyz 0 1
| 11>   C                      6.086307             -8.339000            -1.950974
| 12>   O                      7.119211             -9.239033            -2.344616
| 13>   H                      7.924299             -8.996173            -1.920066
| 14>   H                      5.204355             -8.539009            -2.582275
| 15>   H                      5.796177             -8.560167            -0.931467
| 16>   H                      6.260960             -7.216122            -2.022520
| 17>   C                      9.283858             -5.757747            -3.139384
| 18>   O                      8.225100             -5.557403            -2.232636
| 19>   H                      8.318811             -6.113100            -1.439715
| 20>   H                      9.115013             -6.384700            -4.047864
| 21>   H                      9.702666             -4.787642            -3.524133
| 22>   H                      10.146788            -6.180911            -2.638393
| 23> *
| 24>
| 25> #Run DFT-D3 single point of the molecule with dimer basis set
| 26> $new_job
| 27> %base "13-162_DFT_A"
| 28> ! wB97X-D3 def2-TZVP TIGHTSCF CHELPG PMODEL
| 29>
| 30> %scf
| 31> MaxIter 1000
| 32> end
| 33>
| 34> * xyz 0 1
| 35>   C                      6.086307             -8.339000            -1.950974
| 36>   O                      7.119211             -9.239033            -2.344616
| 37>   H                      7.924299             -8.996173            -1.920066
| 38>   H                      5.204355             -8.539009            -2.582275
| 39>   H                      5.796177             -8.560167            -0.931467
| 40>   H                      6.260960             -7.216122            -2.022520
| 41>   C                    : 9.283858             -5.757747            -3.139384
| 42>   O                    : 8.225100             -5.557403            -2.232636
| 43>   H                    : 8.318811             -6.113100            -1.439715
| 44>   H                    : 9.115013             -6.384700            -4.047864
| 45>   H                    : 9.702666             -4.787642            -3.524133
| 46>   H                    : 10.146788            -6.180911            -2.638393
| 47> *
| 48>
| 49> #Run DFT-D3 single point of the particle with dimer basis set
| 50> $new_job
| 51> %base "13-162_DFT_B"
| 52> ! wB97X-D3 def2-TZVP TIGHTSCF CHELPG PMODEL
| 53>
| 54> %scf
| 55> MaxIter 1000
| 56> end
| 57>
| 58> * xyz 0 1
| 59>   C                    : 6.086307             -8.339000            -1.950974
| 60>   O                    : 7.119211             -9.239033            -2.344616
| 61>   H                    : 7.924299             -8.996173            -1.920066
| 62>   H                    : 5.204355             -8.539009            -2.582275
| 63>   H                    : 5.796177             -8.560167            -0.931467
| 64>   H                    : 6.260960             -7.216122            -2.022520
| 65>   C                      9.283858             -5.757747            -3.139384
| 66>   O                      8.225100             -5.557403            -2.232636
| 67>   H                      8.318811             -6.113100            -1.439715
| 68>   H                      9.115013             -6.384700            -4.047864
| 69>   H                      9.702666             -4.787642            -3.524133
| 70>   H                      10.146788            -6.180911            -2.638393
| 71> *
| 72>
| 73>                          ****END OF INPUT****
 Total Charge           Charge          ....    0
 Multiplicity           Mult            ....    1
 Number of Electrons    NEL             ....   36
Dispersion correction           -0.001900409
FINAL SINGLE POINT ENERGY      -231.466323523135
Dispersion correction           -0.000269809
FINAL SINGLE POINT ENERGY      -115.734080756992

CARTESIAN COORDINATES (ANGSTROEM)
---------------------------------
  C      6.086307   -8.339000   -1.950974
  O      7.119211   -9.239033   -2.344616
  H      7.924299   -8.996173   -1.920066
  H      5.204355   -8.539009   -2.582275
  H      5.796177   -8.560167   -0.931467
  H      6.260960   -7.216122   -2.022520
  C      9.283858   -5.757747   -3.139384
  O      8.225100   -5.557403   -2.232636
  H      8.318811   -6.113100   -1.439715
  H      9.115013   -6.384700   -4.047864
  H      9.702666   -4.787642   -3.524133
  H     10.146788   -6.180911   -2.638393

 Multiplicity           Mult            ....    1
 Number of Electrons    NEL             ....   18
 Basis Dimension        Dim             ....  172

ORBITAL ENERGIES
----------------

  NO   OCC          E(Eh)            E(eV)
   0   2.0000     -19.236158      -523.4425
   1   2.0000     -10.318082      -280.7693
   2   2.0000      -1.136302       -30.9204
   3   2.0000      -0.795219       -21.6390
   4   2.0000      -0.617241       -16.7960
   5   2.0000      -0.536934       -14.6107
   6   2.0000      -0.526882       -14.3372
   7   2.0000      -0.425370       -11.5749
   8   2.0000      -0.376513       -10.2454
   9   0.0000       0.080508         2.1907
  10   0.0000       0.128723         3.5027
  11   0.0000       0.143514         3.9052
  12   0.0000       0.172564         4.6957
  13   0.0000       0.189695         5.1619

MULLIKEN ATOMIC CHARGES
-----------------------
   0 C :   -0.002500
   1 O :    0.000590
   2 H :   -0.000889
   3 H :   -0.000439
   4 H :    0.000457
   5 H :   -0.009493
   6 C :   -0.166423
   7 O :   -0.468631
   8 H :    0.326743
   9 H :    0.106138
  10 H :    0.109281
  11 H :    0.105167
Sum of atomic charges:    0.0000000

LOEWDIN ATOMIC CHARGES
----------------------
   0 C :   -0.006379
   1 O :   -0.000203
   2 H :   -0.000984
   3 H :   -0.000080
   4 H :   -0.000065
   5 H :   -0.011587
   6 C :   -0.401972
   7 O :   -0.062387
   8 H :    0.180437
   9 H :    0.100161
  10 H :    0.108999
  11 H :    0.094058

  Mayer bond orders larger than 0.1
B(  6-C ,  7-O ) :   1.0130 B(  6-C ,  9-H ) :   0.9673 B(  6-C , 10-H ) :   0.9746
B(  6-C , 11-H ) :   0.9856 B(  7-O ,  8-H ) :   0.8889

Dispersion correction           -0.000272735
FINAL SINGLE POINT ENERGY      -115.731936583404

DIPOLE MOMENT
-------------
                                X             Y             Z
Electronic contribution:     -1.57687       0.30215       1.13263
Nuclear contribution   :      2.09722      -0.73077      -0.94855
                        -----------------------------------------
Total Dipole Moment    :      0.52035      -0.42862       0.18408
                        -----------------------------------------
Magnitude (a.u.)       :      0.69882
Magnitude (Debye)      :      1.77627

Rotational constants in cm-1:     4.417204     0.811957     0.789503
Rotational constants in MHz : 132424.435284 24341.861767 23668.704571

                             ****ORCA TERMINATED NORMALLY****
TOTAL RUN TIME: 0 days 0 hours 1 minutes 10 seconds 985 msec
