                         Program Version 4.1.2  - RELEASE  -
|  1> #Run DFT-D3 single point of the dimer
|  2> ! wB97X-D3 def2-TZVP TIGHTSCF CHELPG PMODEL PAL8
|  3>
|  4> %base "11-95_DFT_AB"
|  5>
|  6> %scf
|  7> MaxIter 1000
|  8> end
|  9>
| 10> * xyz 0 1
| 11>   C                      5.805939             10.294651            -6.906468
| 12>   O                      5.983511             11.721538            -7.025334
| 13>   H                      5.096172             12.079015            -7.135066
| 14>   H                      5.223192             9.968730             -7.767834
| 15>   H                      6.785383             9.801651             -6.954070
| 16>   H                      5.389869             9.935072             -5.948628
| 17>   C                      4.705725             8.901838             -1.620653
| 18>   O                      3.504029             8.280824             -2.084138
| 19>   H                      3.786292             7.682769             -2.794021
| 20>   H                      5.179210             9.653084             -2.296664
| 21>   H                      4.572387             9.390912             -0.647101
| 22>   H                      5.505550             8.207702             -1.522932
| 23> *
| 24>
| 25> #Run DFT-D3 single point of the molecule with dimer basis set
| 26> $new_job
| 27> %base "11-95_DFT_A"
| 28> ! wB97X-D3 def2-TZVP TIGHTSCF CHELPG PMODEL
| 29>
| 30> %scf
| 31> MaxIter 1000
| 32> end
| 33>
| 34> * xyz 0 1
| 35>   C                      5.805939             10.294651            -6.906468
| 36>   O                      5.983511             11.721538            -7.025334
| 37>   H                      5.096172             12.079015            -7.135066
| 38>   H                      5.223192             9.968730             -7.767834
| 39>   H                      6.785383             9.801651             -6.954070
| 40>   H                      5.389869             9.935072             -5.948628
| 41>   C                    : 4.705725             8.901838             -1.620653
| 42>   O                    : 3.504029             8.280824             -2.084138
| 43>   H                    : 3.786292             7.682769             -2.794021
| 44>   H                    : 5.179210             9.653084             -2.296664
| 45>   H                    : 4.572387             9.390912             -0.647101
| 46>   H                    : 5.505550             8.207702             -1.522932
| 47> *
| 48>
| 49> #Run DFT-D3 single point of the particle with dimer basis set
| 50> $new_job
| 51> %base "11-95_DFT_B"
| 52> ! wB97X-D3 def2-TZVP TIGHTSCF CHELPG PMODEL
| 53>
| 54> %scf
| 55> MaxIter 1000
| 56> end
| 57>
| 58> * xyz 0 1
| 59>   C                    : 5.805939             10.294651            -6.906468
| 60>   O                    : 5.983511             11.721538            -7.025334
| 61>   H                    : 5.096172             12.079015            -7.135066
| 62>   H                    : 5.223192             9.968730             -7.767834
| 63>   H                    : 6.785383             9.801651             -6.954070
| 64>   H                    : 5.389869             9.935072             -5.948628
| 65>   C                      4.705725             8.901838             -1.620653
| 66>   O                      3.504029             8.280824             -2.084138
| 67>   H                      3.786292             7.682769             -2.794021
| 68>   H                      5.179210             9.653084             -2.296664
| 69>   H                      4.572387             9.390912             -0.647101
| 70>   H                      5.505550             8.207702             -1.522932
| 71> *
| 72>
| 73>                          ****END OF INPUT****
 Total Charge           Charge          ....    0
 Multiplicity           Mult            ....    1
 Number of Electrons    NEL             ....   36
Dispersion correction           -0.000726193
FINAL SINGLE POINT ENERGY      -231.467636327436
Dispersion correction           -0.000251328
FINAL SINGLE POINT ENERGY      -115.734646037268

CARTESIAN COORDINATES (ANGSTROEM)
---------------------------------
  C      5.805939   10.294651   -6.906468
  O      5.983511   11.721538   -7.025334
  H      5.096172   12.079015   -7.135066
  H      5.223192    9.968730   -7.767834
  H      6.785383    9.801651   -6.954070
  H      5.389869    9.935072   -5.948628
  C      4.705725    8.901838   -1.620653
  O      3.504029    8.280824   -2.084138
  H      3.786292    7.682769   -2.794021
  H      5.179210    9.653084   -2.296664
  H      4.572387    9.390912   -0.647101
  H      5.505550    8.207702   -1.522932

 Multiplicity           Mult            ....    1
 Number of Electrons    NEL             ....   18
 Basis Dimension        Dim             ....  172

ORBITAL ENERGIES
----------------

  NO   OCC          E(Eh)            E(eV)
   0   2.0000     -19.235998      -523.4381
   1   2.0000     -10.313987      -280.6579
   2   2.0000      -1.133043       -30.8317
   3   2.0000      -0.797210       -21.6932
   4   2.0000      -0.613418       -16.6920
   5   2.0000      -0.529590       -14.4109
   6   2.0000      -0.526612       -14.3298
   7   2.0000      -0.443373       -12.0648
   8   2.0000      -0.374009       -10.1773
   9   0.0000       0.082244         2.2380
  10   0.0000       0.112536         3.0623
  11   0.0000       0.148676         4.0457
  12   0.0000       0.163957         4.4615
  13   0.0000       0.184793         5.0285

MULLIKEN ATOMIC CHARGES
-----------------------
   0 C :   -0.000359
   1 O :    0.000013
   2 H :    0.000003
   3 H :    0.000002
   4 H :    0.000026
   5 H :    0.000424
   6 C :   -0.179147
   7 O :   -0.466818
   8 H :    0.316160
   9 H :    0.098105
  10 H :    0.123780
  11 H :    0.107811
Sum of atomic charges:    0.0000000

LOEWDIN ATOMIC CHARGES
----------------------
   0 C :   -0.000077
   1 O :   -0.000001
   2 H :   -0.000000
   3 H :   -0.000001
   4 H :   -0.000001
   5 H :   -0.000105
   6 C :   -0.383542
   7 O :   -0.087751
   8 H :    0.176621
   9 H :    0.097088
  10 H :    0.109712
  11 H :    0.088056

  Mayer bond orders larger than 0.1
B(  6-C ,  7-O ) :   1.0070 B(  6-C ,  9-H ) :   0.9668 B(  6-C , 10-H ) :   0.9756
B(  6-C , 11-H ) :   0.9805 B(  7-O ,  8-H ) :   0.8991

Dispersion correction           -0.000255762
FINAL SINGLE POINT ENERGY      -115.732765188489

DIPOLE MOMENT
-------------
                                X             Y             Z
Electronic contribution:     -1.75534      -0.76056      -0.47470
Nuclear contribution   :      2.42358       0.60751       0.22726
                        -----------------------------------------
Total Dipole Moment    :      0.66824      -0.15305      -0.24744
                        -----------------------------------------
Magnitude (a.u.)       :      0.72883
Magnitude (Debye)      :      1.85253

Rotational constants in cm-1:     4.403709     0.811605     0.775102
Rotational constants in MHz : 132019.860689 24331.318198 23236.974955

                             ****ORCA TERMINATED NORMALLY****
TOTAL RUN TIME: 0 days 0 hours 0 minutes 43 seconds 798 msec
