                         Program Version 4.1.2  - RELEASE  -
|  1> #Run DFT-D3 single point of the dimer
|  2> ! wB97X-D3 def2-TZVP TIGHTSCF CHELPG PMODEL PAL8
|  3>
|  4> %base "21-82_DFT_AB"
|  5>
|  6> %scf
|  7> MaxIter 1000
|  8> end
|  9>
| 10> * xyz 0 1
| 11>   C                      5.544735             -10.686815           11.416384
| 12>   O                      6.569693             -9.635221            11.320580
| 13>   H                      6.852224             -9.461157            10.453404
| 14>   H                      4.580030             -10.332522           11.784910
| 15>   H                      5.292785             -11.100604           10.397652
| 16>   H                      5.884410             -11.404736           12.195480
| 17>   C                      2.525254             -10.630680           8.487032
| 18>   O                      2.935585             -11.688310           7.675859
| 19>   H                      2.200639             -12.188776           7.438601
| 20>   H                      1.755658             -9.943445            7.952434
| 21>   H                      1.961395             -10.815969           9.414507
| 22>   H                      3.388686             -10.029008           8.725031
| 23> *
| 24>
| 25> #Run DFT-D3 single point of the molecule with dimer basis set
| 26> $new_job
| 27> %base "21-82_DFT_A"
| 28> ! wB97X-D3 def2-TZVP TIGHTSCF CHELPG PMODEL
| 29>
| 30> %scf
| 31> MaxIter 1000
| 32> end
| 33>
| 34> * xyz 0 1
| 35>   C                      5.544735             -10.686815           11.416384
| 36>   O                      6.569693             -9.635221            11.320580
| 37>   H                      6.852224             -9.461157            10.453404
| 38>   H                      4.580030             -10.332522           11.784910
| 39>   H                      5.292785             -11.100604           10.397652
| 40>   H                      5.884410             -11.404736           12.195480
| 41>   C                    : 2.525254             -10.630680           8.487032
| 42>   O                    : 2.935585             -11.688310           7.675859
| 43>   H                    : 2.200639             -12.188776           7.438601
| 44>   H                    : 1.755658             -9.943445            7.952434
| 45>   H                    : 1.961395             -10.815969           9.414507
| 46>   H                    : 3.388686             -10.029008           8.725031
| 47> *
| 48>
| 49> #Run DFT-D3 single point of the particle with dimer basis set
| 50> $new_job
| 51> %base "21-82_DFT_B"
| 52> ! wB97X-D3 def2-TZVP TIGHTSCF CHELPG PMODEL
| 53>
| 54> %scf
| 55> MaxIter 1000
| 56> end
| 57>
| 58> * xyz 0 1
| 59>   C                    : 5.544735             -10.686815           11.416384
| 60>   O                    : 6.569693             -9.635221            11.320580
| 61>   H                    : 6.852224             -9.461157            10.453404
| 62>   H                    : 4.580030             -10.332522           11.784910
| 63>   H                    : 5.292785             -11.100604           10.397652
| 64>   H                    : 5.884410             -11.404736           12.195480
| 65>   C                      2.525254             -10.630680           8.487032
| 66>   O                      2.935585             -11.688310           7.675859
| 67>   H                      2.200639             -12.188776           7.438601
| 68>   H                      1.755658             -9.943445            7.952434
| 69>   H                      1.961395             -10.815969           9.414507
| 70>   H                      3.388686             -10.029008           8.725031
| 71> *
| 72>
| 73>                          ****END OF INPUT****
 Total Charge           Charge          ....    0
 Multiplicity           Mult            ....    1
 Number of Electrons    NEL             ....   36
Dispersion correction           -0.001369130
FINAL SINGLE POINT ENERGY      -231.459468852080
Dispersion correction           -0.000289160
FINAL SINGLE POINT ENERGY      -115.728033682635

CARTESIAN COORDINATES (ANGSTROEM)
---------------------------------
  C      5.544735  -10.686815   11.416384
  O      6.569693   -9.635221   11.320580
  H      6.852224   -9.461157   10.453404
  H      4.580030  -10.332522   11.784910
  H      5.292785  -11.100604   10.397652
  H      5.884410  -11.404736   12.195480
  C      2.525254  -10.630680    8.487032
  O      2.935585  -11.688310    7.675859
  H      2.200639  -12.188776    7.438601
  H      1.755658   -9.943445    7.952434
  H      1.961395  -10.815969    9.414507
  H      3.388686  -10.029008    8.725031

 Multiplicity           Mult            ....    1
 Number of Electrons    NEL             ....   18
 Basis Dimension        Dim             ....  172

ORBITAL ENERGIES
----------------

  NO   OCC          E(Eh)            E(eV)
   0   2.0000     -19.232691      -523.3481
   1   2.0000     -10.318818      -280.7893
   2   2.0000      -1.153242       -31.3813
   3   2.0000      -0.798262       -21.7218
   4   2.0000      -0.626789       -17.0558
   5   2.0000      -0.534012       -14.5312
   6   2.0000      -0.526247       -14.3199
   7   2.0000      -0.441815       -12.0224
   8   2.0000      -0.371442       -10.1075
   9   0.0000       0.088353         2.4042
  10   0.0000       0.121315         3.3011
  11   0.0000       0.151289         4.1168
  12   0.0000       0.162729         4.4281
  13   0.0000       0.195090         5.3087

MULLIKEN ATOMIC CHARGES
-----------------------
   0 C :   -0.001880
   1 O :    0.000065
   2 H :   -0.000038
   3 H :   -0.000265
   4 H :    0.002099
   5 H :   -0.000001
   6 C :   -0.176398
   7 O :   -0.455464
   8 H :    0.308403
   9 H :    0.091729
  10 H :    0.103528
  11 H :    0.128223
Sum of atomic charges:   -0.0000000

LOEWDIN ATOMIC CHARGES
----------------------
   0 C :   -0.001419
   1 O :   -0.000003
   2 H :   -0.000027
   3 H :   -0.000406
   4 H :   -0.001087
   5 H :   -0.000009
   6 C :   -0.408708
   7 O :   -0.034777
   8 H :    0.144971
   9 H :    0.100951
  10 H :    0.093717
  11 H :    0.106796

  Mayer bond orders larger than 0.1
B(  6-C ,  7-O ) :   1.0021 B(  6-C ,  9-H ) :   0.9771 B(  6-C , 10-H ) :   0.9622
B(  6-C , 11-H ) :   0.9760 B(  7-O ,  8-H ) :   0.9075

Dispersion correction           -0.000260140
FINAL SINGLE POINT ENERGY      -115.730226327061

DIPOLE MOMENT
-------------
                                X             Y             Z
Electronic contribution:      0.79904      -1.54398      -1.01301
Nuclear contribution   :     -1.41716       1.60141       1.17170
                        -----------------------------------------
Total Dipole Moment    :     -0.61812       0.05744       0.15869
                        -----------------------------------------
Magnitude (a.u.)       :      0.64074
Magnitude (Debye)      :      1.62863

Rotational constants in cm-1:     4.396184     0.838062     0.803154
Rotational constants in MHz : 131794.295387 25124.461343 24077.944253

                             ****ORCA TERMINATED NORMALLY****
TOTAL RUN TIME: 0 days 0 hours 1 minutes 4 seconds 534 msec
