                         Program Version 4.1.2  - RELEASE  -
|  1> #Run DFT-D3 single point of the dimer
|  2> ! wB97X-D3 def2-TZVP TIGHTSCF CHELPG PMODEL PAL8
|  3>
|  4> %base "22-170_DFT_AB"
|  5>
|  6> %scf
|  7> MaxIter 1000
|  8> end
|  9>
| 10> * xyz 0 1
| 11>   C                      -5.307113            -0.899769            -11.092873
| 12>   O                      -5.378881            0.499877             -10.839368
| 13>   H                      -6.126287            0.683698             -10.302987
| 14>   H                      -6.114228            -1.312784            -11.760220
| 15>   H                      -4.411268            -1.176361            -11.602147
| 16>   H                      -5.360384            -1.454552            -10.155295
| 17>   C                      -5.852520            0.774861             -7.613912
| 18>   O                      -6.908664            0.365296             -8.454930
| 19>   H                      -7.478881            -0.233197            -7.950031
| 20>   H                      -5.049186            1.251773             -8.179559
| 21>   H                      -6.218541            1.447878             -6.845721
| 22>   H                      -5.393298            -0.081256            -7.211232
| 23> *
| 24>
| 25> #Run DFT-D3 single point of the molecule with dimer basis set
| 26> $new_job
| 27> %base "22-170_DFT_A"
| 28> ! wB97X-D3 def2-TZVP TIGHTSCF CHELPG PMODEL
| 29>
| 30> %scf
| 31> MaxIter 1000
| 32> end
| 33>
| 34> * xyz 0 1
| 35>   C                      -5.307113            -0.899769            -11.092873
| 36>   O                      -5.378881            0.499877             -10.839368
| 37>   H                      -6.126287            0.683698             -10.302987
| 38>   H                      -6.114228            -1.312784            -11.760220
| 39>   H                      -4.411268            -1.176361            -11.602147
| 40>   H                      -5.360384            -1.454552            -10.155295
| 41>   C                    : -5.852520            0.774861             -7.613912
| 42>   O                    : -6.908664            0.365296             -8.454930
| 43>   H                    : -7.478881            -0.233197            -7.950031
| 44>   H                    : -5.049186            1.251773             -8.179559
| 45>   H                    : -6.218541            1.447878             -6.845721
| 46>   H                    : -5.393298            -0.081256            -7.211232
| 47> *
| 48>
| 49> #Run DFT-D3 single point of the particle with dimer basis set
| 50> $new_job
| 51> %base "22-170_DFT_B"
| 52> ! wB97X-D3 def2-TZVP TIGHTSCF CHELPG PMODEL
| 53>
| 54> %scf
| 55> MaxIter 1000
| 56> end
| 57>
| 58> * xyz 0 1
| 59>   C                    : -5.307113            -0.899769            -11.092873
| 60>   O                    : -5.378881            0.499877             -10.839368
| 61>   H                    : -6.126287            0.683698             -10.302987
| 62>   H                    : -6.114228            -1.312784            -11.760220
| 63>   H                    : -4.411268            -1.176361            -11.602147
| 64>   H                    : -5.360384            -1.454552            -10.155295
| 65>   C                      -5.852520            0.774861             -7.613912
| 66>   O                      -6.908664            0.365296             -8.454930
| 67>   H                      -7.478881            -0.233197            -7.950031
| 68>   H                      -5.049186            1.251773             -8.179559
| 69>   H                      -6.218541            1.447878             -6.845721
| 70>   H                      -5.393298            -0.081256            -7.211232
| 71> *
| 72>
| 73>                          ****END OF INPUT****
 Total Charge           Charge          ....    0
 Multiplicity           Mult            ....    1
 Number of Electrons    NEL             ....   36
Dispersion correction           -0.002185101
FINAL SINGLE POINT ENERGY      -231.477450245475
Dispersion correction           -0.000257174
FINAL SINGLE POINT ENERGY      -115.735132322177

CARTESIAN COORDINATES (ANGSTROEM)
---------------------------------
  C     -5.307113   -0.899769  -11.092873
  O     -5.378881    0.499877  -10.839368
  H     -6.126287    0.683698  -10.302987
  H     -6.114228   -1.312784  -11.760220
  H     -4.411268   -1.176361  -11.602147
  H     -5.360384   -1.454552  -10.155295
  C     -5.852520    0.774861   -7.613912
  O     -6.908664    0.365296   -8.454930
  H     -7.478881   -0.233197   -7.950031
  H     -5.049186    1.251773   -8.179559
  H     -6.218541    1.447878   -6.845721
  H     -5.393298   -0.081256   -7.211232

 Multiplicity           Mult            ....    1
 Number of Electrons    NEL             ....   18
 Basis Dimension        Dim             ....  172

ORBITAL ENERGIES
----------------

  NO   OCC          E(Eh)            E(eV)
   0   2.0000     -19.228778      -523.2416
   1   2.0000     -10.306578      -280.4562
   2   2.0000      -1.134790       -30.8792
   3   2.0000      -0.798255       -21.7216
   4   2.0000      -0.608465       -16.5572
   5   2.0000      -0.553001       -15.0479
   6   2.0000      -0.528486       -14.3808
   7   2.0000      -0.429064       -11.6754
   8   2.0000      -0.374388       -10.1876
   9   0.0000       0.095827         2.6076
  10   0.0000       0.128536         3.4976
  11   0.0000       0.153467         4.1760
  12   0.0000       0.180864         4.9215
  13   0.0000       0.202229         5.5029

MULLIKEN ATOMIC CHARGES
-----------------------
   0 C :    0.004619
   1 O :    0.000978
   2 H :   -0.006309
   3 H :   -0.000804
   4 H :   -0.000463
   5 H :   -0.007620
   6 C :   -0.161019
   7 O :   -0.474821
   8 H :    0.311652
   9 H :    0.118459
  10 H :    0.108250
  11 H :    0.107080
Sum of atomic charges:   -0.0000000

LOEWDIN ATOMIC CHARGES
----------------------
   0 C :   -0.007961
   1 O :   -0.005637
   2 H :   -0.028439
   3 H :   -0.000200
   4 H :   -0.000102
   5 H :   -0.003959
   6 C :   -0.375324
   7 O :   -0.047501
   8 H :    0.173500
   9 H :    0.111278
  10 H :    0.095833
  11 H :    0.088513

  Mayer bond orders larger than 0.1
B(  6-C ,  7-O ) :   0.9770 B(  6-C ,  9-H ) :   0.9764 B(  6-C , 10-H ) :   0.9739
B(  6-C , 11-H ) :   0.9842 B(  7-O ,  8-H ) :   0.8974

Dispersion correction           -0.000222852
FINAL SINGLE POINT ENERGY      -115.734721291835

DIPOLE MOMENT
-------------
                                X             Y             Z
Electronic contribution:     -1.29014      -0.40134      -1.12437
Nuclear contribution   :      1.37295       0.17896       1.79023
                        -----------------------------------------
Total Dipole Moment    :      0.08281      -0.22237       0.66586
                        -----------------------------------------
Magnitude (a.u.)       :      0.70688
Magnitude (Debye)      :      1.79674

Rotational constants in cm-1:     4.380611     0.837016     0.811972
Rotational constants in MHz : 131327.401385 25093.095359 24342.323137

                             ****ORCA TERMINATED NORMALLY****
TOTAL RUN TIME: 0 days 0 hours 1 minutes 6 seconds 950 msec
