                         Program Version 4.1.2  - RELEASE  -
|  1> #Run DFT-D3 single point of the dimer
|  2> ! wB97X-D3 def2-TZVP TIGHTSCF CHELPG PMODEL PAL8
|  3>
|  4> %base "22-202_DFT_AB"
|  5>
|  6> %scf
|  7> MaxIter 1000
|  8> end
|  9>
| 10> * xyz 0 1
| 11>   C                      1.849405             10.403174            -6.975823
| 12>   O                      2.478847             9.152996             -7.261366
| 13>   H                      1.801508             8.464641             -7.105804
| 14>   H                      1.309623             10.282888            -6.056580
| 15>   H                      2.652118             11.175749            -6.874183
| 16>   H                      1.064721             10.693394            -7.711019
| 17>   C                      5.865347             9.167918             -8.360008
| 18>   O                      5.500343             8.493549             -7.201196
| 19>   H                      4.539778             8.361218             -7.270459
| 20>   H                      5.527229             10.237435            -8.308055
| 21>   H                      6.944993             9.086587             -8.452698
| 22>   H                      5.493211             8.733666             -9.272044
| 23> *
| 24>
| 25> #Run DFT-D3 single point of the molecule with dimer basis set
| 26> $new_job
| 27> %base "22-202_DFT_A"
| 28> ! wB97X-D3 def2-TZVP TIGHTSCF CHELPG PMODEL
| 29>
| 30> %scf
| 31> MaxIter 1000
| 32> end
| 33>
| 34> * xyz 0 1
| 35>   C                      1.849405             10.403174            -6.975823
| 36>   O                      2.478847             9.152996             -7.261366
| 37>   H                      1.801508             8.464641             -7.105804
| 38>   H                      1.309623             10.282888            -6.056580
| 39>   H                      2.652118             11.175749            -6.874183
| 40>   H                      1.064721             10.693394            -7.711019
| 41>   C                    : 5.865347             9.167918             -8.360008
| 42>   O                    : 5.500343             8.493549             -7.201196
| 43>   H                    : 4.539778             8.361218             -7.270459
| 44>   H                    : 5.527229             10.237435            -8.308055
| 45>   H                    : 6.944993             9.086587             -8.452698
| 46>   H                    : 5.493211             8.733666             -9.272044
| 47> *
| 48>
| 49> #Run DFT-D3 single point of the particle with dimer basis set
| 50> $new_job
| 51> %base "22-202_DFT_B"
| 52> ! wB97X-D3 def2-TZVP TIGHTSCF CHELPG PMODEL
| 53>
| 54> %scf
| 55> MaxIter 1000
| 56> end
| 57>
| 58> * xyz 0 1
| 59>   C                    : 1.849405             10.403174            -6.975823
| 60>   O                    : 2.478847             9.152996             -7.261366
| 61>   H                    : 1.801508             8.464641             -7.105804
| 62>   H                    : 1.309623             10.282888            -6.056580
| 63>   H                    : 2.652118             11.175749            -6.874183
| 64>   H                    : 1.064721             10.693394            -7.711019
| 65>   C                      5.865347             9.167918             -8.360008
| 66>   O                      5.500343             8.493549             -7.201196
| 67>   H                      4.539778             8.361218             -7.270459
| 68>   H                      5.527229             10.237435            -8.308055
| 69>   H                      6.944993             9.086587             -8.452698
| 70>   H                      5.493211             8.733666             -9.272044
| 71> *
| 72>
| 73>                          ****END OF INPUT****
 Total Charge           Charge          ....    0
 Multiplicity           Mult            ....    1
 Number of Electrons    NEL             ....   36
Dispersion correction           -0.001661814
FINAL SINGLE POINT ENERGY      -231.476230541020
Dispersion correction           -0.000236388
FINAL SINGLE POINT ENERGY      -115.733971674699

CARTESIAN COORDINATES (ANGSTROEM)
---------------------------------
  C      1.849405   10.403174   -6.975823
  O      2.478847    9.152996   -7.261366
  H      1.801508    8.464641   -7.105804
  H      1.309623   10.282888   -6.056580
  H      2.652118   11.175749   -6.874183
  H      1.064721   10.693394   -7.711019
  C      5.865347    9.167918   -8.360008
  O      5.500343    8.493549   -7.201196
  H      4.539778    8.361218   -7.270459
  H      5.527229   10.237435   -8.308055
  H      6.944993    9.086587   -8.452698
  H      5.493211    8.733666   -9.272044

 Multiplicity           Mult            ....    1
 Number of Electrons    NEL             ....   18
 Basis Dimension        Dim             ....  172

ORBITAL ENERGIES
----------------

  NO   OCC          E(Eh)            E(eV)
   0   2.0000     -19.232717      -523.3488
   1   2.0000     -10.310547      -280.5643
   2   2.0000      -1.144179       -31.1347
   3   2.0000      -0.792121       -21.5547
   4   2.0000      -0.615174       -16.7397
   5   2.0000      -0.547361       -14.8944
   6   2.0000      -0.524803       -14.2806
   7   2.0000      -0.435258       -11.8440
   8   2.0000      -0.373148       -10.1539
   9   0.0000       0.070628         1.9219
  10   0.0000       0.128569         3.4985
  11   0.0000       0.142644         3.8815
  12   0.0000       0.171548         4.6681
  13   0.0000       0.197252         5.3675

MULLIKEN ATOMIC CHARGES
-----------------------
   0 C :   -0.001532
   1 O :   -0.002457
   2 H :   -0.000364
   3 H :    0.000155
   4 H :   -0.000094
   5 H :   -0.000013
   6 C :   -0.162954
   7 O :   -0.462011
   8 H :    0.313092
   9 H :    0.096818
  10 H :    0.119805
  11 H :    0.099557
Sum of atomic charges:    0.0000000

LOEWDIN ATOMIC CHARGES
----------------------
   0 C :   -0.001503
   1 O :   -0.010900
   2 H :   -0.000892
   3 H :   -0.000021
   4 H :   -0.000242
   5 H :   -0.000033
   6 C :   -0.408370
   7 O :   -0.056397
   8 H :    0.181512
   9 H :    0.099436
  10 H :    0.107848
  11 H :    0.089563

  Mayer bond orders larger than 0.1
B(  6-C ,  7-O ) :   1.0013 B(  6-C ,  9-H ) :   0.9756 B(  6-C , 10-H ) :   0.9753
B(  6-C , 11-H ) :   0.9758 B(  7-O ,  8-H ) :   0.9050

Dispersion correction           -0.000225426
FINAL SINGLE POINT ENERGY      -115.735285571705

DIPOLE MOMENT
-------------
                                X             Y             Z
Electronic contribution:     -0.34450      -0.91408       1.55958
Nuclear contribution   :     -0.10250       1.05144      -2.05066
                        -----------------------------------------
Total Dipole Moment    :     -0.44700       0.13737      -0.49109
                        -----------------------------------------
Magnitude (a.u.)       :      0.67812
Magnitude (Debye)      :      1.72364

Rotational constants in cm-1:     4.232608     0.857013     0.828009
Rotational constants in MHz : 126890.399136 25692.605245 24823.096283

                             ****ORCA TERMINATED NORMALLY****
TOTAL RUN TIME: 0 days 0 hours 1 minutes 5 seconds 777 msec
