                         Program Version 4.1.2  - RELEASE  -
|  1> #Run DFT-D3 single point of the dimer
|  2> ! wB97X-D3 def2-TZVP TIGHTSCF CHELPG PMODEL PAL8
|  3>
|  4> %base "17-184_DFT_AB"
|  5>
|  6> %scf
|  7> MaxIter 1000
|  8> end
|  9>
| 10> * xyz 0 1
| 11>   C                      1.133517             -8.147447            -8.000697
| 12>   O                      0.016639             -8.043199            -7.114052
| 13>   H                      -0.528439            -7.307788            -7.373907
| 14>   H                      0.753661             -8.090303            -9.044656
| 15>   H                      1.848554             -7.316792            -7.822672
| 16>   H                      1.715743             -9.115010            -7.891691
| 17>   C                      -1.600842            -5.000788            -8.804165
| 18>   O                      -0.381449            -5.523532            -8.272271
| 19>   H                      -0.007835            -4.842861            -7.780753
| 20>   H                      -2.168721            -4.542545            -8.038148
| 21>   H                      -1.578042            -4.119260            -9.487249
| 22>   H                      -2.114779            -5.756708            -9.394685
| 23> *
| 24>
| 25> #Run DFT-D3 single point of the molecule with dimer basis set
| 26> $new_job
| 27> %base "17-184_DFT_A"
| 28> ! wB97X-D3 def2-TZVP TIGHTSCF CHELPG PMODEL
| 29>
| 30> %scf
| 31> MaxIter 1000
| 32> end
| 33>
| 34> * xyz 0 1
| 35>   C                      1.133517             -8.147447            -8.000697
| 36>   O                      0.016639             -8.043199            -7.114052
| 37>   H                      -0.528439            -7.307788            -7.373907
| 38>   H                      0.753661             -8.090303            -9.044656
| 39>   H                      1.848554             -7.316792            -7.822672
| 40>   H                      1.715743             -9.115010            -7.891691
| 41>   C                    : -1.600842            -5.000788            -8.804165
| 42>   O                    : -0.381449            -5.523532            -8.272271
| 43>   H                    : -0.007835            -4.842861            -7.780753
| 44>   H                    : -2.168721            -4.542545            -8.038148
| 45>   H                    : -1.578042            -4.119260            -9.487249
| 46>   H                    : -2.114779            -5.756708            -9.394685
| 47> *
| 48>
| 49> #Run DFT-D3 single point of the particle with dimer basis set
| 50> $new_job
| 51> %base "17-184_DFT_B"
| 52> ! wB97X-D3 def2-TZVP TIGHTSCF CHELPG PMODEL
| 53>
| 54> %scf
| 55> MaxIter 1000
| 56> end
| 57>
| 58> * xyz 0 1
| 59>   C                    : 1.133517             -8.147447            -8.000697
| 60>   O                    : 0.016639             -8.043199            -7.114052
| 61>   H                    : -0.528439            -7.307788            -7.373907
| 62>   H                    : 0.753661             -8.090303            -9.044656
| 63>   H                    : 1.848554             -7.316792            -7.822672
| 64>   H                    : 1.715743             -9.115010            -7.891691
| 65>   C                      -1.600842            -5.000788            -8.804165
| 66>   O                      -0.381449            -5.523532            -8.272271
| 67>   H                      -0.007835            -4.842861            -7.780753
| 68>   H                      -2.168721            -4.542545            -8.038148
| 69>   H                      -1.578042            -4.119260            -9.487249
| 70>   H                      -2.114779            -5.756708            -9.394685
| 71> *
| 72>
| 73>                          ****END OF INPUT****
 Total Charge           Charge          ....    0
 Multiplicity           Mult            ....    1
 Number of Electrons    NEL             ....   36
Dispersion correction           -0.002016520
FINAL SINGLE POINT ENERGY      -231.467648009379
Dispersion correction           -0.000252619
FINAL SINGLE POINT ENERGY      -115.734152396001

CARTESIAN COORDINATES (ANGSTROEM)
---------------------------------
  C      1.133517   -8.147447   -8.000697
  O      0.016639   -8.043199   -7.114052
  H     -0.528439   -7.307788   -7.373907
  H      0.753661   -8.090303   -9.044656
  H      1.848554   -7.316792   -7.822672
  H      1.715743   -9.115010   -7.891691
  C     -1.600842   -5.000788   -8.804165
  O     -0.381449   -5.523532   -8.272271
  H     -0.007835   -4.842861   -7.780753
  H     -2.168721   -4.542545   -8.038148
  H     -1.578042   -4.119260   -9.487249
  H     -2.114779   -5.756708   -9.394685

 Multiplicity           Mult            ....    1
 Number of Electrons    NEL             ....   18
 Basis Dimension        Dim             ....  172

ORBITAL ENERGIES
----------------

  NO   OCC          E(Eh)            E(eV)
   0   2.0000     -19.232543      -523.3441
   1   2.0000     -10.313447      -280.6432
   2   2.0000      -1.144562       -31.1451
   3   2.0000      -0.804043       -21.8791
   4   2.0000      -0.623818       -16.9750
   5   2.0000      -0.541867       -14.7449
   6   2.0000      -0.515303       -14.0221
   7   2.0000      -0.450436       -12.2570
   8   2.0000      -0.373189       -10.1550
   9   0.0000       0.101712         2.7677
  10   0.0000       0.130819         3.5598
  11   0.0000       0.151649         4.1266
  12   0.0000       0.185510         5.0480
  13   0.0000       0.197832         5.3833

MULLIKEN ATOMIC CHARGES
-----------------------
   0 C :    0.012533
   1 O :    0.000262
   2 H :   -0.011419
   3 H :   -0.006052
   4 H :   -0.005508
   5 H :   -0.000313
   6 C :   -0.175719
   7 O :   -0.452848
   8 H :    0.304156
   9 H :    0.109501
  10 H :    0.096951
  11 H :    0.128454
Sum of atomic charges:    0.0000000

LOEWDIN ATOMIC CHARGES
----------------------
   0 C :   -0.015979
   1 O :   -0.006977
   2 H :   -0.034276
   3 H :   -0.002879
   4 H :   -0.002817
   5 H :   -0.000161
   6 C :   -0.373714
   7 O :   -0.006769
   8 H :    0.142889
   9 H :    0.090150
  10 H :    0.099510
  11 H :    0.111022

  Mayer bond orders larger than 0.1
B(  6-C ,  7-O ) :   0.9886 B(  6-C ,  9-H ) :   0.9794 B(  6-C , 10-H ) :   0.9625
B(  6-C , 11-H ) :   0.9793 B(  7-O ,  8-H ) :   0.9084

Dispersion correction           -0.000250518
FINAL SINGLE POINT ENERGY      -115.727643457843

DIPOLE MOMENT
-------------
                                X             Y             Z
Electronic contribution:      1.57943      -0.91511       0.67636
Nuclear contribution   :     -1.83815       1.58364      -0.56991
                        -----------------------------------------
Total Dipole Moment    :     -0.25872       0.66853       0.10645
                        -----------------------------------------
Magnitude (a.u.)       :      0.72470
Magnitude (Debye)      :      1.84204

Rotational constants in cm-1:     4.548118     0.818921     0.776203
Rotational constants in MHz : 136349.139387 24550.627715 23269.977422

                             ****ORCA TERMINATED NORMALLY****
TOTAL RUN TIME: 0 days 0 hours 1 minutes 8 seconds 961 msec
