                         Program Version 4.1.2  - RELEASE  -
|  1> #Run DFT-D3 single point of the dimer
|  2> ! wB97X-D3 def2-TZVP TIGHTSCF CHELPG PMODEL PAL8
|  3>
|  4> %base "15-82_DFT_AB"
|  5>
|  6> %scf
|  7> MaxIter 1000
|  8> end
|  9>
| 10> * xyz 0 1
| 11>   C                      3.160590             5.904719             1.409526
| 12>   O                      1.952229             6.513314             1.905539
| 13>   H                      2.203480             7.011722             2.707374
| 14>   H                      3.131705             5.037513             0.685736
| 15>   H                      3.800379             6.728786             1.090960
| 16>   H                      3.782874             5.542182             2.299754
| 17>   C                      8.601425             6.920076             1.637831
| 18>   O                      7.416930             6.742712             0.853105
| 19>   H                      7.440295             5.891707             0.379606
| 20>   H                      9.457461             6.865217             0.985946
| 21>   H                      8.621270             7.835848             2.165665
| 22>   H                      8.698329             6.067218             2.366144
| 23> *
| 24>
| 25> #Run DFT-D3 single point of the molecule with dimer basis set
| 26> $new_job
| 27> %base "15-82_DFT_A"
| 28> ! wB97X-D3 def2-TZVP TIGHTSCF CHELPG PMODEL
| 29>
| 30> %scf
| 31> MaxIter 1000
| 32> end
| 33>
| 34> * xyz 0 1
| 35>   C                      3.160590             5.904719             1.409526
| 36>   O                      1.952229             6.513314             1.905539
| 37>   H                      2.203480             7.011722             2.707374
| 38>   H                      3.131705             5.037513             0.685736
| 39>   H                      3.800379             6.728786             1.090960
| 40>   H                      3.782874             5.542182             2.299754
| 41>   C                    : 8.601425             6.920076             1.637831
| 42>   O                    : 7.416930             6.742712             0.853105
| 43>   H                    : 7.440295             5.891707             0.379606
| 44>   H                    : 9.457461             6.865217             0.985946
| 45>   H                    : 8.621270             7.835848             2.165665
| 46>   H                    : 8.698329             6.067218             2.366144
| 47> *
| 48>
| 49> #Run DFT-D3 single point of the particle with dimer basis set
| 50> $new_job
| 51> %base "15-82_DFT_B"
| 52> ! wB97X-D3 def2-TZVP TIGHTSCF CHELPG PMODEL
| 53>
| 54> %scf
| 55> MaxIter 1000
| 56> end
| 57>
| 58> * xyz 0 1
| 59>   C                    : 3.160590             5.904719             1.409526
| 60>   O                    : 1.952229             6.513314             1.905539
| 61>   H                    : 2.203480             7.011722             2.707374
| 62>   H                    : 3.131705             5.037513             0.685736
| 63>   H                    : 3.800379             6.728786             1.090960
| 64>   H                    : 3.782874             5.542182             2.299754
| 65>   C                      8.601425             6.920076             1.637831
| 66>   O                      7.416930             6.742712             0.853105
| 67>   H                      7.440295             5.891707             0.379606
| 68>   H                      9.457461             6.865217             0.985946
| 69>   H                      8.621270             7.835848             2.165665
| 70>   H                      8.698329             6.067218             2.366144
| 71> *
| 72>
| 73>                          ****END OF INPUT****
 Total Charge           Charge          ....    0
 Multiplicity           Mult            ....    1
 Number of Electrons    NEL             ....   36
Dispersion correction           -0.000851853
FINAL SINGLE POINT ENERGY      -231.458199009873
Dispersion correction           -0.000248475
FINAL SINGLE POINT ENERGY      -115.723563191100

CARTESIAN COORDINATES (ANGSTROEM)
---------------------------------
  C      3.160590    5.904719    1.409526
  O      1.952229    6.513314    1.905539
  H      2.203480    7.011722    2.707374
  H      3.131705    5.037513    0.685736
  H      3.800379    6.728786    1.090960
  H      3.782874    5.542182    2.299754
  C      8.601425    6.920076    1.637831
  O      7.416930    6.742712    0.853105
  H      7.440295    5.891707    0.379606
  H      9.457461    6.865217    0.985946
  H      8.621270    7.835848    2.165665
  H      8.698329    6.067218    2.366144

 Multiplicity           Mult            ....    1
 Number of Electrons    NEL             ....   18
 Basis Dimension        Dim             ....  172

ORBITAL ENERGIES
----------------

  NO   OCC          E(Eh)            E(eV)
   0   2.0000     -19.228416      -523.2318
   1   2.0000     -10.313296      -280.6390
   2   2.0000      -1.125481       -30.6259
   3   2.0000      -0.798121       -21.7180
   4   2.0000      -0.604705       -16.4549
   5   2.0000      -0.537828       -14.6350
   6   2.0000      -0.534742       -14.5511
   7   2.0000      -0.431452       -11.7404
   8   2.0000      -0.370286       -10.0760
   9   0.0000       0.091952         2.5021
  10   0.0000       0.116045         3.1577
  11   0.0000       0.152800         4.1579
  12   0.0000       0.173192         4.7128
  13   0.0000       0.199647         5.4327

MULLIKEN ATOMIC CHARGES
-----------------------
   0 C :    0.000551
   1 O :   -0.000028
   2 H :   -0.000014
   3 H :    0.000023
   4 H :   -0.002351
   5 H :   -0.000675
   6 C :   -0.155159
   7 O :   -0.488531
   8 H :    0.317755
   9 H :    0.102541
  10 H :    0.128666
  11 H :    0.097222
Sum of atomic charges:    0.0000000

LOEWDIN ATOMIC CHARGES
----------------------
   0 C :   -0.000965
   1 O :   -0.000013
   2 H :   -0.000001
   3 H :   -0.000012
   4 H :   -0.001162
   5 H :   -0.000306
   6 C :   -0.364338
   7 O :   -0.100865
   8 H :    0.175181
   9 H :    0.091793
  10 H :    0.100311
  11 H :    0.100379

  Mayer bond orders larger than 0.1
B(  6-C ,  7-O ) :   0.9880 B(  6-C ,  9-H ) :   0.9804 B(  6-C , 10-H ) :   0.9705
B(  6-C , 11-H ) :   0.9796 B(  7-O ,  8-H ) :   0.8935

Dispersion correction           -0.000240935
FINAL SINGLE POINT ENERGY      -115.733731119669

DIPOLE MOMENT
-------------
                                X             Y             Z
Electronic contribution:     -1.53079       0.05642      -0.90879
Nuclear contribution   :      2.05633      -0.50528       0.92857
                        -----------------------------------------
Total Dipole Moment    :      0.52554      -0.44885       0.01977
                        -----------------------------------------
Magnitude (a.u.)       :      0.69142
Magnitude (Debye)      :      1.75744

Rotational constants in cm-1:     4.329891     0.813484     0.784846
Rotational constants in MHz : 129806.855311 24387.637739 23529.084517

                             ****ORCA TERMINATED NORMALLY****
TOTAL RUN TIME: 0 days 0 hours 1 minutes 3 seconds 407 msec
