                         Program Version 4.1.2  - RELEASE  -
|  1> #Run DFT-D3 single point of the dimer
|  2> ! wB97X-D3 def2-TZVP TIGHTSCF CHELPG PMODEL PAL8
|  3>
|  4> %base "11-87_DFT_AB"
|  5>
|  6> %scf
|  7> MaxIter 1000
|  8> end
|  9>
| 10> * xyz 0 1
| 11>   C                      10.085171            9.090846             -6.497490
| 12>   O                      9.870105             7.743981             -6.738684
| 13>   H                      9.596428             7.627402             -7.668537
| 14>   H                      10.240051            9.593562             -7.467117
| 15>   H                      9.364494             9.634166             -5.908815
| 16>   H                      11.032180            9.300689             -5.983905
| 17>   C                      7.977411             4.604225             -6.683643
| 18>   O                      7.874482             5.747170             -5.875177
| 19>   H                      8.627188             6.287161             -6.094258
| 20>   H                      7.105510             4.039760             -6.817862
| 21>   H                      8.320748             4.846511             -7.712900
| 22>   H                      8.779991             3.915354             -6.304353
| 23> *
| 24>
| 25> #Run DFT-D3 single point of the molecule with dimer basis set
| 26> $new_job
| 27> %base "11-87_DFT_A"
| 28> ! wB97X-D3 def2-TZVP TIGHTSCF CHELPG PMODEL
| 29>
| 30> %scf
| 31> MaxIter 1000
| 32> end
| 33>
| 34> * xyz 0 1
| 35>   C                      10.085171            9.090846             -6.497490
| 36>   O                      9.870105             7.743981             -6.738684
| 37>   H                      9.596428             7.627402             -7.668537
| 38>   H                      10.240051            9.593562             -7.467117
| 39>   H                      9.364494             9.634166             -5.908815
| 40>   H                      11.032180            9.300689             -5.983905
| 41>   C                    : 7.977411             4.604225             -6.683643
| 42>   O                    : 7.874482             5.747170             -5.875177
| 43>   H                    : 8.627188             6.287161             -6.094258
| 44>   H                    : 7.105510             4.039760             -6.817862
| 45>   H                    : 8.320748             4.846511             -7.712900
| 46>   H                    : 8.779991             3.915354             -6.304353
| 47> *
| 48>
| 49> #Run DFT-D3 single point of the particle with dimer basis set
| 50> $new_job
| 51> %base "11-87_DFT_B"
| 52> ! wB97X-D3 def2-TZVP TIGHTSCF CHELPG PMODEL
| 53>
| 54> %scf
| 55> MaxIter 1000
| 56> end
| 57>
| 58> * xyz 0 1
| 59>   C                    : 10.085171            9.090846             -6.497490
| 60>   O                    : 9.870105             7.743981             -6.738684
| 61>   H                    : 9.596428             7.627402             -7.668537
| 62>   H                    : 10.240051            9.593562             -7.467117
| 63>   H                    : 9.364494             9.634166             -5.908815
| 64>   H                    : 11.032180            9.300689             -5.983905
| 65>   C                      7.977411             4.604225             -6.683643
| 66>   O                      7.874482             5.747170             -5.875177
| 67>   H                      8.627188             6.287161             -6.094258
| 68>   H                      7.105510             4.039760             -6.817862
| 69>   H                      8.320748             4.846511             -7.712900
| 70>   H                      8.779991             3.915354             -6.304353
| 71> *
| 72>
| 73>                          ****END OF INPUT****
 Total Charge           Charge          ....    0
 Multiplicity           Mult            ....    1
 Number of Electrons    NEL             ....   36
Dispersion correction           -0.001562183
FINAL SINGLE POINT ENERGY      -231.470701561731
Dispersion correction           -0.000246814
FINAL SINGLE POINT ENERGY      -115.731349098884

CARTESIAN COORDINATES (ANGSTROEM)
---------------------------------
  C     10.085171    9.090846   -6.497490
  O      9.870105    7.743981   -6.738684
  H      9.596428    7.627402   -7.668537
  H     10.240051    9.593562   -7.467117
  H      9.364494    9.634166   -5.908815
  H     11.032180    9.300689   -5.983905
  C      7.977411    4.604225   -6.683643
  O      7.874482    5.747170   -5.875177
  H      8.627188    6.287161   -6.094258
  H      7.105510    4.039760   -6.817862
  H      8.320748    4.846511   -7.712900
  H      8.779991    3.915354   -6.304353

 Multiplicity           Mult            ....    1
 Number of Electrons    NEL             ....   18
 Basis Dimension        Dim             ....  172

ORBITAL ENERGIES
----------------

  NO   OCC          E(Eh)            E(eV)
   0   2.0000     -19.233206      -523.3621
   1   2.0000     -10.313252      -280.6379
   2   2.0000      -1.144107       -31.1327
   3   2.0000      -0.797685       -21.7061
   4   2.0000      -0.615571       -16.7505
   5   2.0000      -0.542968       -14.7749
   6   2.0000      -0.531157       -14.4535
   7   2.0000      -0.437522       -11.9056
   8   2.0000      -0.372153       -10.1268
   9   0.0000       0.072685         1.9779
  10   0.0000       0.123571         3.3625
  11   0.0000       0.152821         4.1585
  12   0.0000       0.171699         4.6722
  13   0.0000       0.199162         5.4195

MULLIKEN ATOMIC CHARGES
-----------------------
   0 C :   -0.000926
   1 O :   -0.002919
   2 H :   -0.001074
   3 H :    0.000064
   4 H :   -0.000030
   5 H :    0.000031
   6 C :   -0.176960
   7 O :   -0.460061
   8 H :    0.316628
   9 H :    0.129306
  10 H :    0.097326
  11 H :    0.098615
Sum of atomic charges:   -0.0000000

LOEWDIN ATOMIC CHARGES
----------------------
   0 C :   -0.001603
   1 O :   -0.015862
   2 H :   -0.002576
   3 H :   -0.000031
   4 H :   -0.000082
   5 H :   -0.000033
   6 C :   -0.394189
   7 O :   -0.053304
   8 H :    0.174884
   9 H :    0.095781
  10 H :    0.097513
  11 H :    0.099503

  Mayer bond orders larger than 0.1
B(  6-C ,  7-O ) :   0.9968 B(  6-C ,  9-H ) :   0.9709 B(  6-C , 10-H ) :   0.9779
B(  6-C , 11-H ) :   0.9802 B(  7-O ,  8-H ) :   0.9061

Dispersion correction           -0.000235617
FINAL SINGLE POINT ENERGY      -115.732497851798

DIPOLE MOMENT
-------------
                                X             Y             Z
Electronic contribution:     -0.45837       1.48561       1.20412
Nuclear contribution   :      0.94930      -1.58244      -1.66857
                        -----------------------------------------
Total Dipole Moment    :      0.49093      -0.09683      -0.46445
                        -----------------------------------------
Magnitude (a.u.)       :      0.68272
Magnitude (Debye)      :      1.73533

Rotational constants in cm-1:     4.396987     0.834153     0.806064
Rotational constants in MHz : 131818.356057 25007.279655 24165.180261

                             ****ORCA TERMINATED NORMALLY****
TOTAL RUN TIME: 0 days 0 hours 1 minutes 12 seconds 926 msec
