                         Program Version 4.1.2  - RELEASE  -
|  1> #Run DFT-D3 single point of the dimer
|  2> ! wB97X-D3 def2-TZVP TIGHTSCF CHELPG PMODEL PAL8
|  3>
|  4> %base "10-67_DFT_AB"
|  5>
|  6> %scf
|  7> MaxIter 1000
|  8> end
|  9>
| 10> * xyz 0 1
| 11>   C                      6.480167             4.850157             8.017725
| 12>   O                      6.846940             3.890680             7.044795
| 13>   H                      7.195709             4.304133             6.297054
| 14>   H                      7.306813             5.169564             8.669647
| 15>   H                      6.202793             5.826223             7.485602
| 16>   H                      5.554086             4.491351             8.572135
| 17>   C                      9.483842             9.346004             9.589253
| 18>   O                      8.387781             8.676984             8.933898
| 19>   H                      7.542698             9.153131             9.069171
| 20>   H                      10.021705            8.795723             10.367493
| 21>   H                      10.227128            9.549607             8.897891
| 22>   H                      9.104073             10.242843            10.093894
| 23> *
| 24>
| 25> #Run DFT-D3 single point of the molecule with dimer basis set
| 26> $new_job
| 27> %base "10-67_DFT_A"
| 28> ! wB97X-D3 def2-TZVP TIGHTSCF CHELPG PMODEL
| 29>
| 30> %scf
| 31> MaxIter 1000
| 32> end
| 33>
| 34> * xyz 0 1
| 35>   C                      6.480167             4.850157             8.017725
| 36>   O                      6.846940             3.890680             7.044795
| 37>   H                      7.195709             4.304133             6.297054
| 38>   H                      7.306813             5.169564             8.669647
| 39>   H                      6.202793             5.826223             7.485602
| 40>   H                      5.554086             4.491351             8.572135
| 41>   C                    : 9.483842             9.346004             9.589253
| 42>   O                    : 8.387781             8.676984             8.933898
| 43>   H                    : 7.542698             9.153131             9.069171
| 44>   H                    : 10.021705            8.795723             10.367493
| 45>   H                    : 10.227128            9.549607             8.897891
| 46>   H                    : 9.104073             10.242843            10.093894
| 47> *
| 48>
| 49> #Run DFT-D3 single point of the particle with dimer basis set
| 50> $new_job
| 51> %base "10-67_DFT_B"
| 52> ! wB97X-D3 def2-TZVP TIGHTSCF CHELPG PMODEL
| 53>
| 54> %scf
| 55> MaxIter 1000
| 56> end
| 57>
| 58> * xyz 0 1
| 59>   C                    : 6.480167             4.850157             8.017725
| 60>   O                    : 6.846940             3.890680             7.044795
| 61>   H                    : 7.195709             4.304133             6.297054
| 62>   H                    : 7.306813             5.169564             8.669647
| 63>   H                    : 6.202793             5.826223             7.485602
| 64>   H                    : 5.554086             4.491351             8.572135
| 65>   C                      9.483842             9.346004             9.589253
| 66>   O                      8.387781             8.676984             8.933898
| 67>   H                      7.542698             9.153131             9.069171
| 68>   H                      10.021705            8.795723             10.367493
| 69>   H                      10.227128            9.549607             8.897891
| 70>   H                      9.104073             10.242843            10.093894
| 71> *
| 72>
| 73>                          ****END OF INPUT****
 Total Charge           Charge          ....    0
 Multiplicity           Mult            ....    1
 Number of Electrons    NEL             ....   36
Dispersion correction           -0.000863504
FINAL SINGLE POINT ENERGY      -231.460618108559
Dispersion correction           -0.000255562
FINAL SINGLE POINT ENERGY      -115.730466841900

CARTESIAN COORDINATES (ANGSTROEM)
---------------------------------
  C      6.480167    4.850157    8.017725
  O      6.846940    3.890680    7.044795
  H      7.195709    4.304133    6.297054
  H      7.306813    5.169564    8.669647
  H      6.202793    5.826223    7.485602
  H      5.554086    4.491351    8.572135
  C      9.483842    9.346004    9.589253
  O      8.387781    8.676984    8.933898
  H      7.542698    9.153131    9.069171
  H     10.021705    8.795723   10.367493
  H     10.227128    9.549607    8.897891
  H      9.104073   10.242843   10.093894

 Multiplicity           Mult            ....    1
 Number of Electrons    NEL             ....   18
 Basis Dimension        Dim             ....  172

ORBITAL ENERGIES
----------------

  NO   OCC          E(Eh)            E(eV)
   0   2.0000     -19.230252      -523.2818
   1   2.0000     -10.310340      -280.5586
   2   2.0000      -1.121693       -30.5228
   3   2.0000      -0.802575       -21.8392
   4   2.0000      -0.605628       -16.4800
   5   2.0000      -0.541421       -14.7328
   6   2.0000      -0.529252       -14.4017
   7   2.0000      -0.429135       -11.6774
   8   2.0000      -0.372981       -10.1493
   9   0.0000       0.094048         2.5592
  10   0.0000       0.113462         3.0875
  11   0.0000       0.150390         4.0923
  12   0.0000       0.174544         4.7496
  13   0.0000       0.196037         5.3344

MULLIKEN ATOMIC CHARGES
-----------------------
   0 C :    0.000833
   1 O :   -0.000009
   2 H :   -0.000012
   3 H :   -0.002364
   4 H :   -0.000679
   5 H :   -0.000065
   6 C :   -0.159677
   7 O :   -0.489703
   8 H :    0.321509
   9 H :    0.105583
  10 H :    0.121622
  11 H :    0.102961
Sum of atomic charges:    0.0000000

LOEWDIN ATOMIC CHARGES
----------------------
   0 C :   -0.000827
   1 O :   -0.000012
   2 H :   -0.000001
   3 H :   -0.001082
   4 H :   -0.000319
   5 H :   -0.000004
   6 C :   -0.357527
   7 O :   -0.107556
   8 H :    0.178597
   9 H :    0.099973
  10 H :    0.088737
  11 H :    0.100022

  Mayer bond orders larger than 0.1
B(  6-C ,  7-O ) :   1.0069 B(  6-C ,  9-H ) :   0.9712 B(  6-C , 10-H ) :   0.9793
B(  6-C , 11-H ) :   0.9879 B(  7-O ,  8-H ) :   0.8938

Dispersion correction           -0.000262758
FINAL SINGLE POINT ENERGY      -115.729068328438

DIPOLE MOMENT
-------------
                                X             Y             Z
Electronic contribution:     -1.26673      -0.93133      -0.91632
Nuclear contribution   :      1.19341       1.54149       1.28169
                        -----------------------------------------
Total Dipole Moment    :     -0.07332       0.61016       0.36537
                        -----------------------------------------
Magnitude (a.u.)       :      0.71496
Magnitude (Debye)      :      1.81728

Rotational constants in cm-1:     4.508709     0.802863     0.766789
Rotational constants in MHz : 135167.694638 24069.230003 22987.755532

                             ****ORCA TERMINATED NORMALLY****
TOTAL RUN TIME: 0 days 0 hours 1 minutes 4 seconds 627 msec
