                         Program Version 4.1.2  - RELEASE  -
|  1> #Run DFT-D3 single point of the dimer
|  2> ! wB97X-D3 def2-TZVP TIGHTSCF CHELPG PMODEL PAL8
|  3>
|  4> %base "4-163_DFT_AB"
|  5>
|  6> %scf
|  7> MaxIter 1000
|  8> end
|  9>
| 10> * xyz 0 1
| 11>   C                      2.722578             4.133135             -4.885620
| 12>   O                      4.120572             4.134643             -4.407210
| 13>   H                      4.093610             4.370129             -3.497614
| 14>   H                      2.658445             4.004755             -5.980850
| 15>   H                      2.083581             3.392493             -4.388767
| 16>   H                      2.263852             5.133771             -4.764851
| 17>   C                      3.447843             2.517981             -1.564311
| 18>   O                      3.630382             3.821687             -1.008966
| 19>   H                      4.407714             3.800133             -0.523055
| 20>   H                      4.241171             2.142604             -2.181179
| 21>   H                      3.166179             1.787980             -0.901512
| 22>   H                      2.565668             2.317214             -2.178707
| 23> *
| 24>
| 25> #Run DFT-D3 single point of the molecule with dimer basis set
| 26> $new_job
| 27> %base "4-163_DFT_A"
| 28> ! wB97X-D3 def2-TZVP TIGHTSCF CHELPG PMODEL
| 29>
| 30> %scf
| 31> MaxIter 1000
| 32> end
| 33>
| 34> * xyz 0 1
| 35>   C                      2.722578             4.133135             -4.885620
| 36>   O                      4.120572             4.134643             -4.407210
| 37>   H                      4.093610             4.370129             -3.497614
| 38>   H                      2.658445             4.004755             -5.980850
| 39>   H                      2.083581             3.392493             -4.388767
| 40>   H                      2.263852             5.133771             -4.764851
| 41>   C                    : 3.447843             2.517981             -1.564311
| 42>   O                    : 3.630382             3.821687             -1.008966
| 43>   H                    : 4.407714             3.800133             -0.523055
| 44>   H                    : 4.241171             2.142604             -2.181179
| 45>   H                    : 3.166179             1.787980             -0.901512
| 46>   H                    : 2.565668             2.317214             -2.178707
| 47> *
| 48>
| 49> #Run DFT-D3 single point of the particle with dimer basis set
| 50> $new_job
| 51> %base "4-163_DFT_B"
| 52> ! wB97X-D3 def2-TZVP TIGHTSCF CHELPG PMODEL
| 53>
| 54> %scf
| 55> MaxIter 1000
| 56> end
| 57>
| 58> * xyz 0 1
| 59>   C                    : 2.722578             4.133135             -4.885620
| 60>   O                    : 4.120572             4.134643             -4.407210
| 61>   H                    : 4.093610             4.370129             -3.497614
| 62>   H                    : 2.658445             4.004755             -5.980850
| 63>   H                    : 2.083581             3.392493             -4.388767
| 64>   H                    : 2.263852             5.133771             -4.764851
| 65>   C                      3.447843             2.517981             -1.564311
| 66>   O                      3.630382             3.821687             -1.008966
| 67>   H                      4.407714             3.800133             -0.523055
| 68>   H                      4.241171             2.142604             -2.181179
| 69>   H                      3.166179             1.787980             -0.901512
| 70>   H                      2.565668             2.317214             -2.178707
| 71> *
| 72>
| 73>                          ****END OF INPUT****
 Total Charge           Charge          ....    0
 Multiplicity           Mult            ....    1
 Number of Electrons    NEL             ....   36
Dispersion correction           -0.002217645
FINAL SINGLE POINT ENERGY      -231.457338815322
Dispersion correction           -0.000277858
FINAL SINGLE POINT ENERGY      -115.732824883561

CARTESIAN COORDINATES (ANGSTROEM)
---------------------------------
  C      2.722578    4.133135   -4.885620
  O      4.120572    4.134643   -4.407210
  H      4.093610    4.370129   -3.497614
  H      2.658445    4.004755   -5.980850
  H      2.083581    3.392493   -4.388767
  H      2.263852    5.133771   -4.764851
  C      3.447843    2.517981   -1.564311
  O      3.630382    3.821687   -1.008966
  H      4.407714    3.800133   -0.523055
  H      4.241171    2.142604   -2.181179
  H      3.166179    1.787980   -0.901512
  H      2.565668    2.317214   -2.178707

 Multiplicity           Mult            ....    1
 Number of Electrons    NEL             ....   18
 Basis Dimension        Dim             ....  172

ORBITAL ENERGIES
----------------

  NO   OCC          E(Eh)            E(eV)
   0   2.0000     -19.232971      -523.3557
   1   2.0000     -10.304929      -280.4114
   2   2.0000      -1.143561       -31.1179
   3   2.0000      -0.815278       -22.1848
   4   2.0000      -0.619132       -16.8474
   5   2.0000      -0.552239       -15.0272
   6   2.0000      -0.523965       -14.2578
   7   2.0000      -0.428628       -11.6635
   8   2.0000      -0.382283       -10.4024
   9   0.0000       0.094876         2.5817
  10   0.0000       0.128168         3.4876
  11   0.0000       0.147738         4.0201
  12   0.0000       0.177808         4.8384
  13   0.0000       0.198965         5.4141

MULLIKEN ATOMIC CHARGES
-----------------------
   0 C :    0.001285
   1 O :    0.000267
   2 H :   -0.004107
   3 H :    0.000129
   4 H :   -0.000413
   5 H :   -0.000305
   6 C :   -0.193215
   7 O :   -0.464304
   8 H :    0.310093
   9 H :    0.114029
  10 H :    0.120812
  11 H :    0.115728
Sum of atomic charges:    0.0000000

LOEWDIN ATOMIC CHARGES
----------------------
   0 C :   -0.003403
   1 O :   -0.001474
   2 H :   -0.010547
   3 H :   -0.000008
   4 H :   -0.003600
   5 H :   -0.000037
   6 C :   -0.375922
   7 O :   -0.048999
   8 H :    0.143101
   9 H :    0.096589
  10 H :    0.085964
  11 H :    0.118336

  Mayer bond orders larger than 0.1
B(  6-C ,  7-O ) :   0.9906 B(  6-C ,  9-H ) :   0.9823 B(  6-C , 10-H ) :   0.9712
B(  6-C , 11-H ) :   0.9743 B(  7-O ,  8-H ) :   0.9081

Dispersion correction           -0.000263726
FINAL SINGLE POINT ENERGY      -115.719290816349

DIPOLE MOMENT
-------------
                                X             Y             Z
Electronic contribution:      0.25095       1.87207       0.75183
Nuclear contribution   :      0.14239      -2.45287      -0.64895
                        -----------------------------------------
Total Dipole Moment    :      0.39333      -0.58080       0.10288
                        -----------------------------------------
Magnitude (a.u.)       :      0.70896
Magnitude (Debye)      :      1.80203

Rotational constants in cm-1:     4.970098     0.799445     0.776265
Rotational constants in MHz : 148999.777142 23966.745486 23271.847078

                             ****ORCA TERMINATED NORMALLY****
TOTAL RUN TIME: 0 days 0 hours 1 minutes 30 seconds 731 msec
