                         Program Version 4.1.2  - RELEASE  -
|  1> #Run DFT-D3 single point of the dimer
|  2> ! wB97X-D3 def2-TZVP TIGHTSCF CHELPG PMODEL PAL8
|  3>
|  4> %base "18-0_DFT_AB"
|  5>
|  6> %scf
|  7> MaxIter 1000
|  8> end
|  9>
| 10> * xyz 0 1
| 11>   C                      -10.687114           6.522365             10.912415
| 12>   O                      -10.958699           6.462439             9.495698
| 13>   H                      -11.915597           6.359913             9.432105
| 14>   H                      -9.694428            7.019205             11.201935
| 15>   H                      -11.404788           6.987728             11.574306
| 16>   H                      -10.535777           5.492168             11.351259
| 17>   C                      -7.533343            9.986893             10.024184
| 18>   O                      -8.434405            9.247854             9.253754
| 19>   H                      -9.360903            9.576773             9.322728
| 20>   H                      -7.287358            10.958760            9.543611
| 21>   H                      -7.914960            10.142009            11.017530
| 22>   H                      -6.603391            9.494522             10.069739
| 23> *
| 24>
| 25> #Run DFT-D3 single point of the molecule with dimer basis set
| 26> $new_job
| 27> %base "18-0_DFT_A"
| 28> ! wB97X-D3 def2-TZVP TIGHTSCF CHELPG PMODEL
| 29>
| 30> %scf
| 31> MaxIter 1000
| 32> end
| 33>
| 34> * xyz 0 1
| 35>   C                      -10.687114           6.522365             10.912415
| 36>   O                      -10.958699           6.462439             9.495698
| 37>   H                      -11.915597           6.359913             9.432105
| 38>   H                      -9.694428            7.019205             11.201935
| 39>   H                      -11.404788           6.987728             11.574306
| 40>   H                      -10.535777           5.492168             11.351259
| 41>   C                    : -7.533343            9.986893             10.024184
| 42>   O                    : -8.434405            9.247854             9.253754
| 43>   H                    : -9.360903            9.576773             9.322728
| 44>   H                    : -7.287358            10.958760            9.543611
| 45>   H                    : -7.914960            10.142009            11.017530
| 46>   H                    : -6.603391            9.494522             10.069739
| 47> *
| 48>
| 49> #Run DFT-D3 single point of the particle with dimer basis set
| 50> $new_job
| 51> %base "18-0_DFT_B"
| 52> ! wB97X-D3 def2-TZVP TIGHTSCF CHELPG PMODEL
| 53>
| 54> %scf
| 55> MaxIter 1000
| 56> end
| 57>
| 58> * xyz 0 1
| 59>   C                    : -10.687114           6.522365             10.912415
| 60>   O                    : -10.958699           6.462439             9.495698
| 61>   H                    : -11.915597           6.359913             9.432105
| 62>   H                    : -9.694428            7.019205             11.201935
| 63>   H                    : -11.404788           6.987728             11.574306
| 64>   H                    : -10.535777           5.492168             11.351259
| 65>   C                      -7.533343            9.986893             10.024184
| 66>   O                      -8.434405            9.247854             9.253754
| 67>   H                      -9.360903            9.576773             9.322728
| 68>   H                      -7.287358            10.958760            9.543611
| 69>   H                      -7.914960            10.142009            11.017530
| 70>   H                      -6.603391            9.494522             10.069739
| 71> *
| 72>
| 73>                          ****END OF INPUT****
 Total Charge           Charge          ....    0
 Multiplicity           Mult            ....    1
 Number of Electrons    NEL             ....   36
Dispersion correction           -0.001371061
FINAL SINGLE POINT ENERGY      -231.462791775814
Dispersion correction           -0.000290151
FINAL SINGLE POINT ENERGY      -115.728427224657

CARTESIAN COORDINATES (ANGSTROEM)
---------------------------------
  C    -10.687114    6.522365   10.912415
  O    -10.958699    6.462439    9.495698
  H    -11.915597    6.359913    9.432105
  H     -9.694428    7.019205   11.201935
  H    -11.404788    6.987728   11.574306
  H    -10.535777    5.492168   11.351259
  C     -7.533343    9.986893   10.024184
  O     -8.434405    9.247854    9.253754
  H     -9.360903    9.576773    9.322728
  H     -7.287358   10.958760    9.543611
  H     -7.914960   10.142009   11.017530
  H     -6.603391    9.494522   10.069739

 Multiplicity           Mult            ....    1
 Number of Electrons    NEL             ....   18
 Basis Dimension        Dim             ....  172

ORBITAL ENERGIES
----------------

  NO   OCC          E(Eh)            E(eV)
   0   2.0000     -19.229666      -523.2658
   1   2.0000     -10.306421      -280.4520
   2   2.0000      -1.133122       -30.8338
   3   2.0000      -0.798339       -21.7239
   4   2.0000      -0.610625       -16.6159
   5   2.0000      -0.545479       -14.8432
   6   2.0000      -0.533208       -14.5093
   7   2.0000      -0.426657       -11.6099
   8   2.0000      -0.370395       -10.0789
   9   0.0000       0.084242         2.2923
  10   0.0000       0.122830         3.3424
  11   0.0000       0.150038         4.0827
  12   0.0000       0.171223         4.6592
  13   0.0000       0.198973         5.4143

MULLIKEN ATOMIC CHARGES
-----------------------
   0 C :   -0.001484
   1 O :    0.000268
   2 H :    0.000066
   3 H :   -0.004051
   4 H :    0.000226
   5 H :   -0.000263
   6 C :   -0.145363
   7 O :   -0.483377
   8 H :    0.320912
   9 H :    0.091388
  10 H :    0.100620
  11 H :    0.121057
Sum of atomic charges:    0.0000000

LOEWDIN ATOMIC CHARGES
----------------------
   0 C :   -0.003280
   1 O :   -0.000422
   2 H :   -0.000027
   3 H :   -0.003071
   4 H :   -0.000032
   5 H :   -0.000049
   6 C :   -0.391558
   7 O :   -0.074354
   8 H :    0.183880
   9 H :    0.097174
  10 H :    0.091590
  11 H :    0.100149

  Mayer bond orders larger than 0.1
B(  6-C ,  7-O ) :   1.0002 B(  6-C ,  9-H ) :   0.9765 B(  6-C , 10-H ) :   0.9827
B(  6-C , 11-H ) :   0.9735 B(  7-O ,  8-H ) :   0.8888

Dispersion correction           -0.000242284
FINAL SINGLE POINT ENERGY      -115.734256067420

DIPOLE MOMENT
-------------
                                X             Y             Z
Electronic contribution:     -1.04759      -1.06489      -0.96372
Nuclear contribution   :      0.83482       1.56333       1.32059
                        -----------------------------------------
Total Dipole Moment    :     -0.21277       0.49844       0.35688
                        -----------------------------------------
Magnitude (a.u.)       :      0.64890
Magnitude (Debye)      :      1.64938

Rotational constants in cm-1:     4.410190     0.840902     0.814882
Rotational constants in MHz : 132214.184581 25209.599428 24429.535090

                             ****ORCA TERMINATED NORMALLY****
TOTAL RUN TIME: 0 days 0 hours 1 minutes 5 seconds 768 msec
