                         Program Version 4.1.2  - RELEASE  -
|  1> #Run DFT-D3 single point of the dimer
|  2> ! wB97X-D3 def2-TZVP TIGHTSCF CHELPG PMODEL PAL8
|  3>
|  4> %base "18-22_DFT_AB"
|  5>
|  6> %scf
|  7> MaxIter 1000
|  8> end
|  9>
| 10> * xyz 0 1
| 11>   C                      -5.176520            -0.642955            5.468790
| 12>   O                      -4.038877            -1.295501            5.945422
| 13>   H                      -4.126203            -2.205438            5.650035
| 14>   H                      -5.286508            -0.774904            4.375683
| 15>   H                      -6.105946            -0.911018            5.899308
| 16>   H                      -5.090722            0.414521             5.747167
| 17>   C                      -3.528699            -0.465896            9.810445
| 18>   O                      -2.873749            0.137173             10.908916
| 19>   H                      -2.248066            0.745809             10.522661
| 20>   H                      -2.938057            -0.482912            8.871081
| 21>   H                      -3.683485            -1.523379            9.932027
| 22>   H                      -4.535832            -0.016877            9.543679
| 23> *
| 24>
| 25> #Run DFT-D3 single point of the molecule with dimer basis set
| 26> $new_job
| 27> %base "18-22_DFT_A"
| 28> ! wB97X-D3 def2-TZVP TIGHTSCF CHELPG PMODEL
| 29>
| 30> %scf
| 31> MaxIter 1000
| 32> end
| 33>
| 34> * xyz 0 1
| 35>   C                      -5.176520            -0.642955            5.468790
| 36>   O                      -4.038877            -1.295501            5.945422
| 37>   H                      -4.126203            -2.205438            5.650035
| 38>   H                      -5.286508            -0.774904            4.375683
| 39>   H                      -6.105946            -0.911018            5.899308
| 40>   H                      -5.090722            0.414521             5.747167
| 41>   C                    : -3.528699            -0.465896            9.810445
| 42>   O                    : -2.873749            0.137173             10.908916
| 43>   H                    : -2.248066            0.745809             10.522661
| 44>   H                    : -2.938057            -0.482912            8.871081
| 45>   H                    : -3.683485            -1.523379            9.932027
| 46>   H                    : -4.535832            -0.016877            9.543679
| 47> *
| 48>
| 49> #Run DFT-D3 single point of the particle with dimer basis set
| 50> $new_job
| 51> %base "18-22_DFT_B"
| 52> ! wB97X-D3 def2-TZVP TIGHTSCF CHELPG PMODEL
| 53>
| 54> %scf
| 55> MaxIter 1000
| 56> end
| 57>
| 58> * xyz 0 1
| 59>   C                    : -5.176520            -0.642955            5.468790
| 60>   O                    : -4.038877            -1.295501            5.945422
| 61>   H                    : -4.126203            -2.205438            5.650035
| 62>   H                    : -5.286508            -0.774904            4.375683
| 63>   H                    : -6.105946            -0.911018            5.899308
| 64>   H                    : -5.090722            0.414521             5.747167
| 65>   C                      -3.528699            -0.465896            9.810445
| 66>   O                      -2.873749            0.137173             10.908916
| 67>   H                      -2.248066            0.745809             10.522661
| 68>   H                      -2.938057            -0.482912            8.871081
| 69>   H                      -3.683485            -1.523379            9.932027
| 70>   H                      -4.535832            -0.016877            9.543679
| 71> *
| 72>
| 73>                          ****END OF INPUT****
 Total Charge           Charge          ....    0
 Multiplicity           Mult            ....    1
 Number of Electrons    NEL             ....   36
Dispersion correction           -0.001168939
FINAL SINGLE POINT ENERGY      -231.468033047797
Dispersion correction           -0.000229559
FINAL SINGLE POINT ENERGY      -115.734324034807

CARTESIAN COORDINATES (ANGSTROEM)
---------------------------------
  C     -5.176520   -0.642955    5.468790
  O     -4.038877   -1.295501    5.945422
  H     -4.126203   -2.205438    5.650035
  H     -5.286508   -0.774904    4.375683
  H     -6.105946   -0.911018    5.899308
  H     -5.090722    0.414521    5.747167
  C     -3.528699   -0.465896    9.810445
  O     -2.873749    0.137173   10.908916
  H     -2.248066    0.745809   10.522661
  H     -2.938057   -0.482912    8.871081
  H     -3.683485   -1.523379    9.932027
  H     -4.535832   -0.016877    9.543679

 Multiplicity           Mult            ....    1
 Number of Electrons    NEL             ....   18
 Basis Dimension        Dim             ....  172

ORBITAL ENERGIES
----------------

  NO   OCC          E(Eh)            E(eV)
   0   2.0000     -19.235682      -523.4295
   1   2.0000     -10.317249      -280.7466
   2   2.0000      -1.141562       -31.0635
   3   2.0000      -0.795381       -21.6434
   4   2.0000      -0.614521       -16.7220
   5   2.0000      -0.538038       -14.6408
   6   2.0000      -0.526170       -14.3178
   7   2.0000      -0.433378       -11.7928
   8   2.0000      -0.377853       -10.2819
   9   0.0000       0.078024         2.1231
  10   0.0000       0.115937         3.1548
  11   0.0000       0.145182         3.9506
  12   0.0000       0.158795         4.3210
  13   0.0000       0.187024         5.0892

MULLIKEN ATOMIC CHARGES
-----------------------
   0 C :   -0.000369
   1 O :    0.000045
   2 H :   -0.000025
   3 H :   -0.000015
   4 H :    0.000001
   5 H :   -0.000111
   6 C :   -0.179350
   7 O :   -0.460468
   8 H :    0.318880
   9 H :    0.103644
  10 H :    0.119019
  11 H :    0.098748
Sum of atomic charges:   -0.0000000

LOEWDIN ATOMIC CHARGES
----------------------
   0 C :   -0.000461
   1 O :   -0.000691
   2 H :   -0.000065
   3 H :   -0.000009
   4 H :   -0.000030
   5 H :   -0.000106
   6 C :   -0.401183
   7 O :   -0.068570
   8 H :    0.169698
   9 H :    0.099104
  10 H :    0.100068
  11 H :    0.102246

  Mayer bond orders larger than 0.1
B(  6-C ,  7-O ) :   1.0182 B(  6-C ,  9-H ) :   0.9817 B(  6-C , 10-H ) :   0.9726
B(  6-C , 11-H ) :   0.9708 B(  7-O ,  8-H ) :   0.9008

Dispersion correction           -0.000266439
FINAL SINGLE POINT ENERGY      -115.732043189515

DIPOLE MOMENT
-------------
                                X             Y             Z
Electronic contribution:      0.82328       0.77350       1.67960
Nuclear contribution   :     -0.64095      -0.64505      -2.35534
                        -----------------------------------------
Total Dipole Moment    :      0.18232       0.12845      -0.67574
                        -----------------------------------------
Magnitude (a.u.)       :      0.71159
Magnitude (Debye)      :      1.80873

Rotational constants in cm-1:     4.372160     0.813447     0.792779
Rotational constants in MHz : 131074.064033 24386.523272 23766.926004

                             ****ORCA TERMINATED NORMALLY****
TOTAL RUN TIME: 0 days 0 hours 1 minutes 2 seconds 968 msec
