                         Program Version 4.1.2  - RELEASE  -
|  1> #Run DFT-D3 single point of the dimer
|  2> ! wB97X-D3 def2-TZVP TIGHTSCF CHELPG PMODEL PAL8
|  3>
|  4> %base "19-218_DFT_AB"
|  5>
|  6> %scf
|  7> MaxIter 1000
|  8> end
|  9>
| 10> * xyz 0 1
| 11>   C                      6.919599             9.058692             -3.158275
| 12>   O                      8.019417             9.760549             -3.610489
| 13>   H                      7.734549             10.559008            -4.039100
| 14>   H                      7.207439             8.083868             -2.804231
| 15>   H                      6.309930             9.559886             -2.331122
| 16>   H                      6.251835             8.980277             -4.078262
| 17>   C                      9.426717             9.570912             -0.305109
| 18>   O                      9.101624             8.555188             -1.241362
| 19>   H                      8.837324             8.968889             -2.118963
| 20>   H                      8.631840             10.246299            -0.332413
| 21>   H                      9.412705             9.170977             0.728972
| 22>   H                      10.283593            10.141880            -0.557402
| 23> *
| 24>
| 25> #Run DFT-D3 single point of the molecule with dimer basis set
| 26> $new_job
| 27> %base "19-218_DFT_A"
| 28> ! wB97X-D3 def2-TZVP TIGHTSCF CHELPG PMODEL
| 29>
| 30> %scf
| 31> MaxIter 1000
| 32> end
| 33>
| 34> * xyz 0 1
| 35>   C                      6.919599             9.058692             -3.158275
| 36>   O                      8.019417             9.760549             -3.610489
| 37>   H                      7.734549             10.559008            -4.039100
| 38>   H                      7.207439             8.083868             -2.804231
| 39>   H                      6.309930             9.559886             -2.331122
| 40>   H                      6.251835             8.980277             -4.078262
| 41>   C                    : 9.426717             9.570912             -0.305109
| 42>   O                    : 9.101624             8.555188             -1.241362
| 43>   H                    : 8.837324             8.968889             -2.118963
| 44>   H                    : 8.631840             10.246299            -0.332413
| 45>   H                    : 9.412705             9.170977             0.728972
| 46>   H                    : 10.283593            10.141880            -0.557402
| 47> *
| 48>
| 49> #Run DFT-D3 single point of the particle with dimer basis set
| 50> $new_job
| 51> %base "19-218_DFT_B"
| 52> ! wB97X-D3 def2-TZVP TIGHTSCF CHELPG PMODEL
| 53>
| 54> %scf
| 55> MaxIter 1000
| 56> end
| 57>
| 58> * xyz 0 1
| 59>   C                    : 6.919599             9.058692             -3.158275
| 60>   O                    : 8.019417             9.760549             -3.610489
| 61>   H                    : 7.734549             10.559008            -4.039100
| 62>   H                    : 7.207439             8.083868             -2.804231
| 63>   H                    : 6.309930             9.559886             -2.331122
| 64>   H                    : 6.251835             8.980277             -4.078262
| 65>   C                      9.426717             9.570912             -0.305109
| 66>   O                      9.101624             8.555188             -1.241362
| 67>   H                      8.837324             8.968889             -2.118963
| 68>   H                      8.631840             10.246299            -0.332413
| 69>   H                      9.412705             9.170977             0.728972
| 70>   H                      10.283593            10.141880            -0.557402
| 71> *
| 72>
| 73>                          ****END OF INPUT****
 Total Charge           Charge          ....    0
 Multiplicity           Mult            ....    1
 Number of Electrons    NEL             ....   36
Dispersion correction           -0.002013129
FINAL SINGLE POINT ENERGY      -231.465409758178
Dispersion correction           -0.000232713
FINAL SINGLE POINT ENERGY      -115.731679622862

CARTESIAN COORDINATES (ANGSTROEM)
---------------------------------
  C      6.919599    9.058692   -3.158275
  O      8.019417    9.760549   -3.610489
  H      7.734549   10.559008   -4.039100
  H      7.207439    8.083868   -2.804231
  H      6.309930    9.559886   -2.331122
  H      6.251835    8.980277   -4.078262
  C      9.426717    9.570912   -0.305109
  O      9.101624    8.555188   -1.241362
  H      8.837324    8.968889   -2.118963
  H      8.631840   10.246299   -0.332413
  H      9.412705    9.170977    0.728972
  H     10.283593   10.141880   -0.557402

 Multiplicity           Mult            ....    1
 Number of Electrons    NEL             ....   18
 Basis Dimension        Dim             ....  172

ORBITAL ENERGIES
----------------

  NO   OCC          E(Eh)            E(eV)
   0   2.0000     -19.232467      -523.3420
   1   2.0000     -10.305699      -280.4323
   2   2.0000      -1.125187       -30.6179
   3   2.0000      -0.798233       -21.7210
   4   2.0000      -0.608729       -16.5644
   5   2.0000      -0.547264       -14.8918
   6   2.0000      -0.525668       -14.3042
   7   2.0000      -0.430435       -11.7127
   8   2.0000      -0.372001       -10.1227
   9   0.0000       0.070898         1.9292
  10   0.0000       0.140431         3.8213
  11   0.0000       0.152877         4.1600
  12   0.0000       0.163065         4.4372
  13   0.0000       0.186157         5.0656

MULLIKEN ATOMIC CHARGES
-----------------------
   0 C :   -0.018330
   1 O :   -0.001697
   2 H :   -0.000072
   3 H :   -0.001594
   4 H :    0.001831
   5 H :   -0.001008
   6 C :   -0.163571
   7 O :   -0.470371
   8 H :    0.318529
   9 H :    0.106236
  10 H :    0.121299
  11 H :    0.108747
Sum of atomic charges:    0.0000000

LOEWDIN ATOMIC CHARGES
----------------------
   0 C :   -0.029514
   1 O :   -0.020981
   2 H :   -0.000931
   3 H :   -0.009256
   4 H :   -0.001411
   5 H :   -0.000409
   6 C :   -0.372309
   7 O :   -0.073041
   8 H :    0.216599
   9 H :    0.086557
  10 H :    0.115588
  11 H :    0.089108

  Mayer bond orders larger than 0.1
B(  6-C ,  7-O ) :   0.9941 B(  6-C ,  9-H ) :   0.9848 B(  6-C , 10-H ) :   0.9703
B(  6-C , 11-H ) :   0.9787 B(  7-O ,  8-H ) :   0.8925

Dispersion correction           -0.000229827
FINAL SINGLE POINT ENERGY      -115.729258257344

DIPOLE MOMENT
-------------
                                X             Y             Z
Electronic contribution:     -0.21302      -1.39898      -1.02057
Nuclear contribution   :      0.16298       2.09604       0.87908
                        -----------------------------------------
Total Dipole Moment    :     -0.05004       0.69706      -0.14149
                        -----------------------------------------
Magnitude (a.u.)       :      0.71304
Magnitude (Debye)      :      1.81240

Rotational constants in cm-1:     4.380497     0.832465     0.794240
Rotational constants in MHz : 131324.006645 24956.658023 23810.709935

                             ****ORCA TERMINATED NORMALLY****
TOTAL RUN TIME: 0 days 0 hours 0 minutes 52 seconds 237 msec
