                         Program Version 4.1.2  - RELEASE  -
|  1> #Run DFT-D3 single point of the dimer
|  2> ! wB97X-D3 def2-TZVP TIGHTSCF CHELPG PMODEL PAL8
|  3>
|  4> %base "20-140_DFT_AB"
|  5>
|  6> %scf
|  7> MaxIter 1000
|  8> end
|  9>
| 10> * xyz 0 1
| 11>   C                      -4.905139            5.262568             -10.301868
| 12>   O                      -4.333922            5.021783             -9.019390
| 13>   H                      -4.942635            5.445550             -8.437080
| 14>   H                      -4.087589            5.285542             -11.069867
| 15>   H                      -5.760049            4.649201             -10.628340
| 16>   H                      -5.338715            6.228068             -10.267397
| 17>   C                      -7.808286            3.449472             -8.622125
| 18>   O                      -7.706338            3.599859             -7.196613
| 19>   H                      -8.188647            2.857284             -6.813448
| 20>   H                      -7.272703            4.306873             -9.125757
| 21>   H                      -7.322439            2.553376             -9.007611
| 22>   H                      -8.796503            3.293070             -9.010614
| 23> *
| 24>
| 25> #Run DFT-D3 single point of the molecule with dimer basis set
| 26> $new_job
| 27> %base "20-140_DFT_A"
| 28> ! wB97X-D3 def2-TZVP TIGHTSCF CHELPG PMODEL
| 29>
| 30> %scf
| 31> MaxIter 1000
| 32> end
| 33>
| 34> * xyz 0 1
| 35>   C                      -4.905139            5.262568             -10.301868
| 36>   O                      -4.333922            5.021783             -9.019390
| 37>   H                      -4.942635            5.445550             -8.437080
| 38>   H                      -4.087589            5.285542             -11.069867
| 39>   H                      -5.760049            4.649201             -10.628340
| 40>   H                      -5.338715            6.228068             -10.267397
| 41>   C                    : -7.808286            3.449472             -8.622125
| 42>   O                    : -7.706338            3.599859             -7.196613
| 43>   H                    : -8.188647            2.857284             -6.813448
| 44>   H                    : -7.272703            4.306873             -9.125757
| 45>   H                    : -7.322439            2.553376             -9.007611
| 46>   H                    : -8.796503            3.293070             -9.010614
| 47> *
| 48>
| 49> #Run DFT-D3 single point of the particle with dimer basis set
| 50> $new_job
| 51> %base "20-140_DFT_B"
| 52> ! wB97X-D3 def2-TZVP TIGHTSCF CHELPG PMODEL
| 53>
| 54> %scf
| 55> MaxIter 1000
| 56> end
| 57>
| 58> * xyz 0 1
| 59>   C                    : -4.905139            5.262568             -10.301868
| 60>   O                    : -4.333922            5.021783             -9.019390
| 61>   H                    : -4.942635            5.445550             -8.437080
| 62>   H                    : -4.087589            5.285542             -11.069867
| 63>   H                    : -5.760049            4.649201             -10.628340
| 64>   H                    : -5.338715            6.228068             -10.267397
| 65>   C                      -7.808286            3.449472             -8.622125
| 66>   O                      -7.706338            3.599859             -7.196613
| 67>   H                      -8.188647            2.857284             -6.813448
| 68>   H                      -7.272703            4.306873             -9.125757
| 69>   H                      -7.322439            2.553376             -9.007611
| 70>   H                      -8.796503            3.293070             -9.010614
| 71> *
| 72>
| 73>                          ****END OF INPUT****
 Total Charge           Charge          ....    0
 Multiplicity           Mult            ....    1
 Number of Electrons    NEL             ....   36
Dispersion correction           -0.001788170
FINAL SINGLE POINT ENERGY      -231.463644744093
Dispersion correction           -0.000237191
FINAL SINGLE POINT ENERGY      -115.730439869817

CARTESIAN COORDINATES (ANGSTROEM)
---------------------------------
  C     -4.905139    5.262568  -10.301868
  O     -4.333922    5.021783   -9.019390
  H     -4.942635    5.445550   -8.437080
  H     -4.087589    5.285542  -11.069867
  H     -5.760049    4.649201  -10.628340
  H     -5.338715    6.228068  -10.267397
  C     -7.808286    3.449472   -8.622125
  O     -7.706338    3.599859   -7.196613
  H     -8.188647    2.857284   -6.813448
  H     -7.272703    4.306873   -9.125757
  H     -7.322439    2.553376   -9.007611
  H     -8.796503    3.293070   -9.010614

 Multiplicity           Mult            ....    1
 Number of Electrons    NEL             ....   18
 Basis Dimension        Dim             ....  172

ORBITAL ENERGIES
----------------

  NO   OCC          E(Eh)            E(eV)
   0   2.0000     -19.234797      -523.4054
   1   2.0000     -10.316123      -280.7160
   2   2.0000      -1.131024       -30.7767
   3   2.0000      -0.796863       -21.6838
   4   2.0000      -0.614252       -16.7146
   5   2.0000      -0.530869       -14.4457
   6   2.0000      -0.518723       -14.1152
   7   2.0000      -0.444466       -12.0945
   8   2.0000      -0.373817       -10.1721
   9   0.0000       0.089497         2.4353
  10   0.0000       0.116890         3.1807
  11   0.0000       0.151798         4.1306
  12   0.0000       0.173758         4.7282
  13   0.0000       0.184907         5.0316

MULLIKEN ATOMIC CHARGES
-----------------------
   0 C :    0.002229
   1 O :    0.000177
   2 H :    0.000066
   3 H :   -0.000030
   4 H :   -0.002563
   5 H :   -0.000930
   6 C :   -0.180011
   7 O :   -0.466853
   8 H :    0.312650
   9 H :    0.126302
  10 H :    0.101490
  11 H :    0.107473
Sum of atomic charges:   -0.0000000

LOEWDIN ATOMIC CHARGES
----------------------
   0 C :   -0.008039
   1 O :   -0.000309
   2 H :   -0.001051
   3 H :   -0.000052
   4 H :   -0.006142
   5 H :   -0.000443
   6 C :   -0.374953
   7 O :   -0.089390
   8 H :    0.170742
   9 H :    0.125449
  10 H :    0.093940
  11 H :    0.090248

  Mayer bond orders larger than 0.1
B(  6-C ,  7-O ) :   1.0028 B(  6-C ,  9-H ) :   0.9745 B(  6-C , 10-H ) :   0.9759
B(  6-C , 11-H ) :   0.9687 B(  7-O ,  8-H ) :   0.9001

Dispersion correction           -0.000258181
FINAL SINGLE POINT ENERGY      -115.732260686565

DIPOLE MOMENT
-------------
                                X             Y             Z
Electronic contribution:      0.12676       0.37882       1.89231
Nuclear contribution   :     -0.47481      -0.92598      -2.22524
                        -----------------------------------------
Total Dipole Moment    :     -0.34805      -0.54716      -0.33293
                        -----------------------------------------
Magnitude (a.u.)       :      0.72895
Magnitude (Debye)      :      1.85283

Rotational constants in cm-1:     4.344662     0.809444     0.766916
Rotational constants in MHz : 130249.679674 24266.522587 22991.552299

                             ****ORCA TERMINATED NORMALLY****
TOTAL RUN TIME: 0 days 0 hours 0 minutes 54 seconds 199 msec
