                         Program Version 4.1.2  - RELEASE  -
|  1> #Run DFT-D3 single point of the dimer
|  2> ! wB97X-D3 def2-TZVP TIGHTSCF CHELPG PMODEL PAL8
|  3>
|  4> %base "19-14_DFT_AB"
|  5>
|  6> %scf
|  7> MaxIter 1000
|  8> end
|  9>
| 10> * xyz 0 1
| 11>   C                      -7.667179            -9.209066            3.339312
| 12>   O                      -8.331323            -9.779651            4.428187
| 13>   H                      -8.630029            -10.674345           4.174091
| 14>   H                      -6.594837            -9.317972            3.473686
| 15>   H                      -7.952272            -9.648018            2.417688
| 16>   H                      -7.931544            -8.142269            3.023550
| 17>   C                      -8.379231            -10.765680           -0.424398
| 18>   O                      -8.380720            -11.920093           -1.267980
| 19>   H                      -8.745257            -11.575654           -2.064026
| 20>   H                      -7.604420            -10.957840           0.376978
| 21>   H                      -8.112919            -9.830689            -0.986422
| 22>   H                      -9.414097            -10.632708           -0.026955
| 23> *
| 24>
| 25> #Run DFT-D3 single point of the molecule with dimer basis set
| 26> $new_job
| 27> %base "19-14_DFT_A"
| 28> ! wB97X-D3 def2-TZVP TIGHTSCF CHELPG PMODEL
| 29>
| 30> %scf
| 31> MaxIter 1000
| 32> end
| 33>
| 34> * xyz 0 1
| 35>   C                      -7.667179            -9.209066            3.339312
| 36>   O                      -8.331323            -9.779651            4.428187
| 37>   H                      -8.630029            -10.674345           4.174091
| 38>   H                      -6.594837            -9.317972            3.473686
| 39>   H                      -7.952272            -9.648018            2.417688
| 40>   H                      -7.931544            -8.142269            3.023550
| 41>   C                    : -8.379231            -10.765680           -0.424398
| 42>   O                    : -8.380720            -11.920093           -1.267980
| 43>   H                    : -8.745257            -11.575654           -2.064026
| 44>   H                    : -7.604420            -10.957840           0.376978
| 45>   H                    : -8.112919            -9.830689            -0.986422
| 46>   H                    : -9.414097            -10.632708           -0.026955
| 47> *
| 48>
| 49> #Run DFT-D3 single point of the particle with dimer basis set
| 50> $new_job
| 51> %base "19-14_DFT_B"
| 52> ! wB97X-D3 def2-TZVP TIGHTSCF CHELPG PMODEL
| 53>
| 54> %scf
| 55> MaxIter 1000
| 56> end
| 57>
| 58> * xyz 0 1
| 59>   C                    : -7.667179            -9.209066            3.339312
| 60>   O                    : -8.331323            -9.779651            4.428187
| 61>   H                    : -8.630029            -10.674345           4.174091
| 62>   H                    : -6.594837            -9.317972            3.473686
| 63>   H                    : -7.952272            -9.648018            2.417688
| 64>   H                    : -7.931544            -8.142269            3.023550
| 65>   C                      -8.379231            -10.765680           -0.424398
| 66>   O                      -8.380720            -11.920093           -1.267980
| 67>   H                      -8.745257            -11.575654           -2.064026
| 68>   H                      -7.604420            -10.957840           0.376978
| 69>   H                      -8.112919            -9.830689            -0.986422
| 70>   H                      -9.414097            -10.632708           -0.026955
| 71> *
| 72>
| 73>                          ****END OF INPUT****
 Total Charge           Charge          ....    0
 Multiplicity           Mult            ....    1
 Number of Electrons    NEL             ....   36
Dispersion correction           -0.001275393
FINAL SINGLE POINT ENERGY      -231.460008285099
Dispersion correction           -0.000250984
FINAL SINGLE POINT ENERGY      -115.726851483672

CARTESIAN COORDINATES (ANGSTROEM)
---------------------------------
  C     -7.667179   -9.209066    3.339312
  O     -8.331323   -9.779651    4.428187
  H     -8.630029  -10.674345    4.174091
  H     -6.594837   -9.317972    3.473686
  H     -7.952272   -9.648018    2.417688
  H     -7.931544   -8.142269    3.023550
  C     -8.379231  -10.765680   -0.424398
  O     -8.380720  -11.920093   -1.267980
  H     -8.745257  -11.575654   -2.064026
  H     -7.604420  -10.957840    0.376978
  H     -8.112919   -9.830689   -0.986422
  H     -9.414097  -10.632708   -0.026955

 Multiplicity           Mult            ....    1
 Number of Electrons    NEL             ....   18
 Basis Dimension        Dim             ....  172

ORBITAL ENERGIES
----------------

  NO   OCC          E(Eh)            E(eV)
   0   2.0000     -19.228852      -523.2437
   1   2.0000     -10.323989      -280.9300
   2   2.0000      -1.139704       -31.0129
   3   2.0000      -0.786437       -21.4000
   4   2.0000      -0.609210       -16.5774
   5   2.0000      -0.540599       -14.7105
   6   2.0000      -0.516405       -14.0521
   7   2.0000      -0.442636       -12.0447
   8   2.0000      -0.373348       -10.1593
   9   0.0000       0.085104         2.3158
  10   0.0000       0.114826         3.1246
  11   0.0000       0.154882         4.2145
  12   0.0000       0.165978         4.5165
  13   0.0000       0.177976         4.8430

MULLIKEN ATOMIC CHARGES
-----------------------
   0 C :   -0.000946
   1 O :    0.000015
   2 H :   -0.000034
   3 H :    0.000053
   4 H :    0.001420
   5 H :   -0.000006
   6 C :   -0.182258
   7 O :   -0.457828
   8 H :    0.308170
   9 H :    0.123110
  10 H :    0.103986
  11 H :    0.104319
Sum of atomic charges:    0.0000000

LOEWDIN ATOMIC CHARGES
----------------------
   0 C :   -0.001649
   1 O :   -0.000007
   2 H :   -0.000022
   3 H :   -0.000047
   4 H :   -0.003931
   5 H :   -0.000015
   6 C :   -0.383835
   7 O :   -0.081859
   8 H :    0.156093
   9 H :    0.116939
  10 H :    0.098990
  11 H :    0.099343

  Mayer bond orders larger than 0.1
B(  6-C ,  7-O ) :   0.9976 B(  6-C ,  9-H ) :   0.9730 B(  6-C , 10-H ) :   0.9743
B(  6-C , 11-H ) :   0.9712 B(  7-O ,  8-H ) :   0.9088

Dispersion correction           -0.000230931
FINAL SINGLE POINT ENERGY      -115.732594302720

DIPOLE MOMENT
-------------
                                X             Y             Z
Electronic contribution:      0.07390      -1.54442      -0.93604
Nuclear contribution   :     -0.29211       2.20852       0.75246
                        -----------------------------------------
Total Dipole Moment    :     -0.21820       0.66410      -0.18358
                        -----------------------------------------
Magnitude (a.u.)       :      0.72274
Magnitude (Debye)      :      1.83705

Rotational constants in cm-1:     4.002614     0.828079     0.794940
Rotational constants in MHz : 119995.363261 24825.169030 23831.694076

                             ****ORCA TERMINATED NORMALLY****
TOTAL RUN TIME: 0 days 0 hours 0 minutes 46 seconds 542 msec
