                         Program Version 4.1.2  - RELEASE  -
|  1> #Run DFT-D3 single point of the dimer
|  2> ! wB97X-D3 def2-TZVP TIGHTSCF CHELPG PMODEL PAL8
|  3>
|  4> %base "10-88_DFT_AB"
|  5>
|  6> %scf
|  7> MaxIter 1000
|  8> end
|  9>
| 10> * xyz 0 1
| 11>   C                      0.325050             3.682876             4.670970
| 12>   O                      -0.846528            4.166738             4.035653
| 13>   H                      -1.548622            4.059657             4.702336
| 14>   H                      0.917244             3.089913             4.008710
| 15>   H                      1.078371             4.362851             4.962118
| 16>   H                      0.047949             3.124406             5.575140
| 17>   C                      3.420418             5.845011             0.660086
| 18>   O                      2.429957             6.029736             -0.337725
| 19>   H                      1.566711             5.596374             -0.098511
| 20>   H                      4.368750             5.492269             0.227254
| 21>   H                      3.701800             6.816077             1.027696
| 22>   H                      2.997500             5.226315             1.460489
| 23> *
| 24>
| 25> #Run DFT-D3 single point of the molecule with dimer basis set
| 26> $new_job
| 27> %base "10-88_DFT_A"
| 28> ! wB97X-D3 def2-TZVP TIGHTSCF CHELPG PMODEL
| 29>
| 30> %scf
| 31> MaxIter 1000
| 32> end
| 33>
| 34> * xyz 0 1
| 35>   C                      0.325050             3.682876             4.670970
| 36>   O                      -0.846528            4.166738             4.035653
| 37>   H                      -1.548622            4.059657             4.702336
| 38>   H                      0.917244             3.089913             4.008710
| 39>   H                      1.078371             4.362851             4.962118
| 40>   H                      0.047949             3.124406             5.575140
| 41>   C                    : 3.420418             5.845011             0.660086
| 42>   O                    : 2.429957             6.029736             -0.337725
| 43>   H                    : 1.566711             5.596374             -0.098511
| 44>   H                    : 4.368750             5.492269             0.227254
| 45>   H                    : 3.701800             6.816077             1.027696
| 46>   H                    : 2.997500             5.226315             1.460489
| 47> *
| 48>
| 49> #Run DFT-D3 single point of the particle with dimer basis set
| 50> $new_job
| 51> %base "10-88_DFT_B"
| 52> ! wB97X-D3 def2-TZVP TIGHTSCF CHELPG PMODEL
| 53>
| 54> %scf
| 55> MaxIter 1000
| 56> end
| 57>
| 58> * xyz 0 1
| 59>   C                    : 0.325050             3.682876             4.670970
| 60>   O                    : -0.846528            4.166738             4.035653
| 61>   H                    : -1.548622            4.059657             4.702336
| 62>   H                    : 0.917244             3.089913             4.008710
| 63>   H                    : 1.078371             4.362851             4.962118
| 64>   H                    : 0.047949             3.124406             5.575140
| 65>   C                      3.420418             5.845011             0.660086
| 66>   O                      2.429957             6.029736             -0.337725
| 67>   H                      1.566711             5.596374             -0.098511
| 68>   H                      4.368750             5.492269             0.227254
| 69>   H                      3.701800             6.816077             1.027696
| 70>   H                      2.997500             5.226315             1.460489
| 71> *
| 72>
| 73>                          ****END OF INPUT****
 Total Charge           Charge          ....    0
 Multiplicity           Mult            ....    1
 Number of Electrons    NEL             ....   36
Dispersion correction           -0.000715919
FINAL SINGLE POINT ENERGY      -231.459884769246
Dispersion correction           -0.000247701
FINAL SINGLE POINT ENERGY      -115.728426605252

CARTESIAN COORDINATES (ANGSTROEM)
---------------------------------
  C      0.325050    3.682876    4.670970
  O     -0.846528    4.166738    4.035653
  H     -1.548622    4.059657    4.702336
  H      0.917244    3.089913    4.008710
  H      1.078371    4.362851    4.962118
  H      0.047949    3.124406    5.575140
  C      3.420418    5.845011    0.660086
  O      2.429957    6.029736   -0.337725
  H      1.566711    5.596374   -0.098511
  H      4.368750    5.492269    0.227254
  H      3.701800    6.816077    1.027696
  H      2.997500    5.226315    1.460489

 Multiplicity           Mult            ....    1
 Number of Electrons    NEL             ....   18
 Basis Dimension        Dim             ....  172

ORBITAL ENERGIES
----------------

  NO   OCC          E(Eh)            E(eV)
   0   2.0000     -19.227715      -523.2127
   1   2.0000     -10.312110      -280.6068
   2   2.0000      -1.124261       -30.5927
   3   2.0000      -0.793950       -21.6045
   4   2.0000      -0.604724       -16.4554
   5   2.0000      -0.540288       -14.7020
   6   2.0000      -0.530198       -14.4274
   7   2.0000      -0.428306       -11.6548
   8   2.0000      -0.366154        -9.9635
   9   0.0000       0.077892         2.1195
  10   0.0000       0.109957         2.9921
  11   0.0000       0.147043         4.0012
  12   0.0000       0.164063         4.4644
  13   0.0000       0.184378         5.0172

MULLIKEN ATOMIC CHARGES
-----------------------
   0 C :    0.000120
   1 O :   -0.000006
   2 H :   -0.000000
   3 H :   -0.000098
   4 H :   -0.000091
   5 H :   -0.000004
   6 C :   -0.147820
   7 O :   -0.489034
   8 H :    0.321329
   9 H :    0.106470
  10 H :    0.104118
  11 H :    0.105017
Sum of atomic charges:   -0.0000000

LOEWDIN ATOMIC CHARGES
----------------------
   0 C :   -0.000079
   1 O :   -0.000001
   2 H :   -0.000000
   3 H :   -0.000051
   4 H :   -0.000033
   5 H :   -0.000000
   6 C :   -0.379665
   7 O :   -0.103445
   8 H :    0.187265
   9 H :    0.102334
  10 H :    0.094663
  11 H :    0.099013

  Mayer bond orders larger than 0.1
B(  6-C ,  7-O ) :   1.0089 B(  6-C ,  9-H ) :   0.9741 B(  6-C , 10-H ) :   0.9796
B(  6-C , 11-H ) :   0.9866 B(  7-O ,  8-H ) :   0.8915

Dispersion correction           -0.000248258
FINAL SINGLE POINT ENERGY      -115.730711592911

DIPOLE MOMENT
-------------
                                X             Y             Z
Electronic contribution:     -1.14675       0.20578      -1.27383
Nuclear contribution   :      0.99046      -0.54887       1.84309
                        -----------------------------------------
Total Dipole Moment    :     -0.15629      -0.34309       0.56927
                        -----------------------------------------
Magnitude (a.u.)       :      0.68279
Magnitude (Debye)      :      1.73551

Rotational constants in cm-1:     4.261798     0.833810     0.790086
Rotational constants in MHz : 127765.493796 24996.997847 23686.191341

                             ****ORCA TERMINATED NORMALLY****
TOTAL RUN TIME: 0 days 0 hours 0 minutes 58 seconds 111 msec
