                         Program Version 4.1.2  - RELEASE  -
|  1> #Run DFT-D3 single point of the dimer
|  2> ! wB97X-D3 def2-TZVP TIGHTSCF CHELPG PMODEL PAL8
|  3>
|  4> %base "9-157_DFT_AB"
|  5>
|  6> %scf
|  7> MaxIter 1000
|  8> end
|  9>
| 10> * xyz 0 1
| 11>   C                      0.171370             -6.179703            -10.431509
| 12>   O                      1.142132             -5.175197            -10.135115
| 13>   H                      1.735514             -5.546216            -9.420963
| 14>   H                      -0.204759            -6.525148            -9.511910
| 15>   H                      -0.697941            -5.767374            -11.072162
| 16>   H                      0.616042             -7.055987            -10.972377
| 17>   C                      1.061126             -5.582666            -5.535615
| 18>   O                      1.556001             -6.689900            -6.140903
| 19>   H                      2.135670             -6.401627            -6.868289
| 20>   H                      1.822330             -4.909375            -5.115184
| 21>   H                      0.414181             -5.020178            -6.205043
| 22>   H                      0.333162             -5.885599            -4.781976
| 23> *
| 24>
| 25> #Run DFT-D3 single point of the molecule with dimer basis set
| 26> $new_job
| 27> %base "9-157_DFT_A"
| 28> ! wB97X-D3 def2-TZVP TIGHTSCF CHELPG PMODEL
| 29>
| 30> %scf
| 31> MaxIter 1000
| 32> end
| 33>
| 34> * xyz 0 1
| 35>   C                      0.171370             -6.179703            -10.431509
| 36>   O                      1.142132             -5.175197            -10.135115
| 37>   H                      1.735514             -5.546216            -9.420963
| 38>   H                      -0.204759            -6.525148            -9.511910
| 39>   H                      -0.697941            -5.767374            -11.072162
| 40>   H                      0.616042             -7.055987            -10.972377
| 41>   C                    : 1.061126             -5.582666            -5.535615
| 42>   O                    : 1.556001             -6.689900            -6.140903
| 43>   H                    : 2.135670             -6.401627            -6.868289
| 44>   H                    : 1.822330             -4.909375            -5.115184
| 45>   H                    : 0.414181             -5.020178            -6.205043
| 46>   H                    : 0.333162             -5.885599            -4.781976
| 47> *
| 48>
| 49> #Run DFT-D3 single point of the particle with dimer basis set
| 50> $new_job
| 51> %base "9-157_DFT_B"
| 52> ! wB97X-D3 def2-TZVP TIGHTSCF CHELPG PMODEL
| 53>
| 54> %scf
| 55> MaxIter 1000
| 56> end
| 57>
| 58> * xyz 0 1
| 59>   C                    : 0.171370             -6.179703            -10.431509
| 60>   O                    : 1.142132             -5.175197            -10.135115
| 61>   H                    : 1.735514             -5.546216            -9.420963
| 62>   H                    : -0.204759            -6.525148            -9.511910
| 63>   H                    : -0.697941            -5.767374            -11.072162
| 64>   H                    : 0.616042             -7.055987            -10.972377
| 65>   C                      1.061126             -5.582666            -5.535615
| 66>   O                      1.556001             -6.689900            -6.140903
| 67>   H                      2.135670             -6.401627            -6.868289
| 68>   H                      1.822330             -4.909375            -5.115184
| 69>   H                      0.414181             -5.020178            -6.205043
| 70>   H                      0.333162             -5.885599            -4.781976
| 71> *
| 72>
| 73>                          ****END OF INPUT****
 Total Charge           Charge          ....    0
 Multiplicity           Mult            ....    1
 Number of Electrons    NEL             ....   36
Dispersion correction           -0.001273624
FINAL SINGLE POINT ENERGY      -231.463291678640
Dispersion correction           -0.000245082
FINAL SINGLE POINT ENERGY      -115.730152746469

CARTESIAN COORDINATES (ANGSTROEM)
---------------------------------
  C      0.171370   -6.179703  -10.431509
  O      1.142132   -5.175197  -10.135115
  H      1.735514   -5.546216   -9.420963
  H     -0.204759   -6.525148   -9.511910
  H     -0.697941   -5.767374  -11.072162
  H      0.616042   -7.055987  -10.972377
  C      1.061126   -5.582666   -5.535615
  O      1.556001   -6.689900   -6.140903
  H      2.135670   -6.401627   -6.868289
  H      1.822330   -4.909375   -5.115184
  H      0.414181   -5.020178   -6.205043
  H      0.333162   -5.885599   -4.781976

 Multiplicity           Mult            ....    1
 Number of Electrons    NEL             ....   18
 Basis Dimension        Dim             ....  172

ORBITAL ENERGIES
----------------

  NO   OCC          E(Eh)            E(eV)
   0   2.0000     -19.232644      -523.3469
   1   2.0000     -10.306525      -280.4548
   2   2.0000      -1.154224       -31.4080
   3   2.0000      -0.793096       -21.5812
   4   2.0000      -0.620828       -16.8936
   5   2.0000      -0.552902       -15.0452
   6   2.0000      -0.532091       -14.4789
   7   2.0000      -0.427221       -11.6253
   8   2.0000      -0.371267       -10.1027
   9   0.0000       0.077421         2.1067
  10   0.0000       0.122412         3.3310
  11   0.0000       0.152884         4.1602
  12   0.0000       0.178621         4.8605
  13   0.0000       0.188815         5.1379

MULLIKEN ATOMIC CHARGES
-----------------------
   0 C :    0.001293
   1 O :    0.000255
   2 H :   -0.002202
   3 H :   -0.002293
   4 H :   -0.000048
   5 H :   -0.000038
   6 C :   -0.156401
   7 O :   -0.458679
   8 H :    0.318519
   9 H :    0.095988
  10 H :    0.090236
  11 H :    0.113372
Sum of atomic charges:    0.0000000

LOEWDIN ATOMIC CHARGES
----------------------
   0 C :   -0.000384
   1 O :   -0.000081
   2 H :   -0.001806
   3 H :   -0.000709
   4 H :   -0.000008
   5 H :   -0.000003
   6 C :   -0.437272
   7 O :   -0.034920
   8 H :    0.182636
   9 H :    0.093234
  10 H :    0.089678
  11 H :    0.109635

  Mayer bond orders larger than 0.1
B(  6-C ,  7-O ) :   1.0129 B(  6-C ,  9-H ) :   0.9770 B(  6-C , 10-H ) :   0.9790
B(  6-C , 11-H ) :   0.9728 B(  7-O ,  8-H ) :   0.8948

Dispersion correction           -0.000219521
FINAL SINGLE POINT ENERGY      -115.733520442388

DIPOLE MOMENT
-------------
                                X             Y             Z
Electronic contribution:      0.71529      -1.59113      -0.69037
Nuclear contribution   :     -0.54589       2.15986       0.45099
                        -----------------------------------------
Total Dipole Moment    :      0.16940       0.56872      -0.23938
                        -----------------------------------------
Magnitude (a.u.)       :      0.63988
Magnitude (Debye)      :      1.62645

Rotational constants in cm-1:     4.327406     0.886972     0.853850
Rotational constants in MHz : 129732.353712 26590.761450 25597.771548

                             ****ORCA TERMINATED NORMALLY****
TOTAL RUN TIME: 0 days 0 hours 0 minutes 42 seconds 595 msec
