                         Program Version 4.1.2  - RELEASE  -
|  1> #Run DFT-D3 single point of the dimer
|  2> ! wB97X-D3 def2-TZVP TIGHTSCF  CHELPG PAL8
|  3>
|  4> %base "83_charges"
|  5>
|  6> %scf
|  7> MaxIter 1000
|  8> end
|  9> %output
| 10>   Print[ P_Mayer ] 1
| 11>   Print[ P_NatPop ] 1
| 12>   Print[ P_Hirshfeld ] 1
| 13>   Print[ P_Mulliken ] 1
| 14>   Print [ P_Loewdin ] 1
| 15> end
| 16>
| 17> * xyz 0 1
| 18>   C                      -7.212778            -0.184821            -8.502989
| 19>   O                      -7.288164            -1.078064            -7.441336
| 20>   H                      -7.733234            -1.880886            -7.644668
| 21>   H                      -6.738976            -0.567749            -9.454886
| 22>   H                      -8.192273            -0.070033            -8.844133
| 23>   H                      -6.757635            0.784107             -8.299056
| 24> *
| 25>
| 26>                          ****END OF INPUT****

CARTESIAN COORDINATES (ANGSTROEM)
---------------------------------
  C     -7.212778   -0.184821   -8.502989
  O     -7.288164   -1.078064   -7.441336
  H     -7.733234   -1.880886   -7.644668
  H     -6.738976   -0.567749   -9.454886
  H     -8.192273   -0.070033   -8.844133
  H     -6.757635    0.784107   -8.299056

 Total Charge           Charge          ....    0
 Multiplicity           Mult            ....    1
 Number of Electrons    NEL             ....   18
 Basis Dimension        Dim             ....   86

ORBITAL ENERGIES
----------------

  NO   OCC          E(Eh)            E(eV)
   0   2.0000     -19.226861      -523.1895
   1   2.0000     -10.309698      -280.5411
   2   2.0000      -1.144511       -31.1437
   3   2.0000      -0.802352       -21.8331
   4   2.0000      -0.624687       -16.9986
   5   2.0000      -0.546366       -14.8674
   6   2.0000      -0.527840       -14.3633
   7   2.0000      -0.429490       -11.6870
   8   2.0000      -0.366559        -9.9746
   9   0.0000       0.117538         3.1984
  10   0.0000       0.153367         4.1733
  11   0.0000       0.203443         5.5360
  12   0.0000       0.212303         5.7771
  13   0.0000       0.230241         6.2652

MULLIKEN ATOMIC CHARGES
-----------------------
   0 C :   -0.149549
   1 O :   -0.478065
   2 H :    0.317257
   3 H :    0.083550
   4 H :    0.101797
   5 H :    0.125010
Sum of atomic charges:   -0.0000000

LOEWDIN ATOMIC CHARGES
----------------------
   0 C :   -0.399994
   1 O :   -0.050021
   2 H :    0.158456
   3 H :    0.097129
   4 H :    0.085062
   5 H :    0.109368

  Mayer bond orders larger than 0.1
B(  0-C ,  1-O ) :   0.9939 B(  0-C ,  3-H ) :   0.9709 B(  0-C ,  4-H ) :   0.9915
B(  0-C ,  5-H ) :   0.9696 B(  1-O ,  2-H ) :   0.8951

Dispersion correction           -0.000240257
FINAL SINGLE POINT ENERGY      -115.726508723392

DIPOLE MOMENT
-------------
                                X             Y             Z
Electronic contribution:      0.02724      -1.01568       1.61555
Nuclear contribution   :     -0.32733       0.85134      -2.17060
                        -----------------------------------------
Total Dipole Moment    :     -0.30009      -0.16434      -0.55506
                        -----------------------------------------
Magnitude (a.u.)       :      0.65204
Magnitude (Debye)      :      1.65735

Rotational constants in cm-1:     4.599227     0.846545     0.807460
Rotational constants in MHz : 137881.363291 25378.770968 24207.051957

                             ****ORCA TERMINATED NORMALLY****
TOTAL RUN TIME: 0 days 0 hours 0 minutes 40 seconds 408 msec
