                         Program Version 4.1.2  - RELEASE  -
|  1> #Run DFT-D3 single point of the dimer
|  2> ! wB97X-D3 def2-TZVP TIGHTSCF CHELPG PMODEL PAL8
|  3>
|  4> %base "20-35_DFT_AB"
|  5>
|  6> %scf
|  7> MaxIter 1000
|  8> end
|  9>
| 10> * xyz 0 1
| 11>   C                      -1.641794            5.307331             1.637861
| 12>   O                      -2.575965            4.229584             1.491744
| 13>   H                      -2.767324            3.875175             2.374490
| 14>   H                      -1.946451            5.984514             2.464272
| 15>   H                      -0.555480            5.066071             1.793109
| 16>   H                      -1.550788            5.846078             0.708489
| 17>   C                      -5.437243            2.893795             0.003744
| 18>   O                      -6.339473            3.830913             0.590663
| 19>   H                      -6.962244            3.262412             1.060430
| 20>   H                      -4.843288            2.338916             0.754672
| 21>   H                      -6.034146            2.131542             -0.547641
| 22>   H                      -4.777210            3.354782             -0.710811
| 23> *
| 24>
| 25> #Run DFT-D3 single point of the molecule with dimer basis set
| 26> $new_job
| 27> %base "20-35_DFT_A"
| 28> ! wB97X-D3 def2-TZVP TIGHTSCF CHELPG PMODEL
| 29>
| 30> %scf
| 31> MaxIter 1000
| 32> end
| 33>
| 34> * xyz 0 1
| 35>   C                      -1.641794            5.307331             1.637861
| 36>   O                      -2.575965            4.229584             1.491744
| 37>   H                      -2.767324            3.875175             2.374490
| 38>   H                      -1.946451            5.984514             2.464272
| 39>   H                      -0.555480            5.066071             1.793109
| 40>   H                      -1.550788            5.846078             0.708489
| 41>   C                    : -5.437243            2.893795             0.003744
| 42>   O                    : -6.339473            3.830913             0.590663
| 43>   H                    : -6.962244            3.262412             1.060430
| 44>   H                    : -4.843288            2.338916             0.754672
| 45>   H                    : -6.034146            2.131542             -0.547641
| 46>   H                    : -4.777210            3.354782             -0.710811
| 47> *
| 48>
| 49> #Run DFT-D3 single point of the particle with dimer basis set
| 50> $new_job
| 51> %base "20-35_DFT_B"
| 52> ! wB97X-D3 def2-TZVP TIGHTSCF CHELPG PMODEL
| 53>
| 54> %scf
| 55> MaxIter 1000
| 56> end
| 57>
| 58> * xyz 0 1
| 59>   C                    : -1.641794            5.307331             1.637861
| 60>   O                    : -2.575965            4.229584             1.491744
| 61>   H                    : -2.767324            3.875175             2.374490
| 62>   H                    : -1.946451            5.984514             2.464272
| 63>   H                    : -0.555480            5.066071             1.793109
| 64>   H                    : -1.550788            5.846078             0.708489
| 65>   C                      -5.437243            2.893795             0.003744
| 66>   O                      -6.339473            3.830913             0.590663
| 67>   H                      -6.962244            3.262412             1.060430
| 68>   H                      -4.843288            2.338916             0.754672
| 69>   H                      -6.034146            2.131542             -0.547641
| 70>   H                      -4.777210            3.354782             -0.710811
| 71> *
| 72>
| 73>                          ****END OF INPUT****
 Total Charge           Charge          ....    0
 Multiplicity           Mult            ....    1
 Number of Electrons    NEL             ....   36
Dispersion correction           -0.001376578
FINAL SINGLE POINT ENERGY      -231.467973538281
Dispersion correction           -0.000275766
FINAL SINGLE POINT ENERGY      -115.732549940560

CARTESIAN COORDINATES (ANGSTROEM)
---------------------------------
  C     -1.641794    5.307331    1.637861
  O     -2.575965    4.229584    1.491744
  H     -2.767324    3.875175    2.374490
  H     -1.946451    5.984514    2.464272
  H     -0.555480    5.066071    1.793109
  H     -1.550788    5.846078    0.708489
  C     -5.437243    2.893795    0.003744
  O     -6.339473    3.830913    0.590663
  H     -6.962244    3.262412    1.060430
  H     -4.843288    2.338916    0.754672
  H     -6.034146    2.131542   -0.547641
  H     -4.777210    3.354782   -0.710811

 Multiplicity           Mult            ....    1
 Number of Electrons    NEL             ....   18
 Basis Dimension        Dim             ....  172

ORBITAL ENERGIES
----------------

  NO   OCC          E(Eh)            E(eV)
   0   2.0000     -19.232534      -523.3439
   1   2.0000     -10.316339      -280.7219
   2   2.0000      -1.135083       -30.8872
   3   2.0000      -0.792579       -21.5672
   4   2.0000      -0.606722       -16.5098
   5   2.0000      -0.537452       -14.6248
   6   2.0000      -0.529648       -14.4124
   7   2.0000      -0.440660       -11.9910
   8   2.0000      -0.373126       -10.1533
   9   0.0000       0.087902         2.3919
  10   0.0000       0.114915         3.1270
  11   0.0000       0.150254         4.0886
  12   0.0000       0.168660         4.5895
  13   0.0000       0.190876         5.1940

MULLIKEN ATOMIC CHARGES
-----------------------
   0 C :   -0.000007
   1 O :    0.000337
   2 H :    0.000143
   3 H :   -0.000007
   4 H :   -0.000000
   5 H :   -0.000035
   6 C :   -0.177649
   7 O :   -0.468671
   8 H :    0.315038
   9 H :    0.102300
  10 H :    0.104586
  11 H :    0.123965
Sum of atomic charges:   -0.0000000

LOEWDIN ATOMIC CHARGES
----------------------
   0 C :   -0.000095
   1 O :   -0.001230
   2 H :   -0.000561
   3 H :   -0.000003
   4 H :   -0.000001
   5 H :   -0.000011
   6 C :   -0.381951
   7 O :   -0.088421
   8 H :    0.173925
   9 H :    0.096068
  10 H :    0.098512
  11 H :    0.103770

  Mayer bond orders larger than 0.1
B(  6-C ,  7-O ) :   0.9963 B(  6-C ,  9-H ) :   0.9721 B(  6-C , 10-H ) :   0.9826
B(  6-C , 11-H ) :   0.9732 B(  7-O ,  8-H ) :   0.9012

Dispersion correction           -0.000231024
FINAL SINGLE POINT ENERGY      -115.734948755019

DIPOLE MOMENT
-------------
                                X             Y             Z
Electronic contribution:     -1.00202       1.43408       0.69568
Nuclear contribution   :      0.97250      -2.14862      -0.65142
                        -----------------------------------------
Total Dipole Moment    :     -0.02952      -0.71454       0.04426
                        -----------------------------------------
Magnitude (a.u.)       :      0.71651
Magnitude (Debye)      :      1.82123

Rotational constants in cm-1:     4.218667     0.822877     0.791811
Rotational constants in MHz : 126472.466982 24669.227570 23737.893476

                             ****ORCA TERMINATED NORMALLY****
TOTAL RUN TIME: 0 days 0 hours 1 minutes 8 seconds 269 msec
