                         Program Version 4.1.2  - RELEASE  -
|  1> #Run DFT-D3 single point of the dimer
|  2> ! wB97X-D3 def2-TZVP TIGHTSCF CHELPG PMODEL PAL8
|  3>
|  4> %base "9-2_DFT_AB"
|  5>
|  6> %scf
|  7> MaxIter 1000
|  8> end
|  9>
| 10> * xyz 0 1
| 11>   C                      5.326910             4.806322             -3.533113
| 12>   O                      6.034877             3.972360             -4.447765
| 13>   H                      6.237275             3.163824             -3.960999
| 14>   H                      6.014065             5.326131             -2.833834
| 15>   H                      4.817935             5.581777             -4.157801
| 16>   H                      4.623172             4.233674             -2.922331
| 17>   C                      0.662464             5.760091             -2.092293
| 18>   O                      -0.353807            5.728340             -1.234507
| 19>   H                      -1.200621            5.808599             -1.696995
| 20>   H                      1.466526             5.126160             -1.819299
| 21>   H                      0.339278             5.312765             -3.046957
| 22>   H                      1.071507             6.785773             -2.309820
| 23> *
| 24>
| 25> #Run DFT-D3 single point of the molecule with dimer basis set
| 26> $new_job
| 27> %base "9-2_DFT_A"
| 28> ! wB97X-D3 def2-TZVP TIGHTSCF CHELPG PMODEL
| 29>
| 30> %scf
| 31> MaxIter 1000
| 32> end
| 33>
| 34> * xyz 0 1
| 35>   C                      5.326910             4.806322             -3.533113
| 36>   O                      6.034877             3.972360             -4.447765
| 37>   H                      6.237275             3.163824             -3.960999
| 38>   H                      6.014065             5.326131             -2.833834
| 39>   H                      4.817935             5.581777             -4.157801
| 40>   H                      4.623172             4.233674             -2.922331
| 41>   C                    : 0.662464             5.760091             -2.092293
| 42>   O                    : -0.353807            5.728340             -1.234507
| 43>   H                    : -1.200621            5.808599             -1.696995
| 44>   H                    : 1.466526             5.126160             -1.819299
| 45>   H                    : 0.339278             5.312765             -3.046957
| 46>   H                    : 1.071507             6.785773             -2.309820
| 47> *
| 48>
| 49> #Run DFT-D3 single point of the particle with dimer basis set
| 50> $new_job
| 51> %base "9-2_DFT_B"
| 52> ! wB97X-D3 def2-TZVP TIGHTSCF CHELPG PMODEL
| 53>
| 54> %scf
| 55> MaxIter 1000
| 56> end
| 57>
| 58> * xyz 0 1
| 59>   C                    : 5.326910             4.806322             -3.533113
| 60>   O                    : 6.034877             3.972360             -4.447765
| 61>   H                    : 6.237275             3.163824             -3.960999
| 62>   H                    : 6.014065             5.326131             -2.833834
| 63>   H                    : 4.817935             5.581777             -4.157801
| 64>   H                    : 4.623172             4.233674             -2.922331
| 65>   C                      0.662464             5.760091             -2.092293
| 66>   O                      -0.353807            5.728340             -1.234507
| 67>   H                      -1.200621            5.808599             -1.696995
| 68>   H                      1.466526             5.126160             -1.819299
| 69>   H                      0.339278             5.312765             -3.046957
| 70>   H                      1.071507             6.785773             -2.309820
| 71> *
| 72>
| 73>                          ****END OF INPUT****
 Total Charge           Charge          ....    0
 Multiplicity           Mult            ....    1
 Number of Electrons    NEL             ....   36
Dispersion correction           -0.000778106
FINAL SINGLE POINT ENERGY      -231.464807364684
Dispersion correction           -0.000242129
FINAL SINGLE POINT ENERGY      -115.735847972590

CARTESIAN COORDINATES (ANGSTROEM)
---------------------------------
  C      5.326910    4.806322   -3.533113
  O      6.034877    3.972360   -4.447765
  H      6.237275    3.163824   -3.960999
  H      6.014065    5.326131   -2.833834
  H      4.817935    5.581777   -4.157801
  H      4.623172    4.233674   -2.922331
  C      0.662464    5.760091   -2.092293
  O     -0.353807    5.728340   -1.234507
  H     -1.200621    5.808599   -1.696995
  H      1.466526    5.126160   -1.819299
  H      0.339278    5.312765   -3.046957
  H      1.071507    6.785773   -2.309820

 Multiplicity           Mult            ....    1
 Number of Electrons    NEL             ....   18
 Basis Dimension        Dim             ....  172

ORBITAL ENERGIES
----------------

  NO   OCC          E(Eh)            E(eV)
   0   2.0000     -19.230658      -523.2928
   1   2.0000     -10.305868      -280.4369
   2   2.0000      -1.162499       -31.6332
   3   2.0000      -0.793728       -21.5984
   4   2.0000      -0.627677       -17.0800
   5   2.0000      -0.551609       -15.0100
   6   2.0000      -0.542259       -14.7556
   7   2.0000      -0.417438       -11.3591
   8   2.0000      -0.370175       -10.0730
   9   0.0000       0.084260         2.2928
  10   0.0000       0.111790         3.0420
  11   0.0000       0.142665         3.8821
  12   0.0000       0.173861         4.7310
  13   0.0000       0.188359         5.1255

MULLIKEN ATOMIC CHARGES
-----------------------
   0 C :    0.000082
   1 O :    0.000002
   2 H :    0.000001
   3 H :   -0.000002
   4 H :    0.000009
   5 H :   -0.000198
   6 C :   -0.144423
   7 O :   -0.455828
   8 H :    0.325780
   9 H :    0.112771
  10 H :    0.082503
  11 H :    0.079302
Sum of atomic charges:    0.0000000

LOEWDIN ATOMIC CHARGES
----------------------
   0 C :   -0.000133
   1 O :   -0.000003
   2 H :   -0.000000
   3 H :   -0.000002
   4 H :   -0.000016
   5 H :   -0.000280
   6 C :   -0.454726
   7 O :   -0.014856
   8 H :    0.183861
   9 H :    0.096934
  10 H :    0.094425
  11 H :    0.094796

  Mayer bond orders larger than 0.1
B(  6-C ,  7-O ) :   1.0277 B(  6-C ,  9-H ) :   0.9720 B(  6-C , 10-H ) :   0.9957
B(  6-C , 11-H ) :   0.9707 B(  7-O ,  8-H ) :   0.8897

Dispersion correction           -0.000222591
FINAL SINGLE POINT ENERGY      -115.728570068676

DIPOLE MOMENT
-------------
                                X             Y             Z
Electronic contribution:     -1.31138      -0.03777       1.41522
Nuclear contribution   :      1.09908       0.05347      -2.01397
                        -----------------------------------------
Total Dipole Moment    :     -0.21230       0.01570      -0.59875
                        -----------------------------------------
Magnitude (a.u.)       :      0.63547
Magnitude (Debye)      :      1.61523

Rotational constants in cm-1:     4.393297     0.901241     0.878117
Rotational constants in MHz : 131707.720229 27018.518234 26325.293910

                             ****ORCA TERMINATED NORMALLY****
TOTAL RUN TIME: 0 days 0 hours 0 minutes 38 seconds 37 msec
