                         Program Version 4.1.2  - RELEASE  -
|  1> #Run DFT-D3 single point of the dimer
|  2> ! wB97X-D3 def2-TZVP TIGHTSCF CHELPG PMODEL PAL8
|  3>
|  4> %base "17-41_DFT_AB"
|  5>
|  6> %scf
|  7> MaxIter 1000
|  8> end
|  9>
| 10> * xyz 0 1
| 11>   C                      -11.061836           -2.606470            -4.644816
| 12>   O                      -10.141956           -2.658420            -5.709561
| 13>   H                      -9.563849            -3.404879            -5.487740
| 14>   H                      -11.760266           -1.855055            -4.820786
| 15>   H                      -11.555235           -3.625237            -4.519928
| 16>   H                      -10.483612           -2.275485            -3.754695
| 17>   C                      -9.052009            -1.199109            -8.938639
| 18>   O                      -10.155990           -1.919231            -8.421240
| 19>   H                      -10.052188           -2.063370            -7.485254
| 20>   H                      -8.106593            -1.434244            -8.527533
| 21>   H                      -8.975813            -1.231575            -10.048567
| 22>   H                      -9.261180            -0.121086            -8.653161
| 23> *
| 24>
| 25> #Run DFT-D3 single point of the molecule with dimer basis set
| 26> $new_job
| 27> %base "17-41_DFT_A"
| 28> ! wB97X-D3 def2-TZVP TIGHTSCF CHELPG PMODEL
| 29>
| 30> %scf
| 31> MaxIter 1000
| 32> end
| 33>
| 34> * xyz 0 1
| 35>   C                      -11.061836           -2.606470            -4.644816
| 36>   O                      -10.141956           -2.658420            -5.709561
| 37>   H                      -9.563849            -3.404879            -5.487740
| 38>   H                      -11.760266           -1.855055            -4.820786
| 39>   H                      -11.555235           -3.625237            -4.519928
| 40>   H                      -10.483612           -2.275485            -3.754695
| 41>   C                    : -9.052009            -1.199109            -8.938639
| 42>   O                    : -10.155990           -1.919231            -8.421240
| 43>   H                    : -10.052188           -2.063370            -7.485254
| 44>   H                    : -8.106593            -1.434244            -8.527533
| 45>   H                    : -8.975813            -1.231575            -10.048567
| 46>   H                    : -9.261180            -0.121086            -8.653161
| 47> *
| 48>
| 49> #Run DFT-D3 single point of the particle with dimer basis set
| 50> $new_job
| 51> %base "17-41_DFT_B"
| 52> ! wB97X-D3 def2-TZVP TIGHTSCF CHELPG PMODEL
| 53>
| 54> %scf
| 55> MaxIter 1000
| 56> end
| 57>
| 58> * xyz 0 1
| 59>   C                    : -11.061836           -2.606470            -4.644816
| 60>   O                    : -10.141956           -2.658420            -5.709561
| 61>   H                    : -9.563849            -3.404879            -5.487740
| 62>   H                    : -11.760266           -1.855055            -4.820786
| 63>   H                    : -11.555235           -3.625237            -4.519928
| 64>   H                    : -10.483612           -2.275485            -3.754695
| 65>   C                      -9.052009            -1.199109            -8.938639
| 66>   O                      -10.155990           -1.919231            -8.421240
| 67>   H                      -10.052188           -2.063370            -7.485254
| 68>   H                      -8.106593            -1.434244            -8.527533
| 69>   H                      -8.975813            -1.231575            -10.048567
| 70>   H                      -9.261180            -0.121086            -8.653161
| 71> *
| 72>
| 73>                          ****END OF INPUT****
 Total Charge           Charge          ....    0
 Multiplicity           Mult            ....    1
 Number of Electrons    NEL             ....   36
Dispersion correction           -0.001453421
FINAL SINGLE POINT ENERGY      -231.471574366023
Dispersion correction           -0.000213336
FINAL SINGLE POINT ENERGY      -115.732006192595

CARTESIAN COORDINATES (ANGSTROEM)
---------------------------------
  C    -11.061836   -2.606470   -4.644816
  O    -10.141956   -2.658420   -5.709561
  H     -9.563849   -3.404879   -5.487740
  H    -11.760266   -1.855055   -4.820786
  H    -11.555235   -3.625237   -4.519928
  H    -10.483612   -2.275485   -3.754695
  C     -9.052009   -1.199109   -8.938639
  O    -10.155990   -1.919231   -8.421240
  H    -10.052188   -2.063370   -7.485254
  H     -8.106593   -1.434244   -8.527533
  H     -8.975813   -1.231575  -10.048567
  H     -9.261180   -0.121086   -8.653161

 Multiplicity           Mult            ....    1
 Number of Electrons    NEL             ....   18
 Basis Dimension        Dim             ....  172

ORBITAL ENERGIES
----------------

  NO   OCC          E(Eh)            E(eV)
   0   2.0000     -19.228859      -523.2439
   1   2.0000     -10.316639      -280.7300
   2   2.0000      -1.135804       -30.9068
   3   2.0000      -0.796364       -21.6702
   4   2.0000      -0.615511       -16.7489
   5   2.0000      -0.535240       -14.5646
   6   2.0000      -0.528859       -14.3910
   7   2.0000      -0.435057       -11.8385
   8   2.0000      -0.368528       -10.0282
   9   0.0000       0.072223         1.9653
  10   0.0000       0.128328         3.4920
  11   0.0000       0.152401         4.1470
  12   0.0000       0.167512         4.5582
  13   0.0000       0.195078         5.3084

MULLIKEN ATOMIC CHARGES
-----------------------
   0 C :   -0.000716
   1 O :   -0.003599
   2 H :   -0.000549
   3 H :   -0.000412
   4 H :   -0.000013
   5 H :    0.000059
   6 C :   -0.164950
   7 O :   -0.472574
   8 H :    0.313459
   9 H :    0.107452
  10 H :    0.123193
  11 H :    0.098651
Sum of atomic charges:   -0.0000000

LOEWDIN ATOMIC CHARGES
----------------------
   0 C :   -0.002206
   1 O :   -0.023528
   2 H :   -0.001816
   3 H :   -0.000272
   4 H :   -0.000048
   5 H :   -0.000045
   6 C :   -0.382942
   7 O :   -0.065374
   8 H :    0.175105
   9 H :    0.085520
  10 H :    0.112417
  11 H :    0.103191

  Mayer bond orders larger than 0.1
B(  6-C ,  7-O ) :   0.9874 B(  6-C ,  9-H ) :   0.9699 B(  6-C , 10-H ) :   0.9692
B(  6-C , 11-H ) :   0.9894 B(  7-O ,  8-H ) :   0.9036

Dispersion correction           -0.000245915
FINAL SINGLE POINT ENERGY      -115.731689388911

DIPOLE MOMENT
-------------
                                X             Y             Z
Electronic contribution:     -1.37695      -1.12068       0.50570
Nuclear contribution   :      1.90656       1.29989      -0.11318
                        -----------------------------------------
Total Dipole Moment    :      0.52960       0.17921       0.39251
                        -----------------------------------------
Magnitude (a.u.)       :      0.68313
Magnitude (Debye)      :      1.73637

Rotational constants in cm-1:     4.333141     0.822890     0.794243
Rotational constants in MHz : 129904.308337 24669.614375 23810.815908

                             ****ORCA TERMINATED NORMALLY****
TOTAL RUN TIME: 0 days 0 hours 1 minutes 11 seconds 323 msec
