                         Program Version 4.1.2  - RELEASE  -
|  1> #Run DFT-D3 single point of the dimer
|  2> ! wB97X-D3 def2-TZVP TIGHTSCF CHELPG PMODEL PAL8
|  3>
|  4> %base "5-4_DFT_AB"
|  5>
|  6> %scf
|  7> MaxIter 1000
|  8> end
|  9>
| 10> * xyz 0 1
| 11>   C                      7.637502             -1.565497            0.430449
| 12>   O                      6.279459             -1.591730            0.075538
| 13>   H                      6.138315             -2.503580            0.236057
| 14>   H                      8.043561             -0.510717            0.303914
| 15>   H                      7.798157             -1.853950            1.427963
| 16>   H                      8.171181             -2.284390            -0.145285
| 17>   C                      6.668036             -5.455190            -1.030907
| 18>   O                      6.837075             -4.507155            -0.019168
| 19>   H                      7.422544             -4.843241            0.644759
| 20>   H                      7.637286             -5.706751            -1.547188
| 21>   H                      6.155965             -6.319616            -0.667322
| 22>   H                      6.026018             -5.035849            -1.862106
| 23> *
| 24>
| 25> #Run DFT-D3 single point of the molecule with dimer basis set
| 26> $new_job
| 27> %base "5-4_DFT_A"
| 28> ! wB97X-D3 def2-TZVP TIGHTSCF CHELPG PMODEL
| 29>
| 30> %scf
| 31> MaxIter 1000
| 32> end
| 33>
| 34> * xyz 0 1
| 35>   C                      7.637502             -1.565497            0.430449
| 36>   O                      6.279459             -1.591730            0.075538
| 37>   H                      6.138315             -2.503580            0.236057
| 38>   H                      8.043561             -0.510717            0.303914
| 39>   H                      7.798157             -1.853950            1.427963
| 40>   H                      8.171181             -2.284390            -0.145285
| 41>   C                    : 6.668036             -5.455190            -1.030907
| 42>   O                    : 6.837075             -4.507155            -0.019168
| 43>   H                    : 7.422544             -4.843241            0.644759
| 44>   H                    : 7.637286             -5.706751            -1.547188
| 45>   H                    : 6.155965             -6.319616            -0.667322
| 46>   H                    : 6.026018             -5.035849            -1.862106
| 47> *
| 48>
| 49> #Run DFT-D3 single point of the particle with dimer basis set
| 50> $new_job
| 51> %base "5-4_DFT_B"
| 52> ! wB97X-D3 def2-TZVP TIGHTSCF CHELPG PMODEL
| 53>
| 54> %scf
| 55> MaxIter 1000
| 56> end
| 57>
| 58> * xyz 0 1
| 59>   C                    : 7.637502             -1.565497            0.430449
| 60>   O                    : 6.279459             -1.591730            0.075538
| 61>   H                    : 6.138315             -2.503580            0.236057
| 62>   H                    : 8.043561             -0.510717            0.303914
| 63>   H                    : 7.798157             -1.853950            1.427963
| 64>   H                    : 8.171181             -2.284390            -0.145285
| 65>   C                      6.668036             -5.455190            -1.030907
| 66>   O                      6.837075             -4.507155            -0.019168
| 67>   H                      7.422544             -4.843241            0.644759
| 68>   H                      7.637286             -5.706751            -1.547188
| 69>   H                      6.155965             -6.319616            -0.667322
| 70>   H                      6.026018             -5.035849            -1.862106
| 71> *
| 72>
| 73>                          ****END OF INPUT****
 Total Charge           Charge          ....    0
 Multiplicity           Mult            ....    1
 Number of Electrons    NEL             ....   36
Dispersion correction           -0.001940424
FINAL SINGLE POINT ENERGY      -231.470777047654
Dispersion correction           -0.000194780
FINAL SINGLE POINT ENERGY      -115.728494135993

CARTESIAN COORDINATES (ANGSTROEM)
---------------------------------
  C      7.637502   -1.565497    0.430449
  O      6.279459   -1.591730    0.075538
  H      6.138315   -2.503580    0.236057
  H      8.043561   -0.510717    0.303914
  H      7.798157   -1.853950    1.427963
  H      8.171181   -2.284390   -0.145285
  C      6.668036   -5.455190   -1.030907
  O      6.837075   -4.507155   -0.019168
  H      7.422544   -4.843241    0.644759
  H      7.637286   -5.706751   -1.547188
  H      6.155965   -6.319616   -0.667322
  H      6.026018   -5.035849   -1.862106

 Multiplicity           Mult            ....    1
 Number of Electrons    NEL             ....   18
 Basis Dimension        Dim             ....  172

ORBITAL ENERGIES
----------------

  NO   OCC          E(Eh)            E(eV)
   0   2.0000     -19.230377      -523.2852
   1   2.0000     -10.316351      -280.7222
   2   2.0000      -1.144161       -31.1342
   3   2.0000      -0.794733       -21.6258
   4   2.0000      -0.614176       -16.7126
   5   2.0000      -0.549817       -14.9613
   6   2.0000      -0.526248       -14.3199
   7   2.0000      -0.424972       -11.5641
   8   2.0000      -0.376297       -10.2396
   9   0.0000       0.098408         2.6778
  10   0.0000       0.132053         3.5933
  11   0.0000       0.153162         4.1678
  12   0.0000       0.182111         4.9555
  13   0.0000       0.202018         5.4972

MULLIKEN ATOMIC CHARGES
-----------------------
   0 C :    0.016202
   1 O :   -0.000498
   2 H :   -0.010311
   3 H :   -0.000495
   4 H :   -0.003005
   5 H :   -0.016944
   6 C :   -0.156642
   7 O :   -0.461582
   8 H :    0.314422
   9 H :    0.095840
  10 H :    0.105541
  11 H :    0.117473
Sum of atomic charges:   -0.0000000

LOEWDIN ATOMIC CHARGES
----------------------
   0 C :   -0.014635
   1 O :   -0.003448
   2 H :   -0.025199
   3 H :   -0.000144
   4 H :   -0.000869
   5 H :   -0.009766
   6 C :   -0.399787
   7 O :   -0.015437
   8 H :    0.163326
   9 H :    0.099715
  10 H :    0.089599
  11 H :    0.116645

  Mayer bond orders larger than 0.1
B(  6-C ,  7-O ) :   0.9950 B(  6-C ,  9-H ) :   0.9735 B(  6-C , 10-H ) :   0.9735
B(  6-C , 11-H ) :   0.9749 B(  7-O ,  8-H ) :   0.8960

Dispersion correction           -0.000243364
FINAL SINGLE POINT ENERGY      -115.734999533532

DIPOLE MOMENT
-------------
                                X             Y             Z
Electronic contribution:      0.14090       1.23812       1.35356
Nuclear contribution   :      0.15144      -1.83881      -1.32127
                        -----------------------------------------
Total Dipole Moment    :      0.29235      -0.60069       0.03230
                        -----------------------------------------
Magnitude (a.u.)       :      0.66884
Magnitude (Debye)      :      1.70004

Rotational constants in cm-1:     4.280622     0.837569     0.814355
Rotational constants in MHz : 128329.829200 25109.677417 24413.742674

                             ****ORCA TERMINATED NORMALLY****
TOTAL RUN TIME: 0 days 0 hours 0 minutes 57 seconds 573 msec
