                         Program Version 4.1.2  - RELEASE  -
|  1> #Run DFT-D3 single point of the dimer
|  2> ! wB97X-D3 def2-TZVP TIGHTSCF CHELPG PMODEL PAL8
|  3>
|  4> %base "9-214_DFT_AB"
|  5>
|  6> %scf
|  7> MaxIter 1000
|  8> end
|  9>
| 10> * xyz 0 1
| 11>   C                      7.095239             -9.966601            10.733995
| 12>   O                      5.690407             -10.022147           10.857923
| 13>   H                      5.563122             -10.266943           11.787850
| 14>   H                      7.571686             -10.886018           11.172691
| 15>   H                      7.480874             -9.761837            9.782880
| 16>   H                      7.521813             -9.115402            11.268025
| 17>   C                      2.496917             -9.634024            9.265554
| 18>   O                      3.478217             -8.742918            9.862142
| 19>   H                      4.276575             -9.260604            9.940840
| 20>   H                      2.737389             -10.333954           8.432188
| 21>   H                      2.138548             -10.299985           10.088730
| 22>   H                      1.627080             -9.114252            8.914468
| 23> *
| 24>
| 25> #Run DFT-D3 single point of the molecule with dimer basis set
| 26> $new_job
| 27> %base "9-214_DFT_A"
| 28> ! wB97X-D3 def2-TZVP TIGHTSCF CHELPG PMODEL
| 29>
| 30> %scf
| 31> MaxIter 1000
| 32> end
| 33>
| 34> * xyz 0 1
| 35>   C                      7.095239             -9.966601            10.733995
| 36>   O                      5.690407             -10.022147           10.857923
| 37>   H                      5.563122             -10.266943           11.787850
| 38>   H                      7.571686             -10.886018           11.172691
| 39>   H                      7.480874             -9.761837            9.782880
| 40>   H                      7.521813             -9.115402            11.268025
| 41>   C                    : 2.496917             -9.634024            9.265554
| 42>   O                    : 3.478217             -8.742918            9.862142
| 43>   H                    : 4.276575             -9.260604            9.940840
| 44>   H                    : 2.737389             -10.333954           8.432188
| 45>   H                    : 2.138548             -10.299985           10.088730
| 46>   H                    : 1.627080             -9.114252            8.914468
| 47> *
| 48>
| 49> #Run DFT-D3 single point of the particle with dimer basis set
| 50> $new_job
| 51> %base "9-214_DFT_B"
| 52> ! wB97X-D3 def2-TZVP TIGHTSCF CHELPG PMODEL
| 53>
| 54> %scf
| 55> MaxIter 1000
| 56> end
| 57>
| 58> * xyz 0 1
| 59>   C                    : 7.095239             -9.966601            10.733995
| 60>   O                    : 5.690407             -10.022147           10.857923
| 61>   H                    : 5.563122             -10.266943           11.787850
| 62>   H                    : 7.571686             -10.886018           11.172691
| 63>   H                    : 7.480874             -9.761837            9.782880
| 64>   H                    : 7.521813             -9.115402            11.268025
| 65>   C                      2.496917             -9.634024            9.265554
| 66>   O                      3.478217             -8.742918            9.862142
| 67>   H                      4.276575             -9.260604            9.940840
| 68>   H                      2.737389             -10.333954           8.432188
| 69>   H                      2.138548             -10.299985           10.088730
| 70>   H                      1.627080             -9.114252            8.914468
| 71> *
| 72>
| 73>                          ****END OF INPUT****
 Total Charge           Charge          ....    0
 Multiplicity           Mult            ....    1
 Number of Electrons    NEL             ....   36
Dispersion correction           -0.001542779
FINAL SINGLE POINT ENERGY      -231.466713803291
Dispersion correction           -0.000230740
FINAL SINGLE POINT ENERGY      -115.730322760380

CARTESIAN COORDINATES (ANGSTROEM)
---------------------------------
  C      7.095239   -9.966601   10.733995
  O      5.690407  -10.022147   10.857923
  H      5.563122  -10.266943   11.787850
  H      7.571686  -10.886018   11.172691
  H      7.480874   -9.761837    9.782880
  H      7.521813   -9.115402   11.268025
  C      2.496917   -9.634024    9.265554
  O      3.478217   -8.742918    9.862142
  H      4.276575   -9.260604    9.940840
  H      2.737389  -10.333954    8.432188
  H      2.138548  -10.299985   10.088730
  H      1.627080   -9.114252    8.914468

 Multiplicity           Mult            ....    1
 Number of Electrons    NEL             ....   18
 Basis Dimension        Dim             ....  172

ORBITAL ENERGIES
----------------

  NO   OCC          E(Eh)            E(eV)
   0   2.0000     -19.236552      -523.4532
   1   2.0000     -10.319002      -280.7943
   2   2.0000      -1.130139       -30.7526
   3   2.0000      -0.798281       -21.7223
   4   2.0000      -0.607170       -16.5219
   5   2.0000      -0.535064       -14.5598
   6   2.0000      -0.518186       -14.1006
   7   2.0000      -0.444620       -12.0987
   8   2.0000      -0.375287       -10.2121
   9   0.0000       0.072768         1.9801
  10   0.0000       0.128164         3.4875
  11   0.0000       0.146222         3.9789
  12   0.0000       0.165257         4.4969
  13   0.0000       0.192770         5.2456

MULLIKEN ATOMIC CHARGES
-----------------------
   0 C :   -0.001344
   1 O :   -0.005719
   2 H :   -0.001036
   3 H :    0.000046
   4 H :   -0.000207
   5 H :    0.000012
   6 C :   -0.195789
   7 O :   -0.460568
   8 H :    0.313420
   9 H :    0.112183
  10 H :    0.109202
  11 H :    0.129799
Sum of atomic charges:    0.0000000

LOEWDIN ATOMIC CHARGES
----------------------
   0 C :   -0.002646
   1 O :   -0.026594
   2 H :   -0.002232
   3 H :   -0.000056
   4 H :   -0.000179
   5 H :   -0.000062
   6 C :   -0.370451
   7 O :   -0.080418
   8 H :    0.176277
   9 H :    0.100964
  10 H :    0.102271
  11 H :    0.103127

  Mayer bond orders larger than 0.1
B(  6-C ,  7-O ) :   0.9977 B(  6-C ,  9-H ) :   0.9635 B(  6-C , 10-H ) :   0.9812
B(  6-C , 11-H ) :   0.9733 B(  7-O ,  8-H ) :   0.9062

Dispersion correction           -0.000280963
FINAL SINGLE POINT ENERGY      -115.729661597917

DIPOLE MOMENT
-------------
                                X             Y             Z
Electronic contribution:      1.26141       1.37391       0.65399
Nuclear contribution   :     -1.18237      -2.05059      -0.85607
                        -----------------------------------------
Total Dipole Moment    :      0.07905      -0.67668      -0.20209
                        -----------------------------------------
Magnitude (a.u.)       :      0.71062
Magnitude (Debye)      :      1.80625

Rotational constants in cm-1:     4.417384     0.782410     0.757210
Rotational constants in MHz : 132429.839462 23456.070498 22700.571323

                             ****ORCA TERMINATED NORMALLY****
TOTAL RUN TIME: 0 days 0 hours 0 minutes 43 seconds 669 msec
