                         Program Version 4.1.2  - RELEASE  -
|  1> #Run DFT-D3 single point of the dimer
|  2> ! wB97X-D3 def2-TZVP TIGHTSCF CHELPG PMODEL PAL8
|  3>
|  4> %base "1-52_DFT_AB"
|  5>
|  6> %scf
|  7> MaxIter 1000
|  8> end
|  9>
| 10> * xyz 0 1
| 11>   C                      -5.018804            -11.394211           4.335101
| 12>   O                      -4.125954            -10.858784           5.383765
| 13>   H                      -3.702437            -10.083851           5.035189
| 14>   H                      -5.527582            -10.505104           3.828122
| 15>   H                      -4.441818            -11.900742           3.519998
| 16>   H                      -5.719270            -12.198359           4.600835
| 17>   C                      -6.542169            -8.914744            7.551688
| 18>   O                      -5.821048            -8.219840            8.538104
| 19>   H                      -4.894167            -8.094710            8.192385
| 20>   H                      -5.939623            -9.394232            6.790370
| 21>   H                      -7.311096            -9.508938            7.971957
| 22>   H                      -7.045802            -8.227114            6.811990
| 23> *
| 24>
| 25> #Run DFT-D3 single point of the molecule with dimer basis set
| 26> $new_job
| 27> %base "1-52_DFT_A"
| 28> ! wB97X-D3 def2-TZVP TIGHTSCF CHELPG PMODEL
| 29>
| 30> %scf
| 31> MaxIter 1000
| 32> end
| 33>
| 34> * xyz 0 1
| 35>   C                      -5.018804            -11.394211           4.335101
| 36>   O                      -4.125954            -10.858784           5.383765
| 37>   H                      -3.702437            -10.083851           5.035189
| 38>   H                      -5.527582            -10.505104           3.828122
| 39>   H                      -4.441818            -11.900742           3.519998
| 40>   H                      -5.719270            -12.198359           4.600835
| 41>   C                    : -6.542169            -8.914744            7.551688
| 42>   O                    : -5.821048            -8.219840            8.538104
| 43>   H                    : -4.894167            -8.094710            8.192385
| 44>   H                    : -5.939623            -9.394232            6.790370
| 45>   H                    : -7.311096            -9.508938            7.971957
| 46>   H                    : -7.045802            -8.227114            6.811990
| 47> *
| 48>
| 49> #Run DFT-D3 single point of the particle with dimer basis set
| 50> $new_job
| 51> %base "1-52_DFT_B"
| 52> ! wB97X-D3 def2-TZVP TIGHTSCF CHELPG PMODEL
| 53>
| 54> %scf
| 55> MaxIter 1000
| 56> end
| 57>
| 58> * xyz 0 1
| 59>   C                    : -5.018804            -11.394211           4.335101
| 60>   O                    : -4.125954            -10.858784           5.383765
| 61>   H                    : -3.702437            -10.083851           5.035189
| 62>   H                    : -5.527582            -10.505104           3.828122
| 63>   H                    : -4.441818            -11.900742           3.519998
| 64>   H                    : -5.719270            -12.198359           4.600835
| 65>   C                      -6.542169            -8.914744            7.551688
| 66>   O                      -5.821048            -8.219840            8.538104
| 67>   H                      -4.894167            -8.094710            8.192385
| 68>   H                      -5.939623            -9.394232            6.790370
| 69>   H                      -7.311096            -9.508938            7.971957
| 70>   H                      -7.045802            -8.227114            6.811990
| 71> *
| 72>
| 73>                          ****END OF INPUT****
 Total Charge           Charge          ....    0
 Multiplicity           Mult            ....    1
 Number of Electrons    NEL             ....   36
Dispersion correction           -0.001510096
FINAL SINGLE POINT ENERGY      -231.455004423970
Dispersion correction           -0.000282966
FINAL SINGLE POINT ENERGY      -115.726564832418

CARTESIAN COORDINATES (ANGSTROEM)
---------------------------------
  C     -5.018804  -11.394211    4.335101
  O     -4.125954  -10.858784    5.383765
  H     -3.702437  -10.083851    5.035189
  H     -5.527582  -10.505104    3.828122
  H     -4.441818  -11.900742    3.519998
  H     -5.719270  -12.198359    4.600835
  C     -6.542169   -8.914744    7.551688
  O     -5.821048   -8.219840    8.538104
  H     -4.894167   -8.094710    8.192385
  H     -5.939623   -9.394232    6.790370
  H     -7.311096   -9.508938    7.971957
  H     -7.045802   -8.227114    6.811990

 Multiplicity           Mult            ....    1
 Number of Electrons    NEL             ....   18
 Basis Dimension        Dim             ....  172

ORBITAL ENERGIES
----------------

  NO   OCC          E(Eh)            E(eV)
   0   2.0000     -19.236758      -523.4588
   1   2.0000     -10.311036      -280.5775
   2   2.0000      -1.134079       -30.8599
   3   2.0000      -0.795760       -21.6537
   4   2.0000      -0.618373       -16.8268
   5   2.0000      -0.539258       -14.6740
   6   2.0000      -0.519578       -14.1384
   7   2.0000      -0.443208       -12.0603
   8   2.0000      -0.365579        -9.9479
   9   0.0000       0.074602         2.0300
  10   0.0000       0.110961         3.0194
  11   0.0000       0.152666         4.1543
  12   0.0000       0.166687         4.5358
  13   0.0000       0.187060         5.0902

MULLIKEN ATOMIC CHARGES
-----------------------
   0 C :   -0.000224
   1 O :    0.000798
   2 H :   -0.000017
   3 H :   -0.000165
   4 H :   -0.000035
   5 H :   -0.000159
   6 C :   -0.161053
   7 O :   -0.468777
   8 H :    0.320340
   9 H :    0.097960
  10 H :    0.127786
  11 H :    0.083546
Sum of atomic charges:   -0.0000000

LOEWDIN ATOMIC CHARGES
----------------------
   0 C :   -0.002903
   1 O :   -0.002883
   2 H :   -0.000767
   3 H :   -0.000318
   4 H :   -0.000052
   5 H :   -0.000132
   6 C :   -0.401191
   7 O :   -0.082629
   8 H :    0.194121
   9 H :    0.097494
  10 H :    0.099124
  11 H :    0.100137

  Mayer bond orders larger than 0.1
B(  6-C ,  7-O ) :   1.0165 B(  6-C ,  9-H ) :   0.9826 B(  6-C , 10-H ) :   0.9776
B(  6-C , 11-H ) :   0.9690 B(  7-O ,  8-H ) :   0.8927

Dispersion correction           -0.000251592
FINAL SINGLE POINT ENERGY      -115.726967657310

DIPOLE MOMENT
-------------
                                X             Y             Z
Electronic contribution:      0.86611       0.74646       1.59731
Nuclear contribution   :     -0.54427      -0.94123      -2.20171
                        -----------------------------------------
Total Dipole Moment    :      0.32185      -0.19478      -0.60440
                        -----------------------------------------
Magnitude (a.u.)       :      0.71191
Magnitude (Debye)      :      1.80953

Rotational constants in cm-1:     4.362148     0.837527     0.792342
Rotational constants in MHz : 130773.894709 25108.422498 23753.827395

                             ****ORCA TERMINATED NORMALLY****
TOTAL RUN TIME: 0 days 0 hours 5 minutes 46 seconds 428 msec
