                         Program Version 4.1.2  - RELEASE  -
|  1> #Run DFT-D3 single point of the dimer
|  2> ! wB97X-D3 def2-TZVP TIGHTSCF CHELPG PMODEL PAL8
|  3>
|  4> %base "21-63_DFT_AB"
|  5>
|  6> %scf
|  7> MaxIter 1000
|  8> end
|  9>
| 10> * xyz 0 1
| 11>   C                      -11.372586           8.540703             -4.414854
| 12>   O                      -10.682548           7.464592             -3.735657
| 13>   H                      -9.880261            7.202070             -4.211377
| 14>   H                      -12.306293           8.795395             -3.765906
| 15>   H                      -10.774642           9.463074             -4.547285
| 16>   H                      -11.771777           8.144614             -5.371547
| 17>   C                      -11.249430           9.568041             -0.668419
| 18>   O                      -11.154061           9.502135             0.765438
| 19>   H                      -10.710630           10.276384            1.099682
| 20>   H                      -10.527537           10.263290            -0.994442
| 21>   H                      -11.056101           8.580299             -1.239762
| 22>   H                      -12.214678           9.958883             -1.018739
| 23> *
| 24>
| 25> #Run DFT-D3 single point of the molecule with dimer basis set
| 26> $new_job
| 27> %base "21-63_DFT_A"
| 28> ! wB97X-D3 def2-TZVP TIGHTSCF CHELPG PMODEL
| 29>
| 30> %scf
| 31> MaxIter 1000
| 32> end
| 33>
| 34> * xyz 0 1
| 35>   C                      -11.372586           8.540703             -4.414854
| 36>   O                      -10.682548           7.464592             -3.735657
| 37>   H                      -9.880261            7.202070             -4.211377
| 38>   H                      -12.306293           8.795395             -3.765906
| 39>   H                      -10.774642           9.463074             -4.547285
| 40>   H                      -11.771777           8.144614             -5.371547
| 41>   C                    : -11.249430           9.568041             -0.668419
| 42>   O                    : -11.154061           9.502135             0.765438
| 43>   H                    : -10.710630           10.276384            1.099682
| 44>   H                    : -10.527537           10.263290            -0.994442
| 45>   H                    : -11.056101           8.580299             -1.239762
| 46>   H                    : -12.214678           9.958883             -1.018739
| 47> *
| 48>
| 49> #Run DFT-D3 single point of the particle with dimer basis set
| 50> $new_job
| 51> %base "21-63_DFT_B"
| 52> ! wB97X-D3 def2-TZVP TIGHTSCF CHELPG PMODEL
| 53>
| 54> %scf
| 55> MaxIter 1000
| 56> end
| 57>
| 58> * xyz 0 1
| 59>   C                    : -11.372586           8.540703             -4.414854
| 60>   O                    : -10.682548           7.464592             -3.735657
| 61>   H                    : -9.880261            7.202070             -4.211377
| 62>   H                    : -12.306293           8.795395             -3.765906
| 63>   H                    : -10.774642           9.463074             -4.547285
| 64>   H                    : -11.771777           8.144614             -5.371547
| 65>   C                      -11.249430           9.568041             -0.668419
| 66>   O                      -11.154061           9.502135             0.765438
| 67>   H                      -10.710630           10.276384            1.099682
| 68>   H                      -10.527537           10.263290            -0.994442
| 69>   H                      -11.056101           8.580299             -1.239762
| 70>   H                      -12.214678           9.958883             -1.018739
| 71> *
| 72>
| 73>                          ****END OF INPUT****
 Total Charge           Charge          ....    0
 Multiplicity           Mult            ....    1
 Number of Electrons    NEL             ....   36
Dispersion correction           -0.001713501
FINAL SINGLE POINT ENERGY      -231.463370964564
Dispersion correction           -0.000276453
FINAL SINGLE POINT ENERGY      -115.732321729901

CARTESIAN COORDINATES (ANGSTROEM)
---------------------------------
  C    -11.372586    8.540703   -4.414854
  O    -10.682548    7.464592   -3.735657
  H     -9.880261    7.202070   -4.211377
  H    -12.306293    8.795395   -3.765906
  H    -10.774642    9.463074   -4.547285
  H    -11.771777    8.144614   -5.371547
  C    -11.249430    9.568041   -0.668419
  O    -11.154061    9.502135    0.765438
  H    -10.710630   10.276384    1.099682
  H    -10.527537   10.263290   -0.994442
  H    -11.056101    8.580299   -1.239762
  H    -12.214678    9.958883   -1.018739

 Multiplicity           Mult            ....    1
 Number of Electrons    NEL             ....   18
 Basis Dimension        Dim             ....  172

ORBITAL ENERGIES
----------------

  NO   OCC          E(Eh)            E(eV)
   0   2.0000     -19.229577      -523.2634
   1   2.0000     -10.319028      -280.7950
   2   2.0000      -1.129868       -30.7453
   3   2.0000      -0.796520       -21.6744
   4   2.0000      -0.611638       -16.6435
   5   2.0000      -0.535362       -14.5679
   6   2.0000      -0.525524       -14.3002
   7   2.0000      -0.429610       -11.6903
   8   2.0000      -0.374936       -10.2025
   9   0.0000       0.079769         2.1706
  10   0.0000       0.114560         3.1173
  11   0.0000       0.150321         4.0904
  12   0.0000       0.158131         4.3030
  13   0.0000       0.182322         4.9612

MULLIKEN ATOMIC CHARGES
-----------------------
   0 C :   -0.000184
   1 O :    0.000239
   2 H :   -0.000039
   3 H :   -0.000359
   4 H :   -0.000140
   5 H :    0.000047
   6 C :   -0.174727
   7 O :   -0.479489
   8 H :    0.317836
   9 H :    0.112509
  10 H :    0.117726
  11 H :    0.106581
Sum of atomic charges:   -0.0000000

LOEWDIN ATOMIC CHARGES
----------------------
   0 C :   -0.003307
   1 O :   -0.002468
   2 H :   -0.000192
   3 H :   -0.001253
   4 H :   -0.000163
   5 H :   -0.000032
   6 C :   -0.369945
   7 O :   -0.091972
   8 H :    0.163101
   9 H :    0.089023
  10 H :    0.119865
  11 H :    0.097343

  Mayer bond orders larger than 0.1
B(  6-C ,  7-O ) :   1.0067 B(  6-C ,  9-H ) :   0.9880 B(  6-C , 10-H ) :   0.9693
B(  6-C , 11-H ) :   0.9700 B(  7-O ,  8-H ) :   0.8983

Dispersion correction           -0.000264854
FINAL SINGLE POINT ENERGY      -115.729192737150

DIPOLE MOMENT
-------------
                                X             Y             Z
Electronic contribution:      0.05499      -0.22014       1.86879
Nuclear contribution   :      0.22263       0.78421      -2.24955
                        -----------------------------------------
Total Dipole Moment    :      0.27763       0.56408      -0.38076
                        -----------------------------------------
Magnitude (a.u.)       :      0.73501
Magnitude (Debye)      :      1.86825

Rotational constants in cm-1:     4.373643     0.796791     0.771443
Rotational constants in MHz : 131118.522969 23887.203133 23127.265895

                             ****ORCA TERMINATED NORMALLY****
TOTAL RUN TIME: 0 days 0 hours 1 minutes 5 seconds 356 msec
