                         Program Version 4.1.2  - RELEASE  -
|  1> #Run DFT-D3 single point of the dimer
|  2> ! wB97X-D3 def2-TZVP TIGHTSCF CHELPG PMODEL PAL8
|  3>
|  4> %base "10-102_DFT_AB"
|  5>
|  6> %scf
|  7> MaxIter 1000
|  8> end
|  9>
| 10> * xyz 0 1
| 11>   C                      -6.546840            0.074704             9.038280
| 12>   O                      -6.336000            1.429750             8.808845
| 13>   H                      -5.428613            1.515341             8.559811
| 14>   H                      -7.109638            -0.391232            8.240486
| 15>   H                      -5.589320            -0.496312            9.039589
| 16>   H                      -7.081118            -0.070553            9.995042
| 17>   C                      -4.408711            -4.803330            9.541480
| 18>   O                      -3.507719            -5.619174            8.803093
| 19>   H                      -3.577156            -5.385569            7.868004
| 20>   H                      -3.953242            -3.834839            9.823231
| 21>   H                      -5.308709            -4.607049            9.067527
| 22>   H                      -4.647134            -5.268615            10.475084
| 23> *
| 24>
| 25> #Run DFT-D3 single point of the molecule with dimer basis set
| 26> $new_job
| 27> %base "10-102_DFT_A"
| 28> ! wB97X-D3 def2-TZVP TIGHTSCF CHELPG PMODEL
| 29>
| 30> %scf
| 31> MaxIter 1000
| 32> end
| 33>
| 34> * xyz 0 1
| 35>   C                      -6.546840            0.074704             9.038280
| 36>   O                      -6.336000            1.429750             8.808845
| 37>   H                      -5.428613            1.515341             8.559811
| 38>   H                      -7.109638            -0.391232            8.240486
| 39>   H                      -5.589320            -0.496312            9.039589
| 40>   H                      -7.081118            -0.070553            9.995042
| 41>   C                    : -4.408711            -4.803330            9.541480
| 42>   O                    : -3.507719            -5.619174            8.803093
| 43>   H                    : -3.577156            -5.385569            7.868004
| 44>   H                    : -3.953242            -3.834839            9.823231
| 45>   H                    : -5.308709            -4.607049            9.067527
| 46>   H                    : -4.647134            -5.268615            10.475084
| 47> *
| 48>
| 49> #Run DFT-D3 single point of the particle with dimer basis set
| 50> $new_job
| 51> %base "10-102_DFT_B"
| 52> ! wB97X-D3 def2-TZVP TIGHTSCF CHELPG PMODEL
| 53>
| 54> %scf
| 55> MaxIter 1000
| 56> end
| 57>
| 58> * xyz 0 1
| 59>   C                    : -6.546840            0.074704             9.038280
| 60>   O                    : -6.336000            1.429750             8.808845
| 61>   H                    : -5.428613            1.515341             8.559811
| 62>   H                    : -7.109638            -0.391232            8.240486
| 63>   H                    : -5.589320            -0.496312            9.039589
| 64>   H                    : -7.081118            -0.070553            9.995042
| 65>   C                      -4.408711            -4.803330            9.541480
| 66>   O                      -3.507719            -5.619174            8.803093
| 67>   H                      -3.577156            -5.385569            7.868004
| 68>   H                      -3.953242            -3.834839            9.823231
| 69>   H                      -5.308709            -4.607049            9.067527
| 70>   H                      -4.647134            -5.268615            10.475084
| 71> *
| 72>
| 73>                          ****END OF INPUT****
 Total Charge           Charge          ....    0
 Multiplicity           Mult            ....    1
 Number of Electrons    NEL             ....   36
Dispersion correction           -0.000697994
FINAL SINGLE POINT ENERGY      -231.467732980834
Dispersion correction           -0.000234363
FINAL SINGLE POINT ENERGY      -115.734074281071

CARTESIAN COORDINATES (ANGSTROEM)
---------------------------------
  C     -6.546840    0.074704    9.038280
  O     -6.336000    1.429750    8.808845
  H     -5.428613    1.515341    8.559811
  H     -7.109638   -0.391232    8.240486
  H     -5.589320   -0.496312    9.039589
  H     -7.081118   -0.070553    9.995042
  C     -4.408711   -4.803330    9.541480
  O     -3.507719   -5.619174    8.803093
  H     -3.577156   -5.385569    7.868004
  H     -3.953242   -3.834839    9.823231
  H     -5.308709   -4.607049    9.067527
  H     -4.647134   -5.268615   10.475084

 Multiplicity           Mult            ....    1
 Number of Electrons    NEL             ....   18
 Basis Dimension        Dim             ....  172

ORBITAL ENERGIES
----------------

  NO   OCC          E(Eh)            E(eV)
   0   2.0000     -19.230821      -523.2972
   1   2.0000     -10.304970      -280.4125
   2   2.0000      -1.131570       -30.7916
   3   2.0000      -0.802348       -21.8330
   4   2.0000      -0.613153       -16.6847
   5   2.0000      -0.538032       -14.6406
   6   2.0000      -0.528556       -14.3827
   7   2.0000      -0.437671       -11.9096
   8   2.0000      -0.373350       -10.1594
   9   0.0000       0.082358         2.2411
  10   0.0000       0.116376         3.1668
  11   0.0000       0.143438         3.9032
  12   0.0000       0.167624         4.5613
  13   0.0000       0.192796         5.2462

MULLIKEN ATOMIC CHARGES
-----------------------
   0 C :    0.000188
   1 O :   -0.000003
   2 H :   -0.000001
   3 H :   -0.000025
   4 H :   -0.000427
   5 H :   -0.000011
   6 C :   -0.157590
   7 O :   -0.474415
   8 H :    0.314707
   9 H :    0.093594
  10 H :    0.109043
  11 H :    0.114939
Sum of atomic charges:   -0.0000000

LOEWDIN ATOMIC CHARGES
----------------------
   0 C :   -0.000060
   1 O :   -0.000001
   2 H :   -0.000000
   3 H :   -0.000006
   4 H :   -0.000184
   5 H :   -0.000002
   6 C :   -0.372605
   7 O :   -0.083246
   8 H :    0.171810
   9 H :    0.097850
  10 H :    0.082928
  11 H :    0.103518

  Mayer bond orders larger than 0.1
B(  6-C ,  7-O ) :   1.0093 B(  6-C ,  9-H ) :   0.9784 B(  6-C , 10-H ) :   0.9780
B(  6-C , 11-H ) :   0.9763 B(  7-O ,  8-H ) :   0.8994

Dispersion correction           -0.000248112
FINAL SINGLE POINT ENERGY      -115.733582211870

DIPOLE MOMENT
-------------
                                X             Y             Z
Electronic contribution:      1.12179      -1.15348      -0.91111
Nuclear contribution   :     -1.55978       1.61877       0.61412
                        -----------------------------------------
Total Dipole Moment    :     -0.43799       0.46529      -0.29698
                        -----------------------------------------
Magnitude (a.u.)       :      0.70465
Magnitude (Debye)      :      1.79108

Rotational constants in cm-1:     4.514579     0.819604     0.793439
Rotational constants in MHz : 135343.668731 24571.103084 23786.707069

                             ****ORCA TERMINATED NORMALLY****
TOTAL RUN TIME: 0 days 0 hours 0 minutes 59 seconds 545 msec
