                         Program Version 4.1.2  - RELEASE  -
|  1> #Run DFT-D3 single point of the dimer
|  2> ! wB97X-D3 def2-TZVP TIGHTSCF CHELPG PMODEL PAL8
|  3>
|  4> %base "12-71_DFT_AB"
|  5>
|  6> %scf
|  7> MaxIter 1000
|  8> end
|  9>
| 10> * xyz 0 1
| 11>   C                      7.095750             3.934989             5.712976
| 12>   O                      8.233398             3.019336             5.783510
| 13>   H                      8.730311             3.165655             4.956165
| 14>   H                      6.340234             3.723684             6.452433
| 15>   H                      7.425371             4.894638             6.015371
| 16>   H                      6.636750             3.988568             4.765022
| 17>   C                      3.046509             2.841891             9.192081
| 18>   O                      2.285587             2.160725             8.257124
| 19>   H                      2.375504             1.211638             8.317500
| 20>   H                      2.774781             2.634225             10.203713
| 21>   H                      4.106382             2.650446             9.060975
| 22>   H                      2.831567             3.885847             9.093850
| 23> *
| 24>
| 25> #Run DFT-D3 single point of the molecule with dimer basis set
| 26> $new_job
| 27> %base "12-71_DFT_A"
| 28> ! wB97X-D3 def2-TZVP TIGHTSCF CHELPG PMODEL
| 29>
| 30> %scf
| 31> MaxIter 1000
| 32> end
| 33>
| 34> * xyz 0 1
| 35>   C                      7.095750             3.934989             5.712976
| 36>   O                      8.233398             3.019336             5.783510
| 37>   H                      8.730311             3.165655             4.956165
| 38>   H                      6.340234             3.723684             6.452433
| 39>   H                      7.425371             4.894638             6.015371
| 40>   H                      6.636750             3.988568             4.765022
| 41>   C                    : 3.046509             2.841891             9.192081
| 42>   O                    : 2.285587             2.160725             8.257124
| 43>   H                    : 2.375504             1.211638             8.317500
| 44>   H                    : 2.774781             2.634225             10.203713
| 45>   H                    : 4.106382             2.650446             9.060975
| 46>   H                    : 2.831567             3.885847             9.093850
| 47> *
| 48>
| 49> #Run DFT-D3 single point of the particle with dimer basis set
| 50> $new_job
| 51> %base "12-71_DFT_B"
| 52> ! wB97X-D3 def2-TZVP TIGHTSCF CHELPG PMODEL
| 53>
| 54> %scf
| 55> MaxIter 1000
| 56> end
| 57>
| 58> * xyz 0 1
| 59>   C                    : 7.095750             3.934989             5.712976
| 60>   O                    : 8.233398             3.019336             5.783510
| 61>   H                    : 8.730311             3.165655             4.956165
| 62>   H                    : 6.340234             3.723684             6.452433
| 63>   H                    : 7.425371             4.894638             6.015371
| 64>   H                    : 6.636750             3.988568             4.765022
| 65>   C                      3.046509             2.841891             9.192081
| 66>   O                      2.285587             2.160725             8.257124
| 67>   H                      2.375504             1.211638             8.317500
| 68>   H                      2.774781             2.634225             10.203713
| 69>   H                      4.106382             2.650446             9.060975
| 70>   H                      2.831567             3.885847             9.093850
| 71> *
| 72>
| 73>                          ****END OF INPUT****
 Total Charge           Charge          ....    0
 Multiplicity           Mult            ....    1
 Number of Electrons    NEL             ....   36
Dispersion correction           -0.000696999
FINAL SINGLE POINT ENERGY      -231.466584370213
Dispersion correction           -0.000247378
FINAL SINGLE POINT ENERGY      -115.730890926308

CARTESIAN COORDINATES (ANGSTROEM)
---------------------------------
  C      7.095750    3.934989    5.712976
  O      8.233398    3.019336    5.783510
  H      8.730311    3.165655    4.956165
  H      6.340234    3.723684    6.452433
  H      7.425371    4.894638    6.015371
  H      6.636750    3.988568    4.765022
  C      3.046509    2.841891    9.192081
  O      2.285587    2.160725    8.257124
  H      2.375504    1.211638    8.317500
  H      2.774781    2.634225   10.203713
  H      4.106382    2.650446    9.060975
  H      2.831567    3.885847    9.093850

 Multiplicity           Mult            ....    1
 Number of Electrons    NEL             ....   18
 Basis Dimension        Dim             ....  172

ORBITAL ENERGIES
----------------

  NO   OCC          E(Eh)            E(eV)
   0   2.0000     -19.226141      -523.1699
   1   2.0000     -10.303258      -280.3659
   2   2.0000      -1.141761       -31.0689
   3   2.0000      -0.801893       -21.8206
   4   2.0000      -0.618088       -16.8190
   5   2.0000      -0.549790       -14.9605
   6   2.0000      -0.530256       -14.4290
   7   2.0000      -0.426078       -11.5942
   8   2.0000      -0.372381       -10.1330
   9   0.0000       0.087548         2.3823
  10   0.0000       0.117767         3.2046
  11   0.0000       0.150572         4.0973
  12   0.0000       0.171014         4.6535
  13   0.0000       0.190302         5.1784

MULLIKEN ATOMIC CHARGES
-----------------------
   0 C :   -0.000377
   1 O :    0.000008
   2 H :    0.000000
   3 H :    0.000616
   4 H :    0.000028
   5 H :    0.000006
   6 C :   -0.147926
   7 O :   -0.479885
   8 H :    0.314391
   9 H :    0.096006
  10 H :    0.098982
  11 H :    0.118150
Sum of atomic charges:    0.0000000

LOEWDIN ATOMIC CHARGES
----------------------
   0 C :   -0.000051
   1 O :   -0.000001
   2 H :   -0.000000
   3 H :   -0.000101
   4 H :   -0.000001
   5 H :   -0.000001
   6 C :   -0.398781
   7 O :   -0.053581
   8 H :    0.165087
   9 H :    0.087801
  10 H :    0.092824
  11 H :    0.106805

  Mayer bond orders larger than 0.1
B(  6-C ,  7-O ) :   1.0009 B(  6-C ,  9-H ) :   0.9778 B(  6-C , 10-H ) :   0.9796
B(  6-C , 11-H ) :   0.9741 B(  7-O ,  8-H ) :   0.8971

Dispersion correction           -0.000233810
FINAL SINGLE POINT ENERGY      -115.735174322627

DIPOLE MOMENT
-------------
                                X             Y             Z
Electronic contribution:     -0.99645      -0.80270      -1.25547
Nuclear contribution   :      1.34000       0.46361       1.66933
                        -----------------------------------------
Total Dipole Moment    :      0.34355      -0.33908       0.41387
                        -----------------------------------------
Magnitude (a.u.)       :      0.63584
Magnitude (Debye)      :      1.61617

Rotational constants in cm-1:     4.514907     0.856187     0.828657
Rotational constants in MHz : 135353.492237 25667.843973 24842.522888

                             ****ORCA TERMINATED NORMALLY****
TOTAL RUN TIME: 0 days 0 hours 1 minutes 0 seconds 24 msec
