                         Program Version 4.1.2  - RELEASE  -
|  1> #Run DFT-D3 single point of the dimer
|  2> ! wB97X-D3 def2-TZVP TIGHTSCF CHELPG PMODEL PAL8
|  3>
|  4> %base "1-38_DFT_AB"
|  5>
|  6> %scf
|  7> MaxIter 1000
|  8> end
|  9>
| 10> * xyz 0 1
| 11>   C                      -2.354992            4.220558             -11.114118
| 12>   O                      -3.266662            5.290288             -11.142796
| 13>   H                      -4.137291            4.981376             -11.457363
| 14>   H                      -1.583191            4.453698             -10.358504
| 15>   H                      -2.862234            3.277000             -10.825924
| 16>   H                      -1.849931            4.156217             -12.122973
| 17>   C                      1.728445             8.994349             -9.535943
| 18>   O                      1.181782             7.740304             -9.811991
| 19>   H                      1.553072             7.413535             -10.598472
| 20>   H                      2.778297             9.075868             -9.835252
| 21>   H                      1.221910             9.766408             -10.110770
| 22>   H                      1.788862             9.195032             -8.452673
| 23> *
| 24>
| 25> #Run DFT-D3 single point of the molecule with dimer basis set
| 26> $new_job
| 27> %base "1-38_DFT_A"
| 28> ! wB97X-D3 def2-TZVP TIGHTSCF CHELPG PMODEL
| 29>
| 30> %scf
| 31> MaxIter 1000
| 32> end
| 33>
| 34> * xyz 0 1
| 35>   C                      -2.354992            4.220558             -11.114118
| 36>   O                      -3.266662            5.290288             -11.142796
| 37>   H                      -4.137291            4.981376             -11.457363
| 38>   H                      -1.583191            4.453698             -10.358504
| 39>   H                      -2.862234            3.277000             -10.825924
| 40>   H                      -1.849931            4.156217             -12.122973
| 41>   C                    : 1.728445             8.994349             -9.535943
| 42>   O                    : 1.181782             7.740304             -9.811991
| 43>   H                    : 1.553072             7.413535             -10.598472
| 44>   H                    : 2.778297             9.075868             -9.835252
| 45>   H                    : 1.221910             9.766408             -10.110770
| 46>   H                    : 1.788862             9.195032             -8.452673
| 47> *
| 48>
| 49> #Run DFT-D3 single point of the particle with dimer basis set
| 50> $new_job
| 51> %base "1-38_DFT_B"
| 52> ! wB97X-D3 def2-TZVP TIGHTSCF CHELPG PMODEL
| 53>
| 54> %scf
| 55> MaxIter 1000
| 56> end
| 57>
| 58> * xyz 0 1
| 59>   C                    : -2.354992            4.220558             -11.114118
| 60>   O                    : -3.266662            5.290288             -11.142796
| 61>   H                    : -4.137291            4.981376             -11.457363
| 62>   H                    : -1.583191            4.453698             -10.358504
| 63>   H                    : -2.862234            3.277000             -10.825924
| 64>   H                    : -1.849931            4.156217             -12.122973
| 65>   C                      1.728445             8.994349             -9.535943
| 66>   O                      1.181782             7.740304             -9.811991
| 67>   H                      1.553072             7.413535             -10.598472
| 68>   H                      2.778297             9.075868             -9.835252
| 69>   H                      1.221910             9.766408             -10.110770
| 70>   H                      1.788862             9.195032             -8.452673
| 71> *
| 72>
| 73>                          ****END OF INPUT****
 Total Charge           Charge          ....    0
 Multiplicity           Mult            ....    1
 Number of Electrons    NEL             ....   36
Dispersion correction           -0.000621714
FINAL SINGLE POINT ENERGY      -231.467910033280
Dispersion correction           -0.000244943
FINAL SINGLE POINT ENERGY      -115.734828143205

CARTESIAN COORDINATES (ANGSTROEM)
---------------------------------
  C     -2.354992    4.220558  -11.114118
  O     -3.266662    5.290288  -11.142796
  H     -4.137291    4.981376  -11.457363
  H     -1.583191    4.453698  -10.358504
  H     -2.862234    3.277000  -10.825924
  H     -1.849931    4.156217  -12.122973
  C      1.728445    8.994349   -9.535943
  O      1.181782    7.740304   -9.811991
  H      1.553072    7.413535  -10.598472
  H      2.778297    9.075868   -9.835252
  H      1.221910    9.766408  -10.110770
  H      1.788862    9.195032   -8.452673

 Multiplicity           Mult            ....    1
 Number of Electrons    NEL             ....   18
 Basis Dimension        Dim             ....  172

ORBITAL ENERGIES
----------------

  NO   OCC          E(Eh)            E(eV)
   0   2.0000     -19.227366      -523.2032
   1   2.0000     -10.311804      -280.5984
   2   2.0000      -1.147713       -31.2309
   3   2.0000      -0.798302       -21.7229
   4   2.0000      -0.620609       -16.8876
   5   2.0000      -0.550177       -14.9711
   6   2.0000      -0.523920       -14.2566
   7   2.0000      -0.429535       -11.6882
   8   2.0000      -0.374912       -10.2019
   9   0.0000       0.091195         2.4815
  10   0.0000       0.117871         3.2074
  11   0.0000       0.154036         4.1915
  12   0.0000       0.172005         4.6805
  13   0.0000       0.197133         5.3643

MULLIKEN ATOMIC CHARGES
-----------------------
   0 C :    0.000023
   1 O :    0.000027
   2 H :    0.000002
   3 H :   -0.000491
   4 H :   -0.000014
   5 H :    0.000020
   6 C :   -0.158526
   7 O :   -0.468740
   8 H :    0.313142
   9 H :    0.097692
  10 H :    0.098503
  11 H :    0.118361
Sum of atomic charges:   -0.0000000

LOEWDIN ATOMIC CHARGES
----------------------
   0 C :   -0.000074
   1 O :   -0.000003
   2 H :   -0.000000
   3 H :   -0.000160
   4 H :   -0.000003
   5 H :   -0.000001
   6 C :   -0.398509
   7 O :   -0.049502
   8 H :    0.150801
   9 H :    0.094197
  10 H :    0.093339
  11 H :    0.109915

  Mayer bond orders larger than 0.1
B(  6-C ,  7-O ) :   1.0011 B(  6-C ,  9-H ) :   0.9825 B(  6-C , 10-H ) :   0.9762
B(  6-C , 11-H ) :   0.9710 B(  7-O ,  8-H ) :   0.9034

Dispersion correction           -0.000233846
FINAL SINGLE POINT ENERGY      -115.733319965819

DIPOLE MOMENT
-------------
                                X             Y             Z
Electronic contribution:     -0.88008      -1.63939      -0.22482
Nuclear contribution   :      1.37138       1.90892      -0.18428
                        -----------------------------------------
Total Dipole Moment    :      0.49130       0.26954      -0.40911
                        -----------------------------------------
Magnitude (a.u.)       :      0.69383
Magnitude (Debye)      :      1.76357

Rotational constants in cm-1:     4.399726     0.843308     0.818100
Rotational constants in MHz : 131900.453933 25281.750543 24526.007892

                             ****ORCA TERMINATED NORMALLY****
TOTAL RUN TIME: 0 days 0 hours 5 minutes 59 seconds 702 msec
