                         Program Version 4.1.2  - RELEASE  -
|  1> #Run DFT-D3 single point of the dimer
|  2> ! wB97X-D3 def2-TZVP TIGHTSCF CHELPG PMODEL PAL8
|  3>
|  4> %base "22-160_DFT_AB"
|  5>
|  6> %scf
|  7> MaxIter 1000
|  8> end
|  9>
| 10> * xyz 0 1
| 11>   C                      -10.233943           -4.924669            -8.659178
| 12>   O                      -10.390497           -4.158044            -7.618028
| 13>   H                      -11.345929           -4.040492            -7.420333
| 14>   H                      -9.200614            -4.983885            -9.091385
| 15>   H                      -10.407474           -5.941778            -8.406912
| 16>   H                      -10.965328           -4.722356            -9.441306
| 17>   C                      -9.575890            -1.714717            -9.971939
| 18>   O                      -8.783560            -1.945917            -8.854113
| 19>   H                      -9.272801            -2.521201            -8.251607
| 20>   H                      -10.653452           -1.483657            -9.666511
| 21>   H                      -9.032290            -0.866566            -10.589355
| 22>   H                      -9.703653            -2.581191            -10.584015
| 23> *
| 24>
| 25> #Run DFT-D3 single point of the molecule with dimer basis set
| 26> $new_job
| 27> %base "22-160_DFT_A"
| 28> ! wB97X-D3 def2-TZVP TIGHTSCF CHELPG PMODEL
| 29>
| 30> %scf
| 31> MaxIter 1000
| 32> end
| 33>
| 34> * xyz 0 1
| 35>   C                      -10.233943           -4.924669            -8.659178
| 36>   O                      -10.390497           -4.158044            -7.618028
| 37>   H                      -11.345929           -4.040492            -7.420333
| 38>   H                      -9.200614            -4.983885            -9.091385
| 39>   H                      -10.407474           -5.941778            -8.406912
| 40>   H                      -10.965328           -4.722356            -9.441306
| 41>   C                    : -9.575890            -1.714717            -9.971939
| 42>   O                    : -8.783560            -1.945917            -8.854113
| 43>   H                    : -9.272801            -2.521201            -8.251607
| 44>   H                    : -10.653452           -1.483657            -9.666511
| 45>   H                    : -9.032290            -0.866566            -10.589355
| 46>   H                    : -9.703653            -2.581191            -10.584015
| 47> *
| 48>
| 49> #Run DFT-D3 single point of the particle with dimer basis set
| 50> $new_job
| 51> %base "22-160_DFT_B"
| 52> ! wB97X-D3 def2-TZVP TIGHTSCF CHELPG PMODEL
| 53>
| 54> %scf
| 55> MaxIter 1000
| 56> end
| 57>
| 58> * xyz 0 1
| 59>   C                    : -10.233943           -4.924669            -8.659178
| 60>   O                    : -10.390497           -4.158044            -7.618028
| 61>   H                    : -11.345929           -4.040492            -7.420333
| 62>   H                    : -9.200614            -4.983885            -9.091385
| 63>   H                    : -10.407474           -5.941778            -8.406912
| 64>   H                    : -10.965328           -4.722356            -9.441306
| 65>   C                      -9.575890            -1.714717            -9.971939
| 66>   O                      -8.783560            -1.945917            -8.854113
| 67>   H                      -9.272801            -2.521201            -8.251607
| 68>   H                      -10.653452           -1.483657            -9.666511
| 69>   H                      -9.032290            -0.866566            -10.589355
| 70>   H                      -9.703653            -2.581191            -10.584015
| 71> *
| 72>
| 73>                          ****END OF INPUT****
 Total Charge           Charge          ....    0
 Multiplicity           Mult            ....    1
 Number of Electrons    NEL             ....   36
Dispersion correction           -0.002347126
FINAL SINGLE POINT ENERGY      -231.459276998594
Dispersion correction           -0.000200709
FINAL SINGLE POINT ENERGY      -115.722644205320

CARTESIAN COORDINATES (ANGSTROEM)
---------------------------------
  C    -10.233943   -4.924669   -8.659178
  O    -10.390497   -4.158044   -7.618028
  H    -11.345929   -4.040492   -7.420333
  H     -9.200614   -4.983885   -9.091385
  H    -10.407474   -5.941778   -8.406912
  H    -10.965328   -4.722356   -9.441306
  C     -9.575890   -1.714717   -9.971939
  O     -8.783560   -1.945917   -8.854113
  H     -9.272801   -2.521201   -8.251607
  H    -10.653452   -1.483657   -9.666511
  H     -9.032290   -0.866566  -10.589355
  H     -9.703653   -2.581191  -10.584015

 Multiplicity           Mult            ....    1
 Number of Electrons    NEL             ....   18
 Basis Dimension        Dim             ....  172

ORBITAL ENERGIES
----------------

  NO   OCC          E(Eh)            E(eV)
   0   2.0000     -19.232869      -523.3530
   1   2.0000     -10.323232      -280.9094
   2   2.0000      -1.144915       -31.1547
   3   2.0000      -0.786556       -21.4033
   4   2.0000      -0.620567       -16.8865
   5   2.0000      -0.536942       -14.6109
   6   2.0000      -0.521522       -14.1913
   7   2.0000      -0.434392       -11.8204
   8   2.0000      -0.369868       -10.0646
   9   0.0000       0.068378         1.8607
  10   0.0000       0.138716         3.7747
  11   0.0000       0.143131         3.8948
  12   0.0000       0.161714         4.4005
  13   0.0000       0.187178         5.0934

MULLIKEN ATOMIC CHARGES
-----------------------
   0 C :   -0.004981
   1 O :   -0.001876
   2 H :   -0.000142
   3 H :   -0.001593
   4 H :   -0.000356
   5 H :   -0.000537
   6 C :   -0.174805
   7 O :   -0.457683
   8 H :    0.314495
   9 H :    0.094038
  10 H :    0.125542
  11 H :    0.107897
Sum of atomic charges:    0.0000000

LOEWDIN ATOMIC CHARGES
----------------------
   0 C :   -0.012984
   1 O :   -0.012958
   2 H :   -0.000848
   3 H :   -0.002473
   4 H :   -0.000170
   5 H :   -0.001247
   6 C :   -0.413219
   7 O :   -0.049651
   8 H :    0.180422
   9 H :    0.100421
  10 H :    0.126839
  11 H :    0.085867

  Mayer bond orders larger than 0.1
B(  6-C ,  7-O ) :   0.9955 B(  6-C ,  9-H ) :   0.9804 B(  6-C , 10-H ) :   0.9714
B(  6-C , 11-H ) :   0.9700 B(  7-O ,  8-H ) :   0.9026

Dispersion correction           -0.000236863
FINAL SINGLE POINT ENERGY      -115.728961797558

DIPOLE MOMENT
-------------
                                X             Y             Z
Electronic contribution:      1.18470      -0.24482       1.40115
Nuclear contribution   :     -1.77274      -0.05516      -1.43361
                        -----------------------------------------
Total Dipole Moment    :     -0.58804      -0.29999      -0.03247
                        -----------------------------------------
Magnitude (a.u.)       :      0.66093
Magnitude (Debye)      :      1.67996

Rotational constants in cm-1:     4.012761     0.862773     0.808845
Rotational constants in MHz : 120299.553533 25865.287031 24248.549648

                             ****ORCA TERMINATED NORMALLY****
TOTAL RUN TIME: 0 days 0 hours 1 minutes 10 seconds 218 msec
