                         Program Version 4.1.2  - RELEASE  -
|  1> #Run DFT-D3 single point of the dimer
|  2> ! wB97X-D3 def2-TZVP TIGHTSCF CHELPG PMODEL PAL8
|  3>
|  4> %base "10-180_DFT_AB"
|  5>
|  6> %scf
|  7> MaxIter 1000
|  8> end
|  9>
| 10> * xyz 0 1
| 11>   C                      -5.729797            -5.671993            -7.888468
| 12>   O                      -4.774896            -6.645310            -8.294019
| 13>   H                      -4.181447            -6.872125            -7.564931
| 14>   H                      -6.029496            -5.916102            -6.912379
| 15>   H                      -5.254209            -4.746069            -7.793093
| 16>   H                      -6.596670            -5.522676            -8.582093
| 17>   C                      -4.911452            -8.847695            -10.883785
| 18>   O                      -5.865044            -8.034821            -10.220594
| 19>   H                      -5.476972            -7.195485            -9.863102
| 20>   H                      -3.921869            -8.654860            -10.470061
| 21>   H                      -5.179424            -9.887251            -10.801956
| 22>   H                      -4.938959            -8.569282            -11.932343
| 23> *
| 24>
| 25> #Run DFT-D3 single point of the molecule with dimer basis set
| 26> $new_job
| 27> %base "10-180_DFT_A"
| 28> ! wB97X-D3 def2-TZVP TIGHTSCF CHELPG PMODEL
| 29>
| 30> %scf
| 31> MaxIter 1000
| 32> end
| 33>
| 34> * xyz 0 1
| 35>   C                      -5.729797            -5.671993            -7.888468
| 36>   O                      -4.774896            -6.645310            -8.294019
| 37>   H                      -4.181447            -6.872125            -7.564931
| 38>   H                      -6.029496            -5.916102            -6.912379
| 39>   H                      -5.254209            -4.746069            -7.793093
| 40>   H                      -6.596670            -5.522676            -8.582093
| 41>   C                    : -4.911452            -8.847695            -10.883785
| 42>   O                    : -5.865044            -8.034821            -10.220594
| 43>   H                    : -5.476972            -7.195485            -9.863102
| 44>   H                    : -3.921869            -8.654860            -10.470061
| 45>   H                    : -5.179424            -9.887251            -10.801956
| 46>   H                    : -4.938959            -8.569282            -11.932343
| 47> *
| 48>
| 49> #Run DFT-D3 single point of the particle with dimer basis set
| 50> $new_job
| 51> %base "10-180_DFT_B"
| 52> ! wB97X-D3 def2-TZVP TIGHTSCF CHELPG PMODEL
| 53>
| 54> %scf
| 55> MaxIter 1000
| 56> end
| 57>
| 58> * xyz 0 1
| 59>   C                    : -5.729797            -5.671993            -7.888468
| 60>   O                    : -4.774896            -6.645310            -8.294019
| 61>   H                    : -4.181447            -6.872125            -7.564931
| 62>   H                    : -6.029496            -5.916102            -6.912379
| 63>   H                    : -5.254209            -4.746069            -7.793093
| 64>   H                    : -6.596670            -5.522676            -8.582093
| 65>   C                      -4.911452            -8.847695            -10.883785
| 66>   O                      -5.865044            -8.034821            -10.220594
| 67>   H                      -5.476972            -7.195485            -9.863102
| 68>   H                      -3.921869            -8.654860            -10.470061
| 69>   H                      -5.179424            -9.887251            -10.801956
| 70>   H                      -4.938959            -8.569282            -11.932343
| 71> *
| 72>
| 73>                          ****END OF INPUT****
 Total Charge           Charge          ....    0
 Multiplicity           Mult            ....    1
 Number of Electrons    NEL             ....   36
Dispersion correction           -0.001782799
FINAL SINGLE POINT ENERGY      -231.465057755385
Dispersion correction           -0.000227297
FINAL SINGLE POINT ENERGY      -115.729275190677

CARTESIAN COORDINATES (ANGSTROEM)
---------------------------------
  C     -5.729797   -5.671993   -7.888468
  O     -4.774896   -6.645310   -8.294019
  H     -4.181447   -6.872125   -7.564931
  H     -6.029496   -5.916102   -6.912379
  H     -5.254209   -4.746069   -7.793093
  H     -6.596670   -5.522676   -8.582093
  C     -4.911452   -8.847695  -10.883785
  O     -5.865044   -8.034821  -10.220594
  H     -5.476972   -7.195485   -9.863102
  H     -3.921869   -8.654860  -10.470061
  H     -5.179424   -9.887251  -10.801956
  H     -4.938959   -8.569282  -11.932343

 Multiplicity           Mult            ....    1
 Number of Electrons    NEL             ....   18
 Basis Dimension        Dim             ....  172

ORBITAL ENERGIES
----------------

  NO   OCC          E(Eh)            E(eV)
   0   2.0000     -19.227847      -523.2163
   1   2.0000     -10.310271      -280.5567
   2   2.0000      -1.124962       -30.6118
   3   2.0000      -0.795701       -21.6521
   4   2.0000      -0.605100       -16.4656
   5   2.0000      -0.541952       -14.7473
   6   2.0000      -0.533971       -14.5301
   7   2.0000      -0.427006       -11.6194
   8   2.0000      -0.369272       -10.0484
   9   0.0000       0.073409         1.9976
  10   0.0000       0.131979         3.5913
  11   0.0000       0.155239         4.2243
  12   0.0000       0.166467         4.5298
  13   0.0000       0.197031         5.3615

MULLIKEN ATOMIC CHARGES
-----------------------
   0 C :   -0.005296
   1 O :   -0.008953
   2 H :   -0.000773
   3 H :    0.000679
   4 H :    0.000312
   5 H :   -0.000553
   6 C :   -0.159136
   7 O :   -0.480482
   8 H :    0.320659
   9 H :    0.104166
  10 H :    0.120888
  11 H :    0.108489
Sum of atomic charges:    0.0000000

LOEWDIN ATOMIC CHARGES
----------------------
   0 C :   -0.011178
   1 O :   -0.033796
   2 H :   -0.001664
   3 H :   -0.000203
   4 H :   -0.000191
   5 H :   -0.001693
   6 C :   -0.371983
   7 O :   -0.077493
   8 H :    0.202282
   9 H :    0.096367
  10 H :    0.103289
  11 H :    0.096263

  Mayer bond orders larger than 0.1
B(  6-C ,  7-O ) :   0.9898 B(  6-C ,  9-H ) :   0.9816 B(  6-C , 10-H ) :   0.9696
B(  6-C , 11-H ) :   0.9846 B(  7-O ,  8-H ) :   0.8892

Dispersion correction           -0.000239443
FINAL SINGLE POINT ENERGY      -115.734243456563

DIPOLE MOMENT
-------------
                                X             Y             Z
Electronic contribution:     -1.24462       0.80618       0.80168
Nuclear contribution   :      1.88515      -0.62870      -0.85443
                        -----------------------------------------
Total Dipole Moment    :      0.64053       0.17748      -0.05275
                        -----------------------------------------
Magnitude (a.u.)       :      0.66675
Magnitude (Debye)      :      1.69474

Rotational constants in cm-1:     4.288801     0.831059     0.798989
Rotational constants in MHz : 128575.004626 24914.507628 23953.073560

                             ****ORCA TERMINATED NORMALLY****
TOTAL RUN TIME: 0 days 0 hours 1 minutes 7 seconds 694 msec
