                         Program Version 4.1.2  - RELEASE  -
|  1> #Run DFT-D3 single point of the dimer
|  2> ! wB97X-D3 def2-TZVP TIGHTSCF CHELPG PMODEL PAL8
|  3>
|  4> %base "17-79_DFT_AB"
|  5>
|  6> %scf
|  7> MaxIter 1000
|  8> end
|  9>
| 10> * xyz 0 1
| 11>   C                      -1.143472            3.251015             -8.383428
| 12>   O                      -1.942154            2.903486             -9.464382
| 13>   H                      -1.698939            3.509440             -10.183064
| 14>   H                      -1.426148            2.504044             -7.571571
| 15>   H                      -0.084644            3.152513             -8.594473
| 16>   H                      -1.392792            4.268874             -8.070492
| 17>   C                      0.868695             8.508452             -8.533140
| 18>   O                      -0.149300            8.813113             -7.596964
| 19>   H                      -0.601290            9.445401             -8.112834
| 20>   H                      0.481763             8.301252             -9.515079
| 21>   H                      1.649423             9.224078             -8.522058
| 22>   H                      1.446349             7.609110             -8.255551
| 23> *
| 24>
| 25> #Run DFT-D3 single point of the molecule with dimer basis set
| 26> $new_job
| 27> %base "17-79_DFT_A"
| 28> ! wB97X-D3 def2-TZVP TIGHTSCF CHELPG PMODEL
| 29>
| 30> %scf
| 31> MaxIter 1000
| 32> end
| 33>
| 34> * xyz 0 1
| 35>   C                      -1.143472            3.251015             -8.383428
| 36>   O                      -1.942154            2.903486             -9.464382
| 37>   H                      -1.698939            3.509440             -10.183064
| 38>   H                      -1.426148            2.504044             -7.571571
| 39>   H                      -0.084644            3.152513             -8.594473
| 40>   H                      -1.392792            4.268874             -8.070492
| 41>   C                    : 0.868695             8.508452             -8.533140
| 42>   O                    : -0.149300            8.813113             -7.596964
| 43>   H                    : -0.601290            9.445401             -8.112834
| 44>   H                    : 0.481763             8.301252             -9.515079
| 45>   H                    : 1.649423             9.224078             -8.522058
| 46>   H                    : 1.446349             7.609110             -8.255551
| 47> *
| 48>
| 49> #Run DFT-D3 single point of the particle with dimer basis set
| 50> $new_job
| 51> %base "17-79_DFT_B"
| 52> ! wB97X-D3 def2-TZVP TIGHTSCF CHELPG PMODEL
| 53>
| 54> %scf
| 55> MaxIter 1000
| 56> end
| 57>
| 58> * xyz 0 1
| 59>   C                    : -1.143472            3.251015             -8.383428
| 60>   O                    : -1.942154            2.903486             -9.464382
| 61>   H                    : -1.698939            3.509440             -10.183064
| 62>   H                    : -1.426148            2.504044             -7.571571
| 63>   H                    : -0.084644            3.152513             -8.594473
| 64>   H                    : -1.392792            4.268874             -8.070492
| 65>   C                      0.868695             8.508452             -8.533140
| 66>   O                      -0.149300            8.813113             -7.596964
| 67>   H                      -0.601290            9.445401             -8.112834
| 68>   H                      0.481763             8.301252             -9.515079
| 69>   H                      1.649423             9.224078             -8.522058
| 70>   H                      1.446349             7.609110             -8.255551
| 71> *
| 72>
| 73>                          ****END OF INPUT****
 Total Charge           Charge          ....    0
 Multiplicity           Mult            ....    1
 Number of Electrons    NEL             ....   36
Dispersion correction           -0.000601386
FINAL SINGLE POINT ENERGY      -231.463693884446
Dispersion correction           -0.000216689
FINAL SINGLE POINT ENERGY      -115.734397242054

CARTESIAN COORDINATES (ANGSTROEM)
---------------------------------
  C     -1.143472    3.251015   -8.383428
  O     -1.942154    2.903486   -9.464382
  H     -1.698939    3.509440  -10.183064
  H     -1.426148    2.504044   -7.571571
  H     -0.084644    3.152513   -8.594473
  H     -1.392792    4.268874   -8.070492
  C      0.868695    8.508452   -8.533140
  O     -0.149300    8.813113   -7.596964
  H     -0.601290    9.445401   -8.112834
  H      0.481763    8.301252   -9.515079
  H      1.649423    9.224078   -8.522058
  H      1.446349    7.609110   -8.255551

 Multiplicity           Mult            ....    1
 Number of Electrons    NEL             ....   18
 Basis Dimension        Dim             ....  172

ORBITAL ENERGIES
----------------

  NO   OCC          E(Eh)            E(eV)
   0   2.0000     -19.231761      -523.3228
   1   2.0000     -10.308897      -280.5193
   2   2.0000      -1.149295       -31.2739
   3   2.0000      -0.798930       -21.7400
   4   2.0000      -0.610670       -16.6172
   5   2.0000      -0.554554       -15.0902
   6   2.0000      -0.526057       -14.3147
   7   2.0000      -0.439860       -11.9692
   8   2.0000      -0.378656       -10.3037
   9   0.0000       0.088404         2.4056
  10   0.0000       0.118840         3.2338
  11   0.0000       0.155319         4.2264
  12   0.0000       0.167526         4.5586
  13   0.0000       0.189691         5.1617

MULLIKEN ATOMIC CHARGES
-----------------------
   0 C :    0.000020
   1 O :    0.000001
   2 H :   -0.000000
   3 H :   -0.000002
   4 H :   -0.000004
   5 H :   -0.000182
   6 C :   -0.179850
   7 O :   -0.452176
   8 H :    0.309955
   9 H :    0.106329
  10 H :    0.105340
  11 H :    0.110569
Sum of atomic charges:    0.0000000

LOEWDIN ATOMIC CHARGES
----------------------
   0 C :   -0.000021
   1 O :   -0.000001
   2 H :   -0.000001
   3 H :   -0.000000
   4 H :   -0.000008
   5 H :   -0.000070
   6 C :   -0.388894
   7 O :   -0.061072
   8 H :    0.157270
   9 H :    0.093387
  10 H :    0.088585
  11 H :    0.110824

  Mayer bond orders larger than 0.1
B(  6-C ,  7-O ) :   1.0038 B(  6-C ,  9-H ) :   0.9809 B(  6-C , 10-H ) :   0.9765
B(  6-C , 11-H ) :   0.9772 B(  7-O ,  8-H ) :   0.9105

Dispersion correction           -0.000216901
FINAL SINGLE POINT ENERGY      -115.729107464718

DIPOLE MOMENT
-------------
                                X             Y             Z
Electronic contribution:     -1.36411       0.38085       1.29246
Nuclear contribution   :      1.49133      -0.12105      -1.97099
                        -----------------------------------------
Total Dipole Moment    :      0.12722       0.25980      -0.67853
                        -----------------------------------------
Magnitude (a.u.)       :      0.73762
Magnitude (Debye)      :      1.87488

Rotational constants in cm-1:     4.444124     0.837233     0.808296
Rotational constants in MHz : 133231.471757 25099.617779 24232.106483

                             ****ORCA TERMINATED NORMALLY****
TOTAL RUN TIME: 0 days 0 hours 1 minutes 8 seconds 973 msec
