                         Program Version 4.1.2  - RELEASE  -
|  1> #Run DFT-D3 single point of the dimer
|  2> ! wB97X-D3 def2-TZVP TIGHTSCF CHELPG PMODEL PAL8
|  3>
|  4> %base "4-135_DFT_AB"
|  5>
|  6> %scf
|  7> MaxIter 1000
|  8> end
|  9>
| 10> * xyz 0 1
| 11>   C                      2.765020             -4.179074            5.805482
| 12>   O                      3.311683             -5.446056            6.177687
| 13>   H                      3.331339             -5.364676            7.148464
| 14>   H                      2.715584             -4.021929            4.701500
| 15>   H                      1.758848             -4.116859            6.285104
| 16>   H                      3.338024             -3.374553            6.326295
| 17>   C                      7.671328             -2.158835            9.111072
| 18>   O                      6.290404             -2.550753            9.166028
| 19>   H                      6.242656             -3.411438            8.695258
| 20>   H                      8.359693             -2.896538            9.464995
| 21>   H                      8.076083             -1.876635            8.140413
| 22>   H                      7.923211             -1.289379            9.767768
| 23> *
| 24>
| 25> #Run DFT-D3 single point of the molecule with dimer basis set
| 26> $new_job
| 27> %base "4-135_DFT_A"
| 28> ! wB97X-D3 def2-TZVP TIGHTSCF CHELPG PMODEL
| 29>
| 30> %scf
| 31> MaxIter 1000
| 32> end
| 33>
| 34> * xyz 0 1
| 35>   C                      2.765020             -4.179074            5.805482
| 36>   O                      3.311683             -5.446056            6.177687
| 37>   H                      3.331339             -5.364676            7.148464
| 38>   H                      2.715584             -4.021929            4.701500
| 39>   H                      1.758848             -4.116859            6.285104
| 40>   H                      3.338024             -3.374553            6.326295
| 41>   C                    : 7.671328             -2.158835            9.111072
| 42>   O                    : 6.290404             -2.550753            9.166028
| 43>   H                    : 6.242656             -3.411438            8.695258
| 44>   H                    : 8.359693             -2.896538            9.464995
| 45>   H                    : 8.076083             -1.876635            8.140413
| 46>   H                    : 7.923211             -1.289379            9.767768
| 47> *
| 48>
| 49> #Run DFT-D3 single point of the particle with dimer basis set
| 50> $new_job
| 51> %base "4-135_DFT_B"
| 52> ! wB97X-D3 def2-TZVP TIGHTSCF CHELPG PMODEL
| 53>
| 54> %scf
| 55> MaxIter 1000
| 56> end
| 57>
| 58> * xyz 0 1
| 59>   C                    : 2.765020             -4.179074            5.805482
| 60>   O                    : 3.311683             -5.446056            6.177687
| 61>   H                    : 3.331339             -5.364676            7.148464
| 62>   H                    : 2.715584             -4.021929            4.701500
| 63>   H                    : 1.758848             -4.116859            6.285104
| 64>   H                    : 3.338024             -3.374553            6.326295
| 65>   C                      7.671328             -2.158835            9.111072
| 66>   O                      6.290404             -2.550753            9.166028
| 67>   H                      6.242656             -3.411438            8.695258
| 68>   H                      8.359693             -2.896538            9.464995
| 69>   H                      8.076083             -1.876635            8.140413
| 70>   H                      7.923211             -1.289379            9.767768
| 71> *
| 72>
| 73>                          ****END OF INPUT****
 Total Charge           Charge          ....    0
 Multiplicity           Mult            ....    1
 Number of Electrons    NEL             ....   36
Dispersion correction           -0.000736978
FINAL SINGLE POINT ENERGY      -231.462910128351
Dispersion correction           -0.000218761
FINAL SINGLE POINT ENERGY      -115.730945839779

CARTESIAN COORDINATES (ANGSTROEM)
---------------------------------
  C      2.765020   -4.179074    5.805482
  O      3.311683   -5.446056    6.177687
  H      3.331339   -5.364676    7.148464
  H      2.715584   -4.021929    4.701500
  H      1.758848   -4.116859    6.285104
  H      3.338024   -3.374553    6.326295
  C      7.671328   -2.158835    9.111072
  O      6.290404   -2.550753    9.166028
  H      6.242656   -3.411438    8.695258
  H      8.359693   -2.896538    9.464995
  H      8.076083   -1.876635    8.140413
  H      7.923211   -1.289379    9.767768

 Multiplicity           Mult            ....    1
 Number of Electrons    NEL             ....   18
 Basis Dimension        Dim             ....  172

ORBITAL ENERGIES
----------------

  NO   OCC          E(Eh)            E(eV)
   0   2.0000     -19.239201      -523.5253
   1   2.0000     -10.314416      -280.6695
   2   2.0000      -1.129212       -30.7274
   3   2.0000      -0.798536       -21.7293
   4   2.0000      -0.609065       -16.5735
   5   2.0000      -0.535086       -14.5604
   6   2.0000      -0.522707       -14.2236
   7   2.0000      -0.436826       -11.8866
   8   2.0000      -0.378291       -10.2938
   9   0.0000       0.081634         2.2214
  10   0.0000       0.117047         3.1850
  11   0.0000       0.144296         3.9265
  12   0.0000       0.169066         4.6005
  13   0.0000       0.196272         5.3408

MULLIKEN ATOMIC CHARGES
-----------------------
   0 C :    0.000605
   1 O :   -0.000004
   2 H :   -0.000039
   3 H :   -0.000014
   4 H :   -0.000033
   5 H :   -0.001363
   6 C :   -0.181689
   7 O :   -0.469371
   8 H :    0.318518
   9 H :    0.112275
  10 H :    0.102031
  11 H :    0.119086
Sum of atomic charges:   -0.0000000

LOEWDIN ATOMIC CHARGES
----------------------
   0 C :   -0.000057
   1 O :   -0.000006
   2 H :   -0.000047
   3 H :   -0.000000
   4 H :   -0.000001
   5 H :   -0.000401
   6 C :   -0.384316
   7 O :   -0.096135
   8 H :    0.183800
   9 H :    0.090281
  10 H :    0.092338
  11 H :    0.114545

  Mayer bond orders larger than 0.1
B(  6-C ,  7-O ) :   1.0065 B(  6-C ,  9-H ) :   0.9757 B(  6-C , 10-H ) :   0.9711
B(  6-C , 11-H ) :   0.9749 B(  7-O ,  8-H ) :   0.8950

Dispersion correction           -0.000271716
FINAL SINGLE POINT ENERGY      -115.731287431523

DIPOLE MOMENT
-------------
                                X             Y             Z
Electronic contribution:     -1.96687      -0.43223       0.11245
Nuclear contribution   :      2.50874       0.04406      -0.41064
                        -----------------------------------------
Total Dipole Moment    :      0.54187      -0.38817      -0.29819
                        -----------------------------------------
Magnitude (a.u.)       :      0.73021
Magnitude (Debye)      :      1.85605

Rotational constants in cm-1:     4.478364     0.795387     0.764929
Rotational constants in MHz : 134257.968743 23845.088636 22931.989022

                             ****ORCA TERMINATED NORMALLY****
TOTAL RUN TIME: 0 days 0 hours 1 minutes 28 seconds 67 msec
