                         Program Version 4.1.2  - RELEASE  -
|  1> #Run DFT-D3 single point of the dimer
|  2> ! wB97X-D3 def2-TZVP TIGHTSCF CHELPG PMODEL PAL8
|  3>
|  4> %base "16-176_DFT_AB"
|  5>
|  6> %scf
|  7> MaxIter 1000
|  8> end
|  9>
| 10> * xyz 0 1
| 11>   C                      10.496270            -4.482297            -5.145719
| 12>   O                      10.291918            -3.160111            -5.530751
| 13>   H                      9.844380             -2.723742            -4.778603
| 14>   H                      9.577831             -4.958504            -4.866205
| 15>   H                      10.846851            -5.008521            -6.001477
| 16>   H                      11.192603            -4.632664            -4.323175
| 17>   C                      10.228770            0.015633             -5.309758
| 18>   O                      10.195458            0.297369             -3.900413
| 19>   H                      9.847991             -0.521152            -3.531794
| 20>   H                      10.356455            0.863596             -5.989224
| 21>   H                      10.955603            -0.682656            -5.542292
| 22>   H                      9.301443             -0.379916            -5.719833
| 23> *
| 24>
| 25> #Run DFT-D3 single point of the molecule with dimer basis set
| 26> $new_job
| 27> %base "16-176_DFT_A"
| 28> ! wB97X-D3 def2-TZVP TIGHTSCF CHELPG PMODEL
| 29>
| 30> %scf
| 31> MaxIter 1000
| 32> end
| 33>
| 34> * xyz 0 1
| 35>   C                      10.496270            -4.482297            -5.145719
| 36>   O                      10.291918            -3.160111            -5.530751
| 37>   H                      9.844380             -2.723742            -4.778603
| 38>   H                      9.577831             -4.958504            -4.866205
| 39>   H                      10.846851            -5.008521            -6.001477
| 40>   H                      11.192603            -4.632664            -4.323175
| 41>   C                    : 10.228770            0.015633             -5.309758
| 42>   O                    : 10.195458            0.297369             -3.900413
| 43>   H                    : 9.847991             -0.521152            -3.531794
| 44>   H                    : 10.356455            0.863596             -5.989224
| 45>   H                    : 10.955603            -0.682656            -5.542292
| 46>   H                    : 9.301443             -0.379916            -5.719833
| 47> *
| 48>
| 49> #Run DFT-D3 single point of the particle with dimer basis set
| 50> $new_job
| 51> %base "16-176_DFT_B"
| 52> ! wB97X-D3 def2-TZVP TIGHTSCF CHELPG PMODEL
| 53>
| 54> %scf
| 55> MaxIter 1000
| 56> end
| 57>
| 58> * xyz 0 1
| 59>   C                    : 10.496270            -4.482297            -5.145719
| 60>   O                    : 10.291918            -3.160111            -5.530751
| 61>   H                    : 9.844380             -2.723742            -4.778603
| 62>   H                    : 9.577831             -4.958504            -4.866205
| 63>   H                    : 10.846851            -5.008521            -6.001477
| 64>   H                    : 11.192603            -4.632664            -4.323175
| 65>   C                      10.228770            0.015633             -5.309758
| 66>   O                      10.195458            0.297369             -3.900413
| 67>   H                      9.847991             -0.521152            -3.531794
| 68>   H                      10.356455            0.863596             -5.989224
| 69>   H                      10.955603            -0.682656            -5.542292
| 70>   H                      9.301443             -0.379916            -5.719833
| 71> *
| 72>
| 73>                          ****END OF INPUT****
 Total Charge           Charge          ....    0
 Multiplicity           Mult            ....    1
 Number of Electrons    NEL             ....   36
Dispersion correction           -0.001739527
FINAL SINGLE POINT ENERGY      -231.463576364181
Dispersion correction           -0.000224743
FINAL SINGLE POINT ENERGY      -115.735719457669

CARTESIAN COORDINATES (ANGSTROEM)
---------------------------------
  C     10.496270   -4.482297   -5.145719
  O     10.291918   -3.160111   -5.530751
  H      9.844380   -2.723742   -4.778603
  H      9.577831   -4.958504   -4.866205
  H     10.846851   -5.008521   -6.001477
  H     11.192603   -4.632664   -4.323175
  C     10.228770    0.015633   -5.309758
  O     10.195458    0.297369   -3.900413
  H      9.847991   -0.521152   -3.531794
  H     10.356455    0.863596   -5.989224
  H     10.955603   -0.682656   -5.542292
  H      9.301443   -0.379916   -5.719833

 Multiplicity           Mult            ....    1
 Number of Electrons    NEL             ....   18
 Basis Dimension        Dim             ....  172

ORBITAL ENERGIES
----------------

  NO   OCC          E(Eh)            E(eV)
   0   2.0000     -19.235187      -523.4160
   1   2.0000     -10.308211      -280.5007
   2   2.0000      -1.133208       -30.8361
   3   2.0000      -0.803498       -21.8643
   4   2.0000      -0.607431       -16.5290
   5   2.0000      -0.547955       -14.9106
   6   2.0000      -0.523308       -14.2399
   7   2.0000      -0.437740       -11.9115
   8   2.0000      -0.378566       -10.3013
   9   0.0000       0.075215         2.0467
  10   0.0000       0.120212         3.2711
  11   0.0000       0.146938         3.9984
  12   0.0000       0.183525         4.9940
  13   0.0000       0.193014         5.2522

MULLIKEN ATOMIC CHARGES
-----------------------
   0 C :   -0.001152
   1 O :   -0.001251
   2 H :    0.000041
   3 H :    0.000021
   4 H :    0.000016
   5 H :    0.000025
   6 C :   -0.182406
   7 O :   -0.467941
   8 H :    0.317038
   9 H :    0.121398
  10 H :    0.115211
  11 H :    0.099001
Sum of atomic charges:    0.0000000

LOEWDIN ATOMIC CHARGES
----------------------
   0 C :   -0.000434
   1 O :   -0.006260
   2 H :   -0.005634
   3 H :   -0.000010
   4 H :   -0.000014
   5 H :   -0.000010
   6 C :   -0.366277
   7 O :   -0.087514
   8 H :    0.173308
   9 H :    0.110344
  10 H :    0.085442
  11 H :    0.097059

  Mayer bond orders larger than 0.1
B(  6-C ,  7-O ) :   0.9948 B(  6-C ,  9-H ) :   0.9724 B(  6-C , 10-H ) :   0.9795
B(  6-C , 11-H ) :   0.9789 B(  7-O ,  8-H ) :   0.9021

Dispersion correction           -0.000242983
FINAL SINGLE POINT ENERGY      -115.728770587331

DIPOLE MOMENT
-------------
                                X             Y             Z
Electronic contribution:      0.10221       0.54479       1.89835
Nuclear contribution   :     -0.30961      -1.16734      -2.25669
                        -----------------------------------------
Total Dipole Moment    :     -0.20740      -0.62254      -0.35834
                        -----------------------------------------
Magnitude (a.u.)       :      0.74765
Magnitude (Debye)      :      1.90038

Rotational constants in cm-1:     4.586456     0.803949     0.775907
Rotational constants in MHz : 137498.505030 24101.795821 23261.092959

                             ****ORCA TERMINATED NORMALLY****
TOTAL RUN TIME: 0 days 0 hours 1 minutes 9 seconds 194 msec
