                         Program Version 4.1.2  - RELEASE  -
|  1> #Run DFT-D3 single point of the dimer
|  2> ! wB97X-D3 def2-TZVP TIGHTSCF CHELPG PMODEL PAL8
|  3>
|  4> %base "11-33_DFT_AB"
|  5>
|  6> %scf
|  7> MaxIter 1000
|  8> end
|  9>
| 10> * xyz 0 1
| 11>   C                      -4.262804            -3.298811            4.931557
| 12>   O                      -3.864564            -2.942529            6.210114
| 13>   H                      -2.899731            -2.834253            6.123950
| 14>   H                      -4.286093            -4.428996            4.908977
| 15>   H                      -5.227939            -2.841040            4.620827
| 16>   H                      -3.491225            -3.035285            4.130311
| 17>   C                      -3.808094            -2.544504            9.738684
| 18>   O                      -4.134341            -1.187484            9.578669
| 19>   H                      -3.576004            -0.608753            10.101867
| 20>   H                      -3.503093            -3.001236            8.795635
| 21>   H                      -3.025630            -2.661659            10.537215
| 22>   H                      -4.623174            -3.078293            10.157402
| 23> *
| 24>
| 25> #Run DFT-D3 single point of the molecule with dimer basis set
| 26> $new_job
| 27> %base "11-33_DFT_A"
| 28> ! wB97X-D3 def2-TZVP TIGHTSCF CHELPG PMODEL
| 29>
| 30> %scf
| 31> MaxIter 1000
| 32> end
| 33>
| 34> * xyz 0 1
| 35>   C                      -4.262804            -3.298811            4.931557
| 36>   O                      -3.864564            -2.942529            6.210114
| 37>   H                      -2.899731            -2.834253            6.123950
| 38>   H                      -4.286093            -4.428996            4.908977
| 39>   H                      -5.227939            -2.841040            4.620827
| 40>   H                      -3.491225            -3.035285            4.130311
| 41>   C                    : -3.808094            -2.544504            9.738684
| 42>   O                    : -4.134341            -1.187484            9.578669
| 43>   H                    : -3.576004            -0.608753            10.101867
| 44>   H                    : -3.503093            -3.001236            8.795635
| 45>   H                    : -3.025630            -2.661659            10.537215
| 46>   H                    : -4.623174            -3.078293            10.157402
| 47> *
| 48>
| 49> #Run DFT-D3 single point of the particle with dimer basis set
| 50> $new_job
| 51> %base "11-33_DFT_B"
| 52> ! wB97X-D3 def2-TZVP TIGHTSCF CHELPG PMODEL
| 53>
| 54> %scf
| 55> MaxIter 1000
| 56> end
| 57>
| 58> * xyz 0 1
| 59>   C                    : -4.262804            -3.298811            4.931557
| 60>   O                    : -3.864564            -2.942529            6.210114
| 61>   H                    : -2.899731            -2.834253            6.123950
| 62>   H                    : -4.286093            -4.428996            4.908977
| 63>   H                    : -5.227939            -2.841040            4.620827
| 64>   H                    : -3.491225            -3.035285            4.130311
| 65>   C                      -3.808094            -2.544504            9.738684
| 66>   O                      -4.134341            -1.187484            9.578669
| 67>   H                      -3.576004            -0.608753            10.101867
| 68>   H                      -3.503093            -3.001236            8.795635
| 69>   H                      -3.025630            -2.661659            10.537215
| 70>   H                      -4.623174            -3.078293            10.157402
| 71> *
| 72>
| 73>                          ****END OF INPUT****
 Total Charge           Charge          ....    0
 Multiplicity           Mult            ....    1
 Number of Electrons    NEL             ....   36
Dispersion correction           -0.001272144
FINAL SINGLE POINT ENERGY      -231.462948455782
Dispersion correction           -0.000233823
FINAL SINGLE POINT ENERGY      -115.730037571107

CARTESIAN COORDINATES (ANGSTROEM)
---------------------------------
  C     -4.262804   -3.298811    4.931557
  O     -3.864564   -2.942529    6.210114
  H     -2.899731   -2.834253    6.123950
  H     -4.286093   -4.428996    4.908977
  H     -5.227939   -2.841040    4.620827
  H     -3.491225   -3.035285    4.130311
  C     -3.808094   -2.544504    9.738684
  O     -4.134341   -1.187484    9.578669
  H     -3.576004   -0.608753   10.101867
  H     -3.503093   -3.001236    8.795635
  H     -3.025630   -2.661659   10.537215
  H     -4.623174   -3.078293   10.157402

 Multiplicity           Mult            ....    1
 Number of Electrons    NEL             ....   18
 Basis Dimension        Dim             ....  172

ORBITAL ENERGIES
----------------

  NO   OCC          E(Eh)            E(eV)
   0   2.0000     -19.226633      -523.1833
   1   2.0000     -10.312114      -280.6069
   2   2.0000      -1.135207       -30.8906
   3   2.0000      -0.797914       -21.7123
   4   2.0000      -0.612548       -16.6683
   5   2.0000      -0.546391       -14.8680
   6   2.0000      -0.529049       -14.3962
   7   2.0000      -0.422780       -11.5044
   8   2.0000      -0.373542       -10.1646
   9   0.0000       0.088910         2.4194
  10   0.0000       0.114390         3.1127
  11   0.0000       0.152331         4.1451
  12   0.0000       0.172486         4.6936
  13   0.0000       0.195003         5.3063

MULLIKEN ATOMIC CHARGES
-----------------------
   0 C :    0.000465
   1 O :    0.001601
   2 H :    0.000076
   3 H :   -0.000033
   4 H :   -0.000015
   5 H :   -0.000012
   6 C :   -0.152340
   7 O :   -0.484185
   8 H :    0.320376
   9 H :    0.101994
  10 H :    0.097697
  11 H :    0.114375
Sum of atomic charges:    0.0000000

LOEWDIN ATOMIC CHARGES
----------------------
   0 C :   -0.000201
   1 O :   -0.003390
   2 H :   -0.001098
   3 H :   -0.000011
   4 H :   -0.000007
   5 H :   -0.000003
   6 C :   -0.385821
   7 O :   -0.073404
   8 H :    0.168268
   9 H :    0.100210
  10 H :    0.102128
  11 H :    0.093329

  Mayer bond orders larger than 0.1
B(  6-C ,  7-O ) :   1.0104 B(  6-C ,  9-H ) :   0.9716 B(  6-C , 10-H ) :   0.9911
B(  6-C , 11-H ) :   0.9769 B(  7-O ,  8-H ) :   0.8962

Dispersion correction           -0.000248952
FINAL SINGLE POINT ENERGY      -115.732949771926

DIPOLE MOMENT
-------------
                                X             Y             Z
Electronic contribution:     -0.53275       1.69373      -0.38926
Nuclear contribution   :      1.02239      -1.85397       0.82108
                        -----------------------------------------
Total Dipole Moment    :      0.48964      -0.16024       0.43182
                        -----------------------------------------
Magnitude (a.u.)       :      0.67223
Magnitude (Debye)      :      1.70867

Rotational constants in cm-1:     4.358972     0.836294     0.805560
Rotational constants in MHz : 130678.703008 25071.470078 24150.091641

                             ****ORCA TERMINATED NORMALLY****
TOTAL RUN TIME: 0 days 0 hours 1 minutes 13 seconds 384 msec
