                         Program Version 4.1.2  - RELEASE  -
|  1> #Run DFT-D3 single point of the dimer
|  2> ! wB97X-D3 def2-TZVP TIGHTSCF CHELPG PMODEL PAL8
|  3>
|  4> %base "11-23_DFT_AB"
|  5>
|  6> %scf
|  7> MaxIter 1000
|  8> end
|  9>
| 10> * xyz 0 1
| 11>   C                      -8.448119            2.442185             -5.118233
| 12>   O                      -7.831945            1.753476             -4.059607
| 13>   H                      -8.251878            0.862124             -3.916511
| 14>   H                      -9.518605            2.289483             -5.032777
| 15>   H                      -8.197066            3.464053             -5.152794
| 16>   H                      -8.176135            2.038059             -6.035437
| 17>   C                      -5.044066            0.404302             -1.663991
| 18>   O                      -6.434132            0.548854             -1.331317
| 19>   H                      -6.609572            0.645943             -0.347889
| 20>   H                      -4.488674            1.043460             -0.975449
| 21>   H                      -4.723905            -0.685298            -1.583405
| 22>   H                      -4.810426            0.769304             -2.685732
| 23> *
| 24>
| 25> #Run DFT-D3 single point of the molecule with dimer basis set
| 26> $new_job
| 27> %base "11-23_DFT_A"
| 28> ! wB97X-D3 def2-TZVP TIGHTSCF CHELPG PMODEL
| 29>
| 30> %scf
| 31> MaxIter 1000
| 32> end
| 33>
| 34> * xyz 0 1
| 35>   C                      -8.448119            2.442185             -5.118233
| 36>   O                      -7.831945            1.753476             -4.059607
| 37>   H                      -8.251878            0.862124             -3.916511
| 38>   H                      -9.518605            2.289483             -5.032777
| 39>   H                      -8.197066            3.464053             -5.152794
| 40>   H                      -8.176135            2.038059             -6.035437
| 41>   C                    : -5.044066            0.404302             -1.663991
| 42>   O                    : -6.434132            0.548854             -1.331317
| 43>   H                    : -6.609572            0.645943             -0.347889
| 44>   H                    : -4.488674            1.043460             -0.975449
| 45>   H                    : -4.723905            -0.685298            -1.583405
| 46>   H                    : -4.810426            0.769304             -2.685732
| 47> *
| 48>
| 49> #Run DFT-D3 single point of the particle with dimer basis set
| 50> $new_job
| 51> %base "11-23_DFT_B"
| 52> ! wB97X-D3 def2-TZVP TIGHTSCF CHELPG PMODEL
| 53>
| 54> %scf
| 55> MaxIter 1000
| 56> end
| 57>
| 58> * xyz 0 1
| 59>   C                    : -8.448119            2.442185             -5.118233
| 60>   O                    : -7.831945            1.753476             -4.059607
| 61>   H                    : -8.251878            0.862124             -3.916511
| 62>   H                    : -9.518605            2.289483             -5.032777
| 63>   H                    : -8.197066            3.464053             -5.152794
| 64>   H                    : -8.176135            2.038059             -6.035437
| 65>   C                      -5.044066            0.404302             -1.663991
| 66>   O                      -6.434132            0.548854             -1.331317
| 67>   H                      -6.609572            0.645943             -0.347889
| 68>   H                      -4.488674            1.043460             -0.975449
| 69>   H                      -4.723905            -0.685298            -1.583405
| 70>   H                      -4.810426            0.769304             -2.685732
| 71> *
| 72>
| 73>                          ****END OF INPUT****
 Total Charge           Charge          ....    0
 Multiplicity           Mult            ....    1
 Number of Electrons    NEL             ....   36
Dispersion correction           -0.001216500
FINAL SINGLE POINT ENERGY      -231.460454830976
Dispersion correction           -0.000222118
FINAL SINGLE POINT ENERGY      -115.730218760624

CARTESIAN COORDINATES (ANGSTROEM)
---------------------------------
  C     -8.448119    2.442185   -5.118233
  O     -7.831945    1.753476   -4.059607
  H     -8.251878    0.862124   -3.916511
  H     -9.518605    2.289483   -5.032777
  H     -8.197066    3.464053   -5.152794
  H     -8.176135    2.038059   -6.035437
  C     -5.044066    0.404302   -1.663991
  O     -6.434132    0.548854   -1.331317
  H     -6.609572    0.645943   -0.347889
  H     -4.488674    1.043460   -0.975449
  H     -4.723905   -0.685298   -1.583405
  H     -4.810426    0.769304   -2.685732

 Multiplicity           Mult            ....    1
 Number of Electrons    NEL             ....   18
 Basis Dimension        Dim             ....  172

ORBITAL ENERGIES
----------------

  NO   OCC          E(Eh)            E(eV)
   0   2.0000     -19.229828      -523.2702
   1   2.0000     -10.322187      -280.8810
   2   2.0000      -1.117271       -30.4025
   3   2.0000      -0.789811       -21.4919
   4   2.0000      -0.598980       -16.2991
   5   2.0000      -0.536930       -14.6106
   6   2.0000      -0.527242       -14.3470
   7   2.0000      -0.420699       -11.4478
   8   2.0000      -0.371240       -10.1020
   9   0.0000       0.095149         2.5891
  10   0.0000       0.111039         3.0215
  11   0.0000       0.147530         4.0145
  12   0.0000       0.177409         4.8276
  13   0.0000       0.196295         5.3415

MULLIKEN ATOMIC CHARGES
-----------------------
   0 C :    0.000058
   1 O :   -0.000392
   2 H :   -0.002576
   3 H :    0.000009
   4 H :    0.000027
   5 H :   -0.000014
   6 C :   -0.149305
   7 O :   -0.494090
   8 H :    0.320118
   9 H :    0.103560
  10 H :    0.101995
  11 H :    0.120610
Sum of atomic charges:   -0.0000000

LOEWDIN ATOMIC CHARGES
----------------------
   0 C :   -0.000134
   1 O :   -0.002497
   2 H :   -0.002594
   3 H :   -0.000002
   4 H :   -0.000004
   5 H :   -0.000005
   6 C :   -0.374236
   7 O :   -0.117855
   8 H :    0.190278
   9 H :    0.094910
  10 H :    0.102983
  11 H :    0.109157

  Mayer bond orders larger than 0.1
B(  6-C ,  7-O ) :   0.9934 B(  6-C ,  9-H ) :   0.9838 B(  6-C , 10-H ) :   0.9706
B(  6-C , 11-H ) :   0.9691 B(  7-O ,  8-H ) :   0.8869

Dispersion correction           -0.000268001
FINAL SINGLE POINT ENERGY      -115.730421380309

DIPOLE MOMENT
-------------
                                X             Y             Z
Electronic contribution:     -1.74124       0.17565       0.24494
Nuclear contribution   :      2.22036      -0.14176       0.25080
                        -----------------------------------------
Total Dipole Moment    :      0.47912       0.03389       0.49575
                        -----------------------------------------
Magnitude (a.u.)       :      0.69027
Magnitude (Debye)      :      1.75452

Rotational constants in cm-1:     4.157837     0.795536     0.775168
Rotational constants in MHz : 124648.824934 23849.563754 23238.941044

                             ****ORCA TERMINATED NORMALLY****
TOTAL RUN TIME: 0 days 0 hours 1 minutes 13 seconds 300 msec
