                         Program Version 4.1.2  - RELEASE  -
|  1> #Run DFT-D3 single point of the dimer
|  2> ! wB97X-D3 def2-TZVP TIGHTSCF CHELPG PMODEL PAL8
|  3>
|  4> %base "10-5_DFT_AB"
|  5>
|  6> %scf
|  7> MaxIter 1000
|  8> end
|  9>
| 10> * xyz 0 1
| 11>   C                      -6.423069            5.566092             9.013381
| 12>   O                      -6.490406            6.939785             8.703720
| 13>   H                      -5.816488            7.100692             8.090013
| 14>   H                      -7.316964            5.205827             9.520099
| 15>   H                      -6.371598            4.942767             8.107187
| 16>   H                      -5.565183            5.306817             9.669080
| 17>   C                      -3.872528            2.001226             10.864595
| 18>   O                      -3.736998            1.696973             9.499086
| 19>   H                      -3.554987            0.750151             9.587223
| 20>   H                      -4.390555            1.165372             11.388547
| 21>   H                      -3.011502            2.207887             11.433390
| 22>   H                      -4.542137            2.906519             11.106688
| 23> *
| 24>
| 25> #Run DFT-D3 single point of the molecule with dimer basis set
| 26> $new_job
| 27> %base "10-5_DFT_A"
| 28> ! wB97X-D3 def2-TZVP TIGHTSCF CHELPG PMODEL
| 29>
| 30> %scf
| 31> MaxIter 1000
| 32> end
| 33>
| 34> * xyz 0 1
| 35>   C                      -6.423069            5.566092             9.013381
| 36>   O                      -6.490406            6.939785             8.703720
| 37>   H                      -5.816488            7.100692             8.090013
| 38>   H                      -7.316964            5.205827             9.520099
| 39>   H                      -6.371598            4.942767             8.107187
| 40>   H                      -5.565183            5.306817             9.669080
| 41>   C                    : -3.872528            2.001226             10.864595
| 42>   O                    : -3.736998            1.696973             9.499086
| 43>   H                    : -3.554987            0.750151             9.587223
| 44>   H                    : -4.390555            1.165372             11.388547
| 45>   H                    : -3.011502            2.207887             11.433390
| 46>   H                    : -4.542137            2.906519             11.106688
| 47> *
| 48>
| 49> #Run DFT-D3 single point of the particle with dimer basis set
| 50> $new_job
| 51> %base "10-5_DFT_B"
| 52> ! wB97X-D3 def2-TZVP TIGHTSCF CHELPG PMODEL
| 53>
| 54> %scf
| 55> MaxIter 1000
| 56> end
| 57>
| 58> * xyz 0 1
| 59>   C                    : -6.423069            5.566092             9.013381
| 60>   O                    : -6.490406            6.939785             8.703720
| 61>   H                    : -5.816488            7.100692             8.090013
| 62>   H                    : -7.316964            5.205827             9.520099
| 63>   H                    : -6.371598            4.942767             8.107187
| 64>   H                    : -5.565183            5.306817             9.669080
| 65>   C                      -3.872528            2.001226             10.864595
| 66>   O                      -3.736998            1.696973             9.499086
| 67>   H                      -3.554987            0.750151             9.587223
| 68>   H                      -4.390555            1.165372             11.388547
| 69>   H                      -3.011502            2.207887             11.433390
| 70>   H                      -4.542137            2.906519             11.106688
| 71> *
| 72>
| 73>                          ****END OF INPUT****
 Total Charge           Charge          ....    0
 Multiplicity           Mult            ....    1
 Number of Electrons    NEL             ....   36
Dispersion correction           -0.000956587
FINAL SINGLE POINT ENERGY      -231.462103412839
Dispersion correction           -0.000241908
FINAL SINGLE POINT ENERGY      -115.734926301327

CARTESIAN COORDINATES (ANGSTROEM)
---------------------------------
  C     -6.423069    5.566092    9.013381
  O     -6.490406    6.939785    8.703720
  H     -5.816488    7.100692    8.090013
  H     -7.316964    5.205827    9.520099
  H     -6.371598    4.942767    8.107187
  H     -5.565183    5.306817    9.669080
  C     -3.872528    2.001226   10.864595
  O     -3.736998    1.696973    9.499086
  H     -3.554987    0.750151    9.587223
  H     -4.390555    1.165372   11.388547
  H     -3.011502    2.207887   11.433390
  H     -4.542137    2.906519   11.106688

 Multiplicity           Mult            ....    1
 Number of Electrons    NEL             ....   18
 Basis Dimension        Dim             ....  172

ORBITAL ENERGIES
----------------

  NO   OCC          E(Eh)            E(eV)
   0   2.0000     -19.239416      -523.5311
   1   2.0000     -10.316840      -280.7355
   2   2.0000      -1.147492       -31.2249
   3   2.0000      -0.791345       -21.5336
   4   2.0000      -0.613474       -16.6935
   5   2.0000      -0.546088       -14.8598
   6   2.0000      -0.526282       -14.3209
   7   2.0000      -0.434610       -11.8263
   8   2.0000      -0.378335       -10.2950
   9   0.0000       0.090046         2.4503
  10   0.0000       0.113076         3.0769
  11   0.0000       0.147346         4.0095
  12   0.0000       0.167204         4.5499
  13   0.0000       0.191989         5.2243

MULLIKEN ATOMIC CHARGES
-----------------------
   0 C :   -0.000157
   1 O :    0.000023
   2 H :    0.000004
   3 H :   -0.000099
   4 H :   -0.000144
   5 H :    0.000791
   6 C :   -0.195270
   7 O :   -0.448055
   8 H :    0.319930
   9 H :    0.101658
  10 H :    0.110883
  11 H :    0.110434
Sum of atomic charges:   -0.0000000

LOEWDIN ATOMIC CHARGES
----------------------
   0 C :   -0.000388
   1 O :   -0.000005
   2 H :   -0.000000
   3 H :   -0.000032
   4 H :   -0.000054
   5 H :   -0.000824
   6 C :   -0.413082
   7 O :   -0.067259
   8 H :    0.184030
   9 H :    0.098698
  10 H :    0.083464
  11 H :    0.115453

  Mayer bond orders larger than 0.1
B(  6-C ,  7-O ) :   1.0138 B(  6-C ,  9-H ) :   0.9910 B(  6-C , 10-H ) :   0.9650
B(  6-C , 11-H ) :   0.9742 B(  7-O ,  8-H ) :   0.8994

Dispersion correction           -0.000239851
FINAL SINGLE POINT ENERGY      -115.726272694291

DIPOLE MOMENT
-------------
                                X             Y             Z
Electronic contribution:      0.32829      -0.24536      -2.03152
Nuclear contribution   :     -0.26038      -0.23129       2.59565
                        -----------------------------------------
Total Dipole Moment    :      0.06791      -0.47665       0.56413
                        -----------------------------------------
Magnitude (a.u.)       :      0.74166
Magnitude (Debye)      :      1.88514

Rotational constants in cm-1:     4.333807     0.834951     0.797746
Rotational constants in MHz : 129924.274066 25031.215919 23915.838350

                             ****ORCA TERMINATED NORMALLY****
TOTAL RUN TIME: 0 days 0 hours 1 minutes 5 seconds 324 msec
