                         Program Version 4.1.2  - RELEASE  -
|  1> #Run DFT-D3 single point of the dimer
|  2> ! wB97X-D3 def2-TZVP TIGHTSCF CHELPG PMODEL PAL8
|  3>
|  4> %base "15-6_DFT_AB"
|  5>
|  6> %scf
|  7> MaxIter 1000
|  8> end
|  9>
| 10> * xyz 0 1
| 11>   C                      -6.481891            -7.877271            7.250222
| 12>   O                      -6.198547            -6.565036            6.837370
| 13>   H                      -6.806889            -6.005382            7.336781
| 14>   H                      -7.552956            -8.073217            7.112625
| 15>   H                      -5.784904            -8.580147            6.772301
| 16>   H                      -6.373916            -7.930089            8.316778
| 17>   C                      -8.218607            -8.383974            11.218942
| 18>   O                      -8.945942            -7.373133            11.837279
| 19>   H                      -9.429018            -6.892765            11.130515
| 20>   H                      -8.804752            -9.064139            10.577870
| 21>   H                      -7.481241            -8.065095            10.516309
| 22>   H                      -7.782354            -9.026883            11.973043
| 23> *
| 24>
| 25> #Run DFT-D3 single point of the molecule with dimer basis set
| 26> $new_job
| 27> %base "15-6_DFT_A"
| 28> ! wB97X-D3 def2-TZVP TIGHTSCF CHELPG PMODEL
| 29>
| 30> %scf
| 31> MaxIter 1000
| 32> end
| 33>
| 34> * xyz 0 1
| 35>   C                      -6.481891            -7.877271            7.250222
| 36>   O                      -6.198547            -6.565036            6.837370
| 37>   H                      -6.806889            -6.005382            7.336781
| 38>   H                      -7.552956            -8.073217            7.112625
| 39>   H                      -5.784904            -8.580147            6.772301
| 40>   H                      -6.373916            -7.930089            8.316778
| 41>   C                    : -8.218607            -8.383974            11.218942
| 42>   O                    : -8.945942            -7.373133            11.837279
| 43>   H                    : -9.429018            -6.892765            11.130515
| 44>   H                    : -8.804752            -9.064139            10.577870
| 45>   H                    : -7.481241            -8.065095            10.516309
| 46>   H                    : -7.782354            -9.026883            11.973043
| 47> *
| 48>
| 49> #Run DFT-D3 single point of the particle with dimer basis set
| 50> $new_job
| 51> %base "15-6_DFT_B"
| 52> ! wB97X-D3 def2-TZVP TIGHTSCF CHELPG PMODEL
| 53>
| 54> %scf
| 55> MaxIter 1000
| 56> end
| 57>
| 58> * xyz 0 1
| 59>   C                    : -6.481891            -7.877271            7.250222
| 60>   O                    : -6.198547            -6.565036            6.837370
| 61>   H                    : -6.806889            -6.005382            7.336781
| 62>   H                    : -7.552956            -8.073217            7.112625
| 63>   H                    : -5.784904            -8.580147            6.772301
| 64>   H                    : -6.373916            -7.930089            8.316778
| 65>   C                      -8.218607            -8.383974            11.218942
| 66>   O                      -8.945942            -7.373133            11.837279
| 67>   H                      -9.429018            -6.892765            11.130515
| 68>   H                      -8.804752            -9.064139            10.577870
| 69>   H                      -7.481241            -8.065095            10.516309
| 70>   H                      -7.782354            -9.026883            11.973043
| 71> *
| 72>
| 73>                          ****END OF INPUT****
 Total Charge           Charge          ....    0
 Multiplicity           Mult            ....    1
 Number of Electrons    NEL             ....   36
Dispersion correction           -0.001173643
FINAL SINGLE POINT ENERGY      -231.466628783794
Dispersion correction           -0.000206335
FINAL SINGLE POINT ENERGY      -115.733076275018

CARTESIAN COORDINATES (ANGSTROEM)
---------------------------------
  C     -6.481891   -7.877271    7.250222
  O     -6.198547   -6.565036    6.837370
  H     -6.806889   -6.005382    7.336781
  H     -7.552956   -8.073217    7.112625
  H     -5.784904   -8.580147    6.772301
  H     -6.373916   -7.930089    8.316778
  C     -8.218607   -8.383974   11.218942
  O     -8.945942   -7.373133   11.837279
  H     -9.429018   -6.892765   11.130515
  H     -8.804752   -9.064139   10.577870
  H     -7.481241   -8.065095   10.516309
  H     -7.782354   -9.026883   11.973043

 Multiplicity           Mult            ....    1
 Number of Electrons    NEL             ....   18
 Basis Dimension        Dim             ....  172

ORBITAL ENERGIES
----------------

  NO   OCC          E(Eh)            E(eV)
   0   2.0000     -19.235616      -523.4277
   1   2.0000     -10.307493      -280.4812
   2   2.0000      -1.141669       -31.0664
   3   2.0000      -0.796680       -21.6788
   4   2.0000      -0.620836       -16.8938
   5   2.0000      -0.538518       -14.6538
   6   2.0000      -0.526989       -14.3401
   7   2.0000      -0.439098       -11.9485
   8   2.0000      -0.371457       -10.1079
   9   0.0000       0.079006         2.1499
  10   0.0000       0.118115         3.2141
  11   0.0000       0.150551         4.0967
  12   0.0000       0.166459         4.5296
  13   0.0000       0.188793         5.1373

MULLIKEN ATOMIC CHARGES
-----------------------
   0 C :    0.001159
   1 O :   -0.000052
   2 H :   -0.000039
   3 H :   -0.000251
   4 H :   -0.000007
   5 H :   -0.001821
   6 C :   -0.160437
   7 O :   -0.467903
   8 H :    0.316960
   9 H :    0.091177
  10 H :    0.102296
  11 H :    0.118917
Sum of atomic charges:   -0.0000000

LOEWDIN ATOMIC CHARGES
----------------------
   0 C :   -0.001513
   1 O :   -0.000007
   2 H :   -0.000020
   3 H :   -0.000125
   4 H :   -0.000005
   5 H :   -0.004062
   6 C :   -0.408475
   7 O :   -0.063166
   8 H :    0.185348
   9 H :    0.094158
  10 H :    0.089647
  11 H :    0.108221

  Mayer bond orders larger than 0.1
B(  6-C ,  7-O ) :   1.0019 B(  6-C ,  9-H ) :   0.9796 B(  6-C , 10-H ) :   0.9743
B(  6-C , 11-H ) :   0.9728 B(  7-O ,  8-H ) :   0.8952

Dispersion correction           -0.000238344
FINAL SINGLE POINT ENERGY      -115.733533525925

DIPOLE MOMENT
-------------
                                X             Y             Z
Electronic contribution:     -0.87404       1.40390       1.03264
Nuclear contribution   :      0.84688      -1.48742      -1.70980
                        -----------------------------------------
Total Dipole Moment    :     -0.02715      -0.08352      -0.67716
                        -----------------------------------------
Magnitude (a.u.)       :      0.68283
Magnitude (Debye)      :      1.73562

Rotational constants in cm-1:     4.435438     0.851380     0.810154
Rotational constants in MHz : 132971.072325 25523.737311 24287.811977

                             ****ORCA TERMINATED NORMALLY****
TOTAL RUN TIME: 0 days 0 hours 0 minutes 53 seconds 838 msec
