                         Program Version 4.1.2  - RELEASE  -
|  1> #Run DFT-D3 single point of the dimer
|  2> ! wB97X-D3 def2-TZVP TIGHTSCF CHELPG PMODEL PAL8
|  3>
|  4> %base "10-131_DFT_AB"
|  5>
|  6> %scf
|  7> MaxIter 1000
|  8> end
|  9>
| 10> * xyz 0 1
| 11>   C                      3.771709             8.520026             -2.309033
| 12>   O                      4.367163             8.443631             -3.620214
| 13>   H                      5.116592             9.031496             -3.647781
| 14>   H                      3.720613             9.562944             -1.984320
| 15>   H                      2.808419             8.065377             -2.246526
| 16>   H                      4.336444             7.999039             -1.611922
| 17>   C                      3.420418             5.845011             0.660086
| 18>   O                      2.429957             6.029736             -0.337725
| 19>   H                      1.566711             5.596374             -0.098511
| 20>   H                      4.368750             5.492269             0.227254
| 21>   H                      3.701800             6.816077             1.027696
| 22>   H                      2.997500             5.226315             1.460489
| 23> *
| 24>
| 25> #Run DFT-D3 single point of the molecule with dimer basis set
| 26> $new_job
| 27> %base "10-131_DFT_A"
| 28> ! wB97X-D3 def2-TZVP TIGHTSCF CHELPG PMODEL
| 29>
| 30> %scf
| 31> MaxIter 1000
| 32> end
| 33>
| 34> * xyz 0 1
| 35>   C                      3.771709             8.520026             -2.309033
| 36>   O                      4.367163             8.443631             -3.620214
| 37>   H                      5.116592             9.031496             -3.647781
| 38>   H                      3.720613             9.562944             -1.984320
| 39>   H                      2.808419             8.065377             -2.246526
| 40>   H                      4.336444             7.999039             -1.611922
| 41>   C                    : 3.420418             5.845011             0.660086
| 42>   O                    : 2.429957             6.029736             -0.337725
| 43>   H                    : 1.566711             5.596374             -0.098511
| 44>   H                    : 4.368750             5.492269             0.227254
| 45>   H                    : 3.701800             6.816077             1.027696
| 46>   H                    : 2.997500             5.226315             1.460489
| 47> *
| 48>
| 49> #Run DFT-D3 single point of the particle with dimer basis set
| 50> $new_job
| 51> %base "10-131_DFT_B"
| 52> ! wB97X-D3 def2-TZVP TIGHTSCF CHELPG PMODEL
| 53>
| 54> %scf
| 55> MaxIter 1000
| 56> end
| 57>
| 58> * xyz 0 1
| 59>   C                    : 3.771709             8.520026             -2.309033
| 60>   O                    : 4.367163             8.443631             -3.620214
| 61>   H                    : 5.116592             9.031496             -3.647781
| 62>   H                    : 3.720613             9.562944             -1.984320
| 63>   H                    : 2.808419             8.065377             -2.246526
| 64>   H                    : 4.336444             7.999039             -1.611922
| 65>   C                      3.420418             5.845011             0.660086
| 66>   O                      2.429957             6.029736             -0.337725
| 67>   H                      1.566711             5.596374             -0.098511
| 68>   H                      4.368750             5.492269             0.227254
| 69>   H                      3.701800             6.816077             1.027696
| 70>   H                      2.997500             5.226315             1.460489
| 71> *
| 72>
| 73>                          ****END OF INPUT****
 Total Charge           Charge          ....    0
 Multiplicity           Mult            ....    1
 Number of Electrons    NEL             ....   36
Dispersion correction           -0.001678347
FINAL SINGLE POINT ENERGY      -231.464804648637
Dispersion correction           -0.000238944
FINAL SINGLE POINT ENERGY      -115.732117207075

CARTESIAN COORDINATES (ANGSTROEM)
---------------------------------
  C      3.771709    8.520026   -2.309033
  O      4.367163    8.443631   -3.620214
  H      5.116592    9.031496   -3.647781
  H      3.720613    9.562944   -1.984320
  H      2.808419    8.065377   -2.246526
  H      4.336444    7.999039   -1.611922
  C      3.420418    5.845011    0.660086
  O      2.429957    6.029736   -0.337725
  H      1.566711    5.596374   -0.098511
  H      4.368750    5.492269    0.227254
  H      3.701800    6.816077    1.027696
  H      2.997500    5.226315    1.460489

 Multiplicity           Mult            ....    1
 Number of Electrons    NEL             ....   18
 Basis Dimension        Dim             ....  172

ORBITAL ENERGIES
----------------

  NO   OCC          E(Eh)            E(eV)
   0   2.0000     -19.228522      -523.2347
   1   2.0000     -10.312351      -280.6133
   2   2.0000      -1.124781       -30.6069
   3   2.0000      -0.794261       -21.6129
   4   2.0000      -0.605149       -16.4669
   5   2.0000      -0.540620       -14.7110
   6   2.0000      -0.530503       -14.4357
   7   2.0000      -0.428746       -11.6668
   8   2.0000      -0.366594        -9.9755
   9   0.0000       0.094499         2.5715
  10   0.0000       0.115681         3.1478
  11   0.0000       0.150431         4.0934
  12   0.0000       0.178341         4.8529
  13   0.0000       0.196749         5.3538

MULLIKEN ATOMIC CHARGES
-----------------------
   0 C :   -0.002243
   1 O :    0.000082
   2 H :    0.000011
   3 H :   -0.000098
   4 H :   -0.005246
   5 H :    0.003113
   6 C :   -0.153840
   7 O :   -0.484260
   8 H :    0.319399
   9 H :    0.106858
  10 H :    0.105930
  11 H :    0.110293
Sum of atomic charges:   -0.0000000

LOEWDIN ATOMIC CHARGES
----------------------
   0 C :   -0.006167
   1 O :   -0.000020
   2 H :   -0.000008
   3 H :   -0.000049
   4 H :   -0.006167
   5 H :   -0.001236
   6 C :   -0.379272
   7 O :   -0.092563
   8 H :    0.187023
   9 H :    0.102981
  10 H :    0.095235
  11 H :    0.100242

  Mayer bond orders larger than 0.1
B(  6-C ,  7-O ) :   1.0063 B(  6-C ,  9-H ) :   0.9758 B(  6-C , 10-H ) :   0.9814
B(  6-C , 11-H ) :   0.9804 B(  7-O ,  8-H ) :   0.8911

Dispersion correction           -0.000248258
FINAL SINGLE POINT ENERGY      -115.730942915997

DIPOLE MOMENT
-------------
                                X             Y             Z
Electronic contribution:     -1.14780       0.19865      -1.26621
Nuclear contribution   :      0.99046      -0.54887       1.84309
                        -----------------------------------------
Total Dipole Moment    :     -0.15734      -0.35021       0.57689
                        -----------------------------------------
Magnitude (a.u.)       :      0.69297
Magnitude (Debye)      :      1.76138

Rotational constants in cm-1:     4.261798     0.833810     0.790086
Rotational constants in MHz : 127765.493796 24996.997847 23686.191341

                             ****ORCA TERMINATED NORMALLY****
TOTAL RUN TIME: 0 days 0 hours 1 minutes 2 seconds 259 msec
