                         Program Version 4.1.2  - RELEASE  -
|  1> #Run DFT-D3 single point of the dimer
|  2> ! wB97X-D3 def2-TZVP TIGHTSCF CHELPG PMODEL PAL8
|  3>
|  4> %base "13-35_DFT_AB"
|  5>
|  6> %scf
|  7> MaxIter 1000
|  8> end
|  9>
| 10> * xyz 0 1
| 11>   C                      2.238468             -1.442492            -1.376394
| 12>   O                      1.121689             -1.733540            -0.514272
| 13>   H                      1.431541             -2.499082            -0.058163
| 14>   H                      3.190386             -1.760322            -0.835746
| 15>   H                      2.025457             -1.974779            -2.354060
| 16>   H                      2.293692             -0.377440            -1.575006
| 17>   C                      -2.752617            -3.076059            -0.589000
| 18>   O                      -3.304085            -3.768648            -1.717035
| 19>   H                      -2.612261            -3.905826            -2.386180
| 20>   H                      -3.493172            -2.722931            0.156007
| 21>   H                      -2.242479            -3.835967            0.046678
| 22>   H                      -2.114953            -2.201284            -0.755336
| 23> *
| 24>
| 25> #Run DFT-D3 single point of the molecule with dimer basis set
| 26> $new_job
| 27> %base "13-35_DFT_A"
| 28> ! wB97X-D3 def2-TZVP TIGHTSCF CHELPG PMODEL
| 29>
| 30> %scf
| 31> MaxIter 1000
| 32> end
| 33>
| 34> * xyz 0 1
| 35>   C                      2.238468             -1.442492            -1.376394
| 36>   O                      1.121689             -1.733540            -0.514272
| 37>   H                      1.431541             -2.499082            -0.058163
| 38>   H                      3.190386             -1.760322            -0.835746
| 39>   H                      2.025457             -1.974779            -2.354060
| 40>   H                      2.293692             -0.377440            -1.575006
| 41>   C                    : -2.752617            -3.076059            -0.589000
| 42>   O                    : -3.304085            -3.768648            -1.717035
| 43>   H                    : -2.612261            -3.905826            -2.386180
| 44>   H                    : -3.493172            -2.722931            0.156007
| 45>   H                    : -2.242479            -3.835967            0.046678
| 46>   H                    : -2.114953            -2.201284            -0.755336
| 47> *
| 48>
| 49> #Run DFT-D3 single point of the particle with dimer basis set
| 50> $new_job
| 51> %base "13-35_DFT_B"
| 52> ! wB97X-D3 def2-TZVP TIGHTSCF CHELPG PMODEL
| 53>
| 54> %scf
| 55> MaxIter 1000
| 56> end
| 57>
| 58> * xyz 0 1
| 59>   C                    : 2.238468             -1.442492            -1.376394
| 60>   O                    : 1.121689             -1.733540            -0.514272
| 61>   H                    : 1.431541             -2.499082            -0.058163
| 62>   H                    : 3.190386             -1.760322            -0.835746
| 63>   H                    : 2.025457             -1.974779            -2.354060
| 64>   H                    : 2.293692             -0.377440            -1.575006
| 65>   C                      -2.752617            -3.076059            -0.589000
| 66>   O                      -3.304085            -3.768648            -1.717035
| 67>   H                      -2.612261            -3.905826            -2.386180
| 68>   H                      -3.493172            -2.722931            0.156007
| 69>   H                      -2.242479            -3.835967            0.046678
| 70>   H                      -2.114953            -2.201284            -0.755336
| 71> *
| 72>
| 73>                          ****END OF INPUT****
 Total Charge           Charge          ....    0
 Multiplicity           Mult            ....    1
 Number of Electrons    NEL             ....   36
Dispersion correction           -0.001008367
FINAL SINGLE POINT ENERGY      -231.461650192400
Dispersion correction           -0.000233270
FINAL SINGLE POINT ENERGY      -115.730801099373

CARTESIAN COORDINATES (ANGSTROEM)
---------------------------------
  C      2.238468   -1.442492   -1.376394
  O      1.121689   -1.733540   -0.514272
  H      1.431541   -2.499082   -0.058163
  H      3.190386   -1.760322   -0.835746
  H      2.025457   -1.974779   -2.354060
  H      2.293692   -0.377440   -1.575006
  C     -2.752617   -3.076059   -0.589000
  O     -3.304085   -3.768648   -1.717035
  H     -2.612261   -3.905826   -2.386180
  H     -3.493172   -2.722931    0.156007
  H     -2.242479   -3.835967    0.046678
  H     -2.114953   -2.201284   -0.755336

 Multiplicity           Mult            ....    1
 Number of Electrons    NEL             ....   18
 Basis Dimension        Dim             ....  172

ORBITAL ENERGIES
----------------

  NO   OCC          E(Eh)            E(eV)
   0   2.0000     -19.234295      -523.3918
   1   2.0000     -10.318620      -280.7839
   2   2.0000      -1.128132       -30.6980
   3   2.0000      -0.796277       -21.6678
   4   2.0000      -0.606804       -16.5120
   5   2.0000      -0.537582       -14.6283
   6   2.0000      -0.523735       -14.2516
   7   2.0000      -0.429717       -11.6932
   8   2.0000      -0.373322       -10.1586
   9   0.0000       0.080046         2.1782
  10   0.0000       0.116976         3.1831
  11   0.0000       0.139247         3.7891
  12   0.0000       0.172250         4.6872
  13   0.0000       0.180648         4.9157

MULLIKEN ATOMIC CHARGES
-----------------------
   0 C :   -0.000086
   1 O :   -0.000000
   2 H :   -0.000196
   3 H :    0.000001
   4 H :   -0.000001
   5 H :    0.000003
   6 C :   -0.183222
   7 O :   -0.478240
   8 H :    0.319340
   9 H :    0.121934
  10 H :    0.106303
  11 H :    0.114164
Sum of atomic charges:   -0.0000000

LOEWDIN ATOMIC CHARGES
----------------------
   0 C :   -0.000086
   1 O :   -0.000582
   2 H :   -0.000217
   3 H :   -0.000002
   4 H :   -0.000006
   5 H :   -0.000002
   6 C :   -0.388337
   7 O :   -0.095432
   8 H :    0.176030
   9 H :    0.111848
  10 H :    0.100927
  11 H :    0.095860

  Mayer bond orders larger than 0.1
B(  6-C ,  7-O ) :   1.0016 B(  6-C ,  9-H ) :   0.9701 B(  6-C , 10-H ) :   0.9836
B(  6-C , 11-H ) :   0.9656 B(  7-O ,  8-H ) :   0.8942

Dispersion correction           -0.000281074
FINAL SINGLE POINT ENERGY      -115.729537403185

DIPOLE MOMENT
-------------
                                X             Y             Z
Electronic contribution:     -0.83178      -0.79334      -1.58183
Nuclear contribution   :      1.47809       0.99610       1.62761
                        -----------------------------------------
Total Dipole Moment    :      0.64631       0.20276       0.04578
                        -----------------------------------------
Magnitude (a.u.)       :      0.67891
Magnitude (Debye)      :      1.72566

Rotational constants in cm-1:     4.405686     0.792481     0.769306
Rotational constants in MHz : 132079.132696 23757.987078 23063.220302

                             ****ORCA TERMINATED NORMALLY****
TOTAL RUN TIME: 0 days 0 hours 1 minutes 6 seconds 536 msec
