                         Program Version 4.1.2  - RELEASE  -
|  1> #Run DFT-D3 single point of the dimer
|  2> ! wB97X-D3 def2-TZVP TIGHTSCF CHELPG PMODEL PAL8
|  3>
|  4> %base "16-149_DFT_AB"
|  5>
|  6> %scf
|  7> MaxIter 1000
|  8> end
|  9>
| 10> * xyz 0 1
| 11>   C                      3.966741             6.720232             0.746698
| 12>   O                      3.416166             6.261532             2.001378
| 13>   H                      3.399390             5.330941             2.007699
| 14>   H                      4.958919             6.341420             0.529668
| 15>   H                      3.288763             6.520529             -0.083598
| 16>   H                      4.116659             7.806077             0.736759
| 17>   C                      4.174423             2.521291             2.269891
| 18>   O                      3.727706             3.617166             1.427619
| 19>   H                      3.640388             3.247452             0.542139
| 20>   H                      3.348106             1.928534             2.618243
| 21>   H                      4.747251             1.855609             1.722985
| 22>   H                      4.757139             2.821299             3.072047
| 23> *
| 24>
| 25> #Run DFT-D3 single point of the molecule with dimer basis set
| 26> $new_job
| 27> %base "16-149_DFT_A"
| 28> ! wB97X-D3 def2-TZVP TIGHTSCF CHELPG PMODEL
| 29>
| 30> %scf
| 31> MaxIter 1000
| 32> end
| 33>
| 34> * xyz 0 1
| 35>   C                      3.966741             6.720232             0.746698
| 36>   O                      3.416166             6.261532             2.001378
| 37>   H                      3.399390             5.330941             2.007699
| 38>   H                      4.958919             6.341420             0.529668
| 39>   H                      3.288763             6.520529             -0.083598
| 40>   H                      4.116659             7.806077             0.736759
| 41>   C                    : 4.174423             2.521291             2.269891
| 42>   O                    : 3.727706             3.617166             1.427619
| 43>   H                    : 3.640388             3.247452             0.542139
| 44>   H                    : 3.348106             1.928534             2.618243
| 45>   H                    : 4.747251             1.855609             1.722985
| 46>   H                    : 4.757139             2.821299             3.072047
| 47> *
| 48>
| 49> #Run DFT-D3 single point of the particle with dimer basis set
| 50> $new_job
| 51> %base "16-149_DFT_B"
| 52> ! wB97X-D3 def2-TZVP TIGHTSCF CHELPG PMODEL
| 53>
| 54> %scf
| 55> MaxIter 1000
| 56> end
| 57>
| 58> * xyz 0 1
| 59>   C                    : 3.966741             6.720232             0.746698
| 60>   O                    : 3.416166             6.261532             2.001378
| 61>   H                    : 3.399390             5.330941             2.007699
| 62>   H                    : 4.958919             6.341420             0.529668
| 63>   H                    : 3.288763             6.520529             -0.083598
| 64>   H                    : 4.116659             7.806077             0.736759
| 65>   C                      4.174423             2.521291             2.269891
| 66>   O                      3.727706             3.617166             1.427619
| 67>   H                      3.640388             3.247452             0.542139
| 68>   H                      3.348106             1.928534             2.618243
| 69>   H                      4.747251             1.855609             1.722985
| 70>   H                      4.757139             2.821299             3.072047
| 71> *
| 72>
| 73>                          ****END OF INPUT****
 Total Charge           Charge          ....    0
 Multiplicity           Mult            ....    1
 Number of Electrons    NEL             ....   36
Dispersion correction           -0.001849688
FINAL SINGLE POINT ENERGY      -231.470903543593
Dispersion correction           -0.000264223
FINAL SINGLE POINT ENERGY      -115.734465695055

CARTESIAN COORDINATES (ANGSTROEM)
---------------------------------
  C      3.966741    6.720232    0.746698
  O      3.416166    6.261532    2.001378
  H      3.399390    5.330941    2.007699
  H      4.958919    6.341420    0.529668
  H      3.288763    6.520529   -0.083598
  H      4.116659    7.806077    0.736759
  C      4.174423    2.521291    2.269891
  O      3.727706    3.617166    1.427619
  H      3.640388    3.247452    0.542139
  H      3.348106    1.928534    2.618243
  H      4.747251    1.855609    1.722985
  H      4.757139    2.821299    3.072047

 Multiplicity           Mult            ....    1
 Number of Electrons    NEL             ....   18
 Basis Dimension        Dim             ....  172

ORBITAL ENERGIES
----------------

  NO   OCC          E(Eh)            E(eV)
   0   2.0000     -19.230931      -523.3002
   1   2.0000     -10.301955      -280.3304
   2   2.0000      -1.125202       -30.6183
   3   2.0000      -0.809284       -22.0217
   4   2.0000      -0.607805       -16.5392
   5   2.0000      -0.542818       -14.7708
   6   2.0000      -0.529874       -14.4186
   7   2.0000      -0.441886       -12.0243
   8   2.0000      -0.375933       -10.2297
   9   0.0000       0.098414         2.6780
  10   0.0000       0.128347         3.4925
  11   0.0000       0.154360         4.2003
  12   0.0000       0.187689         5.1073
  13   0.0000       0.207001         5.6328

MULLIKEN ATOMIC CHARGES
-----------------------
   0 C :    0.005075
   1 O :    0.002761
   2 H :   -0.013709
   3 H :   -0.005408
   4 H :   -0.001548
   5 H :   -0.000451
   6 C :   -0.166330
   7 O :   -0.473477
   8 H :    0.312925
   9 H :    0.104220
  10 H :    0.108302
  11 H :    0.127640
Sum of atomic charges:    0.0000000

LOEWDIN ATOMIC CHARGES
----------------------
   0 C :   -0.010613
   1 O :   -0.008031
   2 H :   -0.049172
   3 H :   -0.002447
   4 H :   -0.000615
   5 H :   -0.000141
   6 C :   -0.335136
   7 O :   -0.043602
   8 H :    0.170169
   9 H :    0.096471
  10 H :    0.087314
  11 H :    0.095803

  Mayer bond orders larger than 0.1
B(  6-C ,  7-O ) :   0.9911 B(  6-C ,  9-H ) :   0.9758 B(  6-C , 10-H ) :   0.9812
B(  6-C , 11-H ) :   0.9779 B(  7-O ,  8-H ) :   0.9002

Dispersion correction           -0.000236591
FINAL SINGLE POINT ENERGY      -115.729753297861

DIPOLE MOMENT
-------------
                                X             Y             Z
Electronic contribution:     -0.50344       1.50573      -0.85810
Nuclear contribution   :      0.66587      -2.23569       0.65058
                        -----------------------------------------
Total Dipole Moment    :      0.16243      -0.72997      -0.20752
                        -----------------------------------------
Magnitude (a.u.)       :      0.77608
Magnitude (Debye)      :      1.97263

Rotational constants in cm-1:     4.614618     0.801649     0.774581
Rotational constants in MHz : 138342.762646 24032.829797 23221.345010

                             ****ORCA TERMINATED NORMALLY****
TOTAL RUN TIME: 0 days 0 hours 0 minutes 57 seconds 567 msec
