                         Program Version 4.1.2  - RELEASE  -
|  1> #Run DFT-D3 single point of the dimer
|  2> ! wB97X-D3 def2-TZVP TIGHTSCF CHELPG PMODEL PAL8
|  3>
|  4> %base "6-80_DFT_AB"
|  5>
|  6> %scf
|  7> MaxIter 1000
|  8> end
|  9>
| 10> * xyz 0 1
| 11>   C                      -4.592135            -8.778354            -4.672863
| 12>   O                      -4.996036            -7.685713            -3.782804
| 13>   H                      -4.696775            -7.821721            -2.928204
| 14>   H                      -3.534098            -9.010149            -4.638917
| 15>   H                      -5.112055            -9.688766            -4.343416
| 16>   H                      -4.938609            -8.647915            -5.698391
| 17>   C                      -4.860387            -9.042144            -9.649226
| 18>   O                      -5.304821            -10.405946           -9.588112
| 19>   H                      -4.701139            -10.883973           -8.971898
| 20>   H                      -5.546647            -8.382812            -10.145500
| 21>   H                      -4.744645            -8.673357            -8.618931
| 22>   H                      -3.819723            -8.963563            -9.981958
| 23> *
| 24>
| 25> #Run DFT-D3 single point of the molecule with dimer basis set
| 26> $new_job
| 27> %base "6-80_DFT_A"
| 28> ! wB97X-D3 def2-TZVP TIGHTSCF CHELPG PMODEL
| 29>
| 30> %scf
| 31> MaxIter 1000
| 32> end
| 33>
| 34> * xyz 0 1
| 35>   C                      -4.592135            -8.778354            -4.672863
| 36>   O                      -4.996036            -7.685713            -3.782804
| 37>   H                      -4.696775            -7.821721            -2.928204
| 38>   H                      -3.534098            -9.010149            -4.638917
| 39>   H                      -5.112055            -9.688766            -4.343416
| 40>   H                      -4.938609            -8.647915            -5.698391
| 41>   C                    : -4.860387            -9.042144            -9.649226
| 42>   O                    : -5.304821            -10.405946           -9.588112
| 43>   H                    : -4.701139            -10.883973           -8.971898
| 44>   H                    : -5.546647            -8.382812            -10.145500
| 45>   H                    : -4.744645            -8.673357            -8.618931
| 46>   H                    : -3.819723            -8.963563            -9.981958
| 47> *
| 48>
| 49> #Run DFT-D3 single point of the particle with dimer basis set
| 50> $new_job
| 51> %base "6-80_DFT_B"
| 52> ! wB97X-D3 def2-TZVP TIGHTSCF CHELPG PMODEL
| 53>
| 54> %scf
| 55> MaxIter 1000
| 56> end
| 57>
| 58> * xyz 0 1
| 59>   C                    : -4.592135            -8.778354            -4.672863
| 60>   O                    : -4.996036            -7.685713            -3.782804
| 61>   H                    : -4.696775            -7.821721            -2.928204
| 62>   H                    : -3.534098            -9.010149            -4.638917
| 63>   H                    : -5.112055            -9.688766            -4.343416
| 64>   H                    : -4.938609            -8.647915            -5.698391
| 65>   C                      -4.860387            -9.042144            -9.649226
| 66>   O                      -5.304821            -10.405946           -9.588112
| 67>   H                      -4.701139            -10.883973           -8.971898
| 68>   H                      -5.546647            -8.382812            -10.145500
| 69>   H                      -4.744645            -8.673357            -8.618931
| 70>   H                      -3.819723            -8.963563            -9.981958
| 71> *
| 72>
| 73>                          ****END OF INPUT****
 Total Charge           Charge          ....    0
 Multiplicity           Mult            ....    1
 Number of Electrons    NEL             ....   36
Dispersion correction           -0.000917819
FINAL SINGLE POINT ENERGY      -231.461675974124
Dispersion correction           -0.000267042
FINAL SINGLE POINT ENERGY      -115.730349382017

CARTESIAN COORDINATES (ANGSTROEM)
---------------------------------
  C     -4.592135   -8.778354   -4.672863
  O     -4.996036   -7.685713   -3.782804
  H     -4.696775   -7.821721   -2.928204
  H     -3.534098   -9.010149   -4.638917
  H     -5.112055   -9.688766   -4.343416
  H     -4.938609   -8.647915   -5.698391
  C     -4.860387   -9.042144   -9.649226
  O     -5.304821  -10.405946   -9.588112
  H     -4.701139  -10.883973   -8.971898
  H     -5.546647   -8.382812  -10.145500
  H     -4.744645   -8.673357   -8.618931
  H     -3.819723   -8.963563   -9.981958

 Multiplicity           Mult            ....    1
 Number of Electrons    NEL             ....   18
 Basis Dimension        Dim             ....  172

ORBITAL ENERGIES
----------------

  NO   OCC          E(Eh)            E(eV)
   0   2.0000     -19.231806      -523.3240
   1   2.0000     -10.314186      -280.6633
   2   2.0000      -1.124803       -30.6074
   3   2.0000      -0.795665       -21.6511
   4   2.0000      -0.607372       -16.5274
   5   2.0000      -0.537624       -14.6295
   6   2.0000      -0.524237       -14.2652
   7   2.0000      -0.439120       -11.9491
   8   2.0000      -0.368310       -10.0222
   9   0.0000       0.079942         2.1753
  10   0.0000       0.111684         3.0391
  11   0.0000       0.149921         4.0796
  12   0.0000       0.166138         4.5208
  13   0.0000       0.187384         5.0990

MULLIKEN ATOMIC CHARGES
-----------------------
   0 C :   -0.001628
   1 O :    0.000046
   2 H :    0.000003
   3 H :    0.000012
   4 H :    0.000041
   5 H :    0.002918
   6 C :   -0.172009
   7 O :   -0.479237
   8 H :    0.316915
   9 H :    0.129631
  10 H :    0.096287
  11 H :    0.107020
Sum of atomic charges:   -0.0000000

LOEWDIN ATOMIC CHARGES
----------------------
   0 C :   -0.000408
   1 O :   -0.000006
   2 H :   -0.000000
   3 H :   -0.000010
   4 H :   -0.000003
   5 H :   -0.001077
   6 C :   -0.371994
   7 O :   -0.106655
   8 H :    0.183619
   9 H :    0.104372
  10 H :    0.096356
  11 H :    0.095806

  Mayer bond orders larger than 0.1
B(  6-C ,  7-O ) :   0.9956 B(  6-C ,  9-H ) :   0.9707 B(  6-C , 10-H ) :   0.9809
B(  6-C , 11-H ) :   0.9752 B(  7-O ,  8-H ) :   0.8947

Dispersion correction           -0.000237692
FINAL SINGLE POINT ENERGY      -115.731147535002

DIPOLE MOMENT
-------------
                                X             Y             Z
Electronic contribution:     -0.79024      -1.67361      -0.22681
Nuclear contribution   :      1.34537       1.94281       0.60610
                        -----------------------------------------
Total Dipole Moment    :      0.55513       0.26920       0.37929
                        -----------------------------------------
Magnitude (a.u.)       :      0.72422
Magnitude (Debye)      :      1.84082

Rotational constants in cm-1:     4.291661     0.815578     0.775037
Rotational constants in MHz : 128660.773160 24450.406233 23235.022576

                             ****ORCA TERMINATED NORMALLY****
TOTAL RUN TIME: 0 days 0 hours 0 minutes 59 seconds 789 msec
