                         Program Version 4.1.2  - RELEASE  -
|  1> #Run DFT-D3 single point of the dimer
|  2> ! wB97X-D3 def2-TZVP TIGHTSCF CHELPG PMODEL PAL8
|  3>
|  4> %base "10-189_DFT_AB"
|  5>
|  6> %scf
|  7> MaxIter 1000
|  8> end
|  9>
| 10> * xyz 0 1
| 11>   C                      10.817425            -2.253238            2.686767
| 12>   O                      11.196271            -2.498821            4.010807
| 13>   H                      10.538250            -2.908171            4.521803
| 14>   H                      9.929062             -1.706413            2.595542
| 15>   H                      11.545464            -1.735707            2.147440
| 16>   H                      10.553367            -3.127474            2.134818
| 17>   C                      9.598185             -2.203292            7.606864
| 18>   O                      9.218014             -2.751726            6.369150
| 19>   H                      8.917730             -1.988035            5.834676
| 20>   H                      9.861956             -2.945192            8.385856
| 21>   H                      10.572371            -1.642456            7.436267
| 22>   H                      8.937665             -1.366411            8.022716
| 23> *
| 24>
| 25> #Run DFT-D3 single point of the molecule with dimer basis set
| 26> $new_job
| 27> %base "10-189_DFT_A"
| 28> ! wB97X-D3 def2-TZVP TIGHTSCF CHELPG PMODEL
| 29>
| 30> %scf
| 31> MaxIter 1000
| 32> end
| 33>
| 34> * xyz 0 1
| 35>   C                      10.817425            -2.253238            2.686767
| 36>   O                      11.196271            -2.498821            4.010807
| 37>   H                      10.538250            -2.908171            4.521803
| 38>   H                      9.929062             -1.706413            2.595542
| 39>   H                      11.545464            -1.735707            2.147440
| 40>   H                      10.553367            -3.127474            2.134818
| 41>   C                    : 9.598185             -2.203292            7.606864
| 42>   O                    : 9.218014             -2.751726            6.369150
| 43>   H                    : 8.917730             -1.988035            5.834676
| 44>   H                    : 9.861956             -2.945192            8.385856
| 45>   H                    : 10.572371            -1.642456            7.436267
| 46>   H                    : 8.937665             -1.366411            8.022716
| 47> *
| 48>
| 49> #Run DFT-D3 single point of the particle with dimer basis set
| 50> $new_job
| 51> %base "10-189_DFT_B"
| 52> ! wB97X-D3 def2-TZVP TIGHTSCF CHELPG PMODEL
| 53>
| 54> %scf
| 55> MaxIter 1000
| 56> end
| 57>
| 58> * xyz 0 1
| 59>   C                    : 10.817425            -2.253238            2.686767
| 60>   O                    : 11.196271            -2.498821            4.010807
| 61>   H                    : 10.538250            -2.908171            4.521803
| 62>   H                    : 9.929062             -1.706413            2.595542
| 63>   H                    : 11.545464            -1.735707            2.147440
| 64>   H                    : 10.553367            -3.127474            2.134818
| 65>   C                      9.598185             -2.203292            7.606864
| 66>   O                      9.218014             -2.751726            6.369150
| 67>   H                      8.917730             -1.988035            5.834676
| 68>   H                      9.861956             -2.945192            8.385856
| 69>   H                      10.572371            -1.642456            7.436267
| 70>   H                      8.937665             -1.366411            8.022716
| 71> *
| 72>
| 73>                          ****END OF INPUT****
 Total Charge           Charge          ....    0
 Multiplicity           Mult            ....    1
 Number of Electrons    NEL             ....   36
Dispersion correction           -0.001547147
FINAL SINGLE POINT ENERGY      -231.464070715171
Dispersion correction           -0.000237181
FINAL SINGLE POINT ENERGY      -115.729951317850

CARTESIAN COORDINATES (ANGSTROEM)
---------------------------------
  C     10.817425   -2.253238    2.686767
  O     11.196271   -2.498821    4.010807
  H     10.538250   -2.908171    4.521803
  H      9.929062   -1.706413    2.595542
  H     11.545464   -1.735707    2.147440
  H     10.553367   -3.127474    2.134818
  C      9.598185   -2.203292    7.606864
  O      9.218014   -2.751726    6.369150
  H      8.917730   -1.988035    5.834676
  H      9.861956   -2.945192    8.385856
  H     10.572371   -1.642456    7.436267
  H      8.937665   -1.366411    8.022716

 Multiplicity           Mult            ....    1
 Number of Electrons    NEL             ....   18
 Basis Dimension        Dim             ....  172

ORBITAL ENERGIES
----------------

  NO   OCC          E(Eh)            E(eV)
   0   2.0000     -19.238522      -523.5068
   1   2.0000     -10.324300      -280.9385
   2   2.0000      -1.140699       -31.0400
   3   2.0000      -0.786480       -21.4012
   4   2.0000      -0.612502       -16.6670
   5   2.0000      -0.533548       -14.5186
   6   2.0000      -0.526853       -14.3364
   7   2.0000      -0.441037       -12.0012
   8   2.0000      -0.367608       -10.0031
   9   0.0000       0.084126         2.2892
  10   0.0000       0.120262         3.2725
  11   0.0000       0.148921         4.0524
  12   0.0000       0.174981         4.7615
  13   0.0000       0.199591         5.4311

MULLIKEN ATOMIC CHARGES
-----------------------
   0 C :   -0.000011
   1 O :   -0.001684
   2 H :   -0.009550
   3 H :   -0.000258
   4 H :    0.000023
   5 H :    0.000007
   6 C :   -0.195008
   7 O :   -0.452522
   8 H :    0.323339
   9 H :    0.129158
  10 H :    0.099509
  11 H :    0.106998
Sum of atomic charges:   -0.0000000

LOEWDIN ATOMIC CHARGES
----------------------
   0 C :   -0.000770
   1 O :   -0.003941
   2 H :   -0.021415
   3 H :   -0.000149
   4 H :   -0.000009
   5 H :   -0.000008
   6 C :   -0.415785
   7 O :   -0.057420
   8 H :    0.188007
   9 H :    0.110539
  10 H :    0.098797
  11 H :    0.102152

  Mayer bond orders larger than 0.1
B(  6-C ,  7-O ) :   0.9993 B(  6-C ,  9-H ) :   0.9694 B(  6-C , 10-H ) :   0.9799
B(  6-C , 11-H ) :   0.9671 B(  7-O ,  8-H ) :   0.8909

Dispersion correction           -0.000250705
FINAL SINGLE POINT ENERGY      -115.729355912877

DIPOLE MOMENT
-------------
                                X             Y             Z
Electronic contribution:     -0.66708      -1.06458      -1.55658
Nuclear contribution   :      0.62510       1.73756       1.69698
                        -----------------------------------------
Total Dipole Moment    :     -0.04198       0.67298       0.14040
                        -----------------------------------------
Magnitude (a.u.)       :      0.68875
Magnitude (Debye)      :      1.75066

Rotational constants in cm-1:     4.124091     0.831490     0.790380
Rotational constants in MHz : 123637.138173 24927.428363 23694.985770

                             ****ORCA TERMINATED NORMALLY****
TOTAL RUN TIME: 0 days 0 hours 1 minutes 7 seconds 624 msec
