                         Program Version 4.1.2  - RELEASE  -
|  1> #Run DFT-D3 single point of the dimer
|  2> ! wB97X-D3 def2-TZVP TIGHTSCF CHELPG PMODEL PAL8
|  3>
|  4> %base "11-74_DFT_AB"
|  5>
|  6> %scf
|  7> MaxIter 1000
|  8> end
|  9>
| 10> * xyz 0 1
| 11>   C                      8.208089             3.975349             -1.861267
| 12>   O                      7.813825             2.619600             -2.292651
| 13>   H                      7.000944             2.319256             -1.900115
| 14>   H                      8.304451             4.108650             -0.728916
| 15>   H                      9.262322             4.143959             -2.354098
| 16>   H                      7.514508             4.812777             -2.164203
| 17>   C                      9.746196             0.127752             0.272165
| 18>   O                      9.036215             1.286193             0.694994
| 19>   H                      9.106927             1.857356             -0.091271
| 20>   H                      9.334585             -0.309086            -0.601121
| 21>   H                      10.778810            0.400009             -0.013756
| 22>   H                      9.754853             -0.603531            1.099498
| 23> *
| 24>
| 25> #Run DFT-D3 single point of the molecule with dimer basis set
| 26> $new_job
| 27> %base "11-74_DFT_A"
| 28> ! wB97X-D3 def2-TZVP TIGHTSCF CHELPG PMODEL
| 29>
| 30> %scf
| 31> MaxIter 1000
| 32> end
| 33>
| 34> * xyz 0 1
| 35>   C                      8.208089             3.975349             -1.861267
| 36>   O                      7.813825             2.619600             -2.292651
| 37>   H                      7.000944             2.319256             -1.900115
| 38>   H                      8.304451             4.108650             -0.728916
| 39>   H                      9.262322             4.143959             -2.354098
| 40>   H                      7.514508             4.812777             -2.164203
| 41>   C                    : 9.746196             0.127752             0.272165
| 42>   O                    : 9.036215             1.286193             0.694994
| 43>   H                    : 9.106927             1.857356             -0.091271
| 44>   H                    : 9.334585             -0.309086            -0.601121
| 45>   H                    : 10.778810            0.400009             -0.013756
| 46>   H                    : 9.754853             -0.603531            1.099498
| 47> *
| 48>
| 49> #Run DFT-D3 single point of the particle with dimer basis set
| 50> $new_job
| 51> %base "11-74_DFT_B"
| 52> ! wB97X-D3 def2-TZVP TIGHTSCF CHELPG PMODEL
| 53>
| 54> %scf
| 55> MaxIter 1000
| 56> end
| 57>
| 58> * xyz 0 1
| 59>   C                    : 8.208089             3.975349             -1.861267
| 60>   O                    : 7.813825             2.619600             -2.292651
| 61>   H                    : 7.000944             2.319256             -1.900115
| 62>   H                    : 8.304451             4.108650             -0.728916
| 63>   H                    : 9.262322             4.143959             -2.354098
| 64>   H                    : 7.514508             4.812777             -2.164203
| 65>   C                      9.746196             0.127752             0.272165
| 66>   O                      9.036215             1.286193             0.694994
| 67>   H                      9.106927             1.857356             -0.091271
| 68>   H                      9.334585             -0.309086            -0.601121
| 69>   H                      10.778810            0.400009             -0.013756
| 70>   H                      9.754853             -0.603531            1.099498
| 71> *
| 72>
| 73>                          ****END OF INPUT****
 Total Charge           Charge          ....    0
 Multiplicity           Mult            ....    1
 Number of Electrons    NEL             ....   36
Dispersion correction           -0.001779227
FINAL SINGLE POINT ENERGY      -231.466011873756
Dispersion correction           -0.000325897
FINAL SINGLE POINT ENERGY      -115.726713768150

CARTESIAN COORDINATES (ANGSTROEM)
---------------------------------
  C      8.208089    3.975349   -1.861267
  O      7.813825    2.619600   -2.292651
  H      7.000944    2.319256   -1.900115
  H      8.304451    4.108650   -0.728916
  H      9.262322    4.143959   -2.354098
  H      7.514508    4.812777   -2.164203
  C      9.746196    0.127752    0.272165
  O      9.036215    1.286193    0.694994
  H      9.106927    1.857356   -0.091271
  H      9.334585   -0.309086   -0.601121
  H     10.778810    0.400009   -0.013756
  H      9.754853   -0.603531    1.099498

 Multiplicity           Mult            ....    1
 Number of Electrons    NEL             ....   18
 Basis Dimension        Dim             ....  172

ORBITAL ENERGIES
----------------

  NO   OCC          E(Eh)            E(eV)
   0   2.0000     -19.233330      -523.3655
   1   2.0000     -10.312911      -280.6286
   2   2.0000      -1.135346       -30.8943
   3   2.0000      -0.792993       -21.5784
   4   2.0000      -0.611140       -16.6300
   5   2.0000      -0.539605       -14.6834
   6   2.0000      -0.523133       -14.2352
   7   2.0000      -0.445305       -12.1174
   8   2.0000      -0.373023       -10.1505
   9   0.0000       0.070915         1.9297
  10   0.0000       0.130237         3.5439
  11   0.0000       0.156706         4.2642
  12   0.0000       0.157913         4.2970
  13   0.0000       0.189949         5.1688

MULLIKEN ATOMIC CHARGES
-----------------------
   0 C :   -0.000954
   1 O :   -0.001020
   2 H :   -0.001257
   3 H :   -0.000286
   4 H :    0.000041
   5 H :    0.000014
   6 C :   -0.167959
   7 O :   -0.464715
   8 H :    0.312863
   9 H :    0.105937
  10 H :    0.098136
  11 H :    0.119202
Sum of atomic charges:   -0.0000000

LOEWDIN ATOMIC CHARGES
----------------------
   0 C :   -0.004853
   1 O :   -0.002347
   2 H :   -0.001386
   3 H :   -0.001630
   4 H :   -0.000137
   5 H :   -0.000063
   6 C :   -0.380278
   7 O :   -0.083434
   8 H :    0.180765
   9 H :    0.086097
  10 H :    0.096049
  11 H :    0.111217

  Mayer bond orders larger than 0.1
B(  6-C ,  7-O ) :   0.9949 B(  6-C ,  9-H ) :   0.9720 B(  6-C , 10-H ) :   0.9832
B(  6-C , 11-H ) :   0.9743 B(  7-O ,  8-H ) :   0.9051

Dispersion correction           -0.000218739
FINAL SINGLE POINT ENERGY      -115.734563321661

DIPOLE MOMENT
-------------
                                X             Y             Z
Electronic contribution:     -1.00184       1.36499       0.70815
Nuclear contribution   :      1.31721      -1.47870      -1.35907
                        -----------------------------------------
Total Dipole Moment    :      0.31537      -0.11371      -0.65093
                        -----------------------------------------
Magnitude (a.u.)       :      0.73218
Magnitude (Debye)      :      1.86106

Rotational constants in cm-1:     4.212766     0.837513     0.796074
Rotational constants in MHz : 126295.542313 25108.007528 23865.711343

                             ****ORCA TERMINATED NORMALLY****
TOTAL RUN TIME: 0 days 0 hours 1 minutes 12 seconds 517 msec
