                         Program Version 4.1.2  - RELEASE  -
|  1> #Run DFT-D3 single point of the dimer
|  2> ! wB97X-D3 def2-TZVP TIGHTSCF CHELPG PMODEL PAL8
|  3>
|  4> %base "9-73_DFT_AB"
|  5>
|  6> %scf
|  7> MaxIter 1000
|  8> end
|  9>
| 10> * xyz 0 1
| 11>   C                      -6.988085            5.917320             -1.756806
| 12>   O                      -5.841079            5.346315             -1.198149
| 13>   H                      -6.238028            4.725105             -0.596400
| 14>   H                      -7.469596            5.138823             -2.402609
| 15>   H                      -7.670168            6.304700             -1.043612
| 16>   H                      -6.732474            6.712058             -2.340388
| 17>   C                      -7.709008            5.724465             -7.041858
| 18>   O                      -7.893009            5.397264             -5.706339
| 19>   H                      -7.470461            4.539697             -5.561548
| 20>   H                      -8.301419            5.232286             -7.798056
| 21>   H                      -7.925926            6.759924             -7.241924
| 22>   H                      -6.721848            5.612300             -7.397646
| 23> *
| 24>
| 25> #Run DFT-D3 single point of the molecule with dimer basis set
| 26> $new_job
| 27> %base "9-73_DFT_A"
| 28> ! wB97X-D3 def2-TZVP TIGHTSCF CHELPG PMODEL
| 29>
| 30> %scf
| 31> MaxIter 1000
| 32> end
| 33>
| 34> * xyz 0 1
| 35>   C                      -6.988085            5.917320             -1.756806
| 36>   O                      -5.841079            5.346315             -1.198149
| 37>   H                      -6.238028            4.725105             -0.596400
| 38>   H                      -7.469596            5.138823             -2.402609
| 39>   H                      -7.670168            6.304700             -1.043612
| 40>   H                      -6.732474            6.712058             -2.340388
| 41>   C                    : -7.709008            5.724465             -7.041858
| 42>   O                    : -7.893009            5.397264             -5.706339
| 43>   H                    : -7.470461            4.539697             -5.561548
| 44>   H                    : -8.301419            5.232286             -7.798056
| 45>   H                    : -7.925926            6.759924             -7.241924
| 46>   H                    : -6.721848            5.612300             -7.397646
| 47> *
| 48>
| 49> #Run DFT-D3 single point of the particle with dimer basis set
| 50> $new_job
| 51> %base "9-73_DFT_B"
| 52> ! wB97X-D3 def2-TZVP TIGHTSCF CHELPG PMODEL
| 53>
| 54> %scf
| 55> MaxIter 1000
| 56> end
| 57>
| 58> * xyz 0 1
| 59>   C                    : -6.988085            5.917320             -1.756806
| 60>   O                    : -5.841079            5.346315             -1.198149
| 61>   H                    : -6.238028            4.725105             -0.596400
| 62>   H                    : -7.469596            5.138823             -2.402609
| 63>   H                    : -7.670168            6.304700             -1.043612
| 64>   H                    : -6.732474            6.712058             -2.340388
| 65>   C                      -7.709008            5.724465             -7.041858
| 66>   O                      -7.893009            5.397264             -5.706339
| 67>   H                      -7.470461            4.539697             -5.561548
| 68>   H                      -8.301419            5.232286             -7.798056
| 69>   H                      -7.925926            6.759924             -7.241924
| 70>   H                      -6.721848            5.612300             -7.397646
| 71> *
| 72>
| 73>                          ****END OF INPUT****
 Total Charge           Charge          ....    0
 Multiplicity           Mult            ....    1
 Number of Electrons    NEL             ....   36
Dispersion correction           -0.000947523
FINAL SINGLE POINT ENERGY      -231.461835159354
Dispersion correction           -0.000197776
FINAL SINGLE POINT ENERGY      -115.729169447984

CARTESIAN COORDINATES (ANGSTROEM)
---------------------------------
  C     -6.988085    5.917320   -1.756806
  O     -5.841079    5.346315   -1.198149
  H     -6.238028    4.725105   -0.596400
  H     -7.469596    5.138823   -2.402609
  H     -7.670168    6.304700   -1.043612
  H     -6.732474    6.712058   -2.340388
  C     -7.709008    5.724465   -7.041858
  O     -7.893009    5.397264   -5.706339
  H     -7.470461    4.539697   -5.561548
  H     -8.301419    5.232286   -7.798056
  H     -7.925926    6.759924   -7.241924
  H     -6.721848    5.612300   -7.397646

 Multiplicity           Mult            ....    1
 Number of Electrons    NEL             ....   18
 Basis Dimension        Dim             ....  172

ORBITAL ENERGIES
----------------

  NO   OCC          E(Eh)            E(eV)
   0   2.0000     -19.236854      -523.4614
   1   2.0000     -10.302341      -280.3410
   2   2.0000      -1.146018       -31.1847
   3   2.0000      -0.803652       -21.8685
   4   2.0000      -0.622871       -16.9492
   5   2.0000      -0.541694       -14.7402
   6   2.0000      -0.531833       -14.4719
   7   2.0000      -0.434812       -11.8318
   8   2.0000      -0.375997       -10.2314
   9   0.0000       0.092228         2.5097
  10   0.0000       0.119711         3.2575
  11   0.0000       0.150851         4.1049
  12   0.0000       0.176873         4.8129
  13   0.0000       0.205951         5.6042

MULLIKEN ATOMIC CHARGES
-----------------------
   0 C :   -0.000274
   1 O :    0.000051
   2 H :    0.000001
   3 H :   -0.001163
   4 H :   -0.000192
   5 H :   -0.000968
   6 C :   -0.159196
   7 O :   -0.462738
   8 H :    0.319139
   9 H :    0.091203
  10 H :    0.113790
  11 H :    0.100346
Sum of atomic charges:    0.0000000

LOEWDIN ATOMIC CHARGES
----------------------
   0 C :   -0.001638
   1 O :   -0.000015
   2 H :   -0.000001
   3 H :   -0.001074
   4 H :   -0.000020
   5 H :   -0.000538
   6 C :   -0.409995
   7 O :   -0.050057
   8 H :    0.179047
   9 H :    0.090514
  10 H :    0.106629
  11 H :    0.087149

  Mayer bond orders larger than 0.1
B(  6-C ,  7-O ) :   1.0129 B(  6-C ,  9-H ) :   0.9707 B(  6-C , 10-H ) :   0.9784
B(  6-C , 11-H ) :   0.9827 B(  7-O ,  8-H ) :   0.8950

Dispersion correction           -0.000245513
FINAL SINGLE POINT ENERGY      -115.731711503429

DIPOLE MOMENT
-------------
                                X             Y             Z
Electronic contribution:     -0.33048      -0.40008       1.92527
Nuclear contribution   :      0.68470      -0.00706      -2.35466
                        -----------------------------------------
Total Dipole Moment    :      0.35422      -0.40714      -0.42939
                        -----------------------------------------
Magnitude (a.u.)       :      0.68965
Magnitude (Debye)      :      1.75294

Rotational constants in cm-1:     4.693568     0.844820     0.812938
Rotational constants in MHz : 140709.628158 25327.059749 24371.262018

                             ****ORCA TERMINATED NORMALLY****
TOTAL RUN TIME: 0 days 0 hours 0 minutes 42 seconds 419 msec
