                         Program Version 4.1.2  - RELEASE  -
|  1> #Run DFT-D3 single point of the dimer
|  2> ! wB97X-D3 def2-TZVP TIGHTSCF CHELPG PMODEL PAL8
|  3>
|  4> %base "4-183_DFT_AB"
|  5>
|  6> %scf
|  7> MaxIter 1000
|  8> end
|  9>
| 10> * xyz 0 1
| 11>   C                      -5.470393            -1.876097            1.136380
| 12>   O                      -5.868612            -2.423977            2.388435
| 13>   H                      -6.835133            -2.315790            2.387192
| 14>   H                      -4.375722            -2.094982            0.894261
| 15>   H                      -6.064162            -2.282764            0.341504
| 16>   H                      -5.615935            -0.781423            1.121355
| 17>   C                      -4.909608            -5.758686            0.169382
| 18>   O                      -5.503586            -4.939458            -0.765821
| 19>   H                      -6.378337            -4.740081            -0.466764
| 20>   H                      -4.879905            -5.329231            1.194826
| 21>   H                      -5.434334            -6.710368            0.221038
| 22>   H                      -3.872781            -5.973523            -0.147938
| 23> *
| 24>
| 25> #Run DFT-D3 single point of the molecule with dimer basis set
| 26> $new_job
| 27> %base "4-183_DFT_A"
| 28> ! wB97X-D3 def2-TZVP TIGHTSCF CHELPG PMODEL
| 29>
| 30> %scf
| 31> MaxIter 1000
| 32> end
| 33>
| 34> * xyz 0 1
| 35>   C                      -5.470393            -1.876097            1.136380
| 36>   O                      -5.868612            -2.423977            2.388435
| 37>   H                      -6.835133            -2.315790            2.387192
| 38>   H                      -4.375722            -2.094982            0.894261
| 39>   H                      -6.064162            -2.282764            0.341504
| 40>   H                      -5.615935            -0.781423            1.121355
| 41>   C                    : -4.909608            -5.758686            0.169382
| 42>   O                    : -5.503586            -4.939458            -0.765821
| 43>   H                    : -6.378337            -4.740081            -0.466764
| 44>   H                    : -4.879905            -5.329231            1.194826
| 45>   H                    : -5.434334            -6.710368            0.221038
| 46>   H                    : -3.872781            -5.973523            -0.147938
| 47> *
| 48>
| 49> #Run DFT-D3 single point of the particle with dimer basis set
| 50> $new_job
| 51> %base "4-183_DFT_B"
| 52> ! wB97X-D3 def2-TZVP TIGHTSCF CHELPG PMODEL
| 53>
| 54> %scf
| 55> MaxIter 1000
| 56> end
| 57>
| 58> * xyz 0 1
| 59>   C                    : -5.470393            -1.876097            1.136380
| 60>   O                    : -5.868612            -2.423977            2.388435
| 61>   H                    : -6.835133            -2.315790            2.387192
| 62>   H                    : -4.375722            -2.094982            0.894261
| 63>   H                    : -6.064162            -2.282764            0.341504
| 64>   H                    : -5.615935            -0.781423            1.121355
| 65>   C                      -4.909608            -5.758686            0.169382
| 66>   O                      -5.503586            -4.939458            -0.765821
| 67>   H                      -6.378337            -4.740081            -0.466764
| 68>   H                      -4.879905            -5.329231            1.194826
| 69>   H                      -5.434334            -6.710368            0.221038
| 70>   H                      -3.872781            -5.973523            -0.147938
| 71> *
| 72>
| 73>                          ****END OF INPUT****
 Total Charge           Charge          ....    0
 Multiplicity           Mult            ....    1
 Number of Electrons    NEL             ....   36
Dispersion correction           -0.001859775
FINAL SINGLE POINT ENERGY      -231.472224496050
Dispersion correction           -0.000234322
FINAL SINGLE POINT ENERGY      -115.733951495318

CARTESIAN COORDINATES (ANGSTROEM)
---------------------------------
  C     -5.470393   -1.876097    1.136380
  O     -5.868612   -2.423977    2.388435
  H     -6.835133   -2.315790    2.387192
  H     -4.375722   -2.094982    0.894261
  H     -6.064162   -2.282764    0.341504
  H     -5.615935   -0.781423    1.121355
  C     -4.909608   -5.758686    0.169382
  O     -5.503586   -4.939458   -0.765821
  H     -6.378337   -4.740081   -0.466764
  H     -4.879905   -5.329231    1.194826
  H     -5.434334   -6.710368    0.221038
  H     -3.872781   -5.973523   -0.147938

 Multiplicity           Mult            ....    1
 Number of Electrons    NEL             ....   18
 Basis Dimension        Dim             ....  172

ORBITAL ENERGIES
----------------

  NO   OCC          E(Eh)            E(eV)
   0   2.0000     -19.230585      -523.2908
   1   2.0000     -10.312306      -280.6121
   2   2.0000      -1.151983       -31.3470
   3   2.0000      -0.793964       -21.6049
   4   2.0000      -0.619989       -16.8708
   5   2.0000      -0.545659       -14.8481
   6   2.0000      -0.531963       -14.4755
   7   2.0000      -0.432321       -11.7640
   8   2.0000      -0.372841       -10.1455
   9   0.0000       0.080719         2.1965
  10   0.0000       0.132854         3.6151
  11   0.0000       0.152028         4.1369
  12   0.0000       0.165152         4.4940
  13   0.0000       0.190911         5.1950

MULLIKEN ATOMIC CHARGES
-----------------------
   0 C :    0.002930
   1 O :   -0.000187
   2 H :   -0.000046
   3 H :   -0.000232
   4 H :   -0.009300
   5 H :   -0.000643
   6 C :   -0.163412
   7 O :   -0.458309
   8 H :    0.316218
   9 H :    0.096755
  10 H :    0.102198
  11 H :    0.114029
Sum of atomic charges:   -0.0000000

LOEWDIN ATOMIC CHARGES
----------------------
   0 C :   -0.005358
   1 O :   -0.000388
   2 H :   -0.000054
   3 H :   -0.000648
   4 H :   -0.004973
   5 H :   -0.000059
   6 C :   -0.414952
   7 O :   -0.035369
   8 H :    0.163642
   9 H :    0.095038
  10 H :    0.091930
  11 H :    0.111193

  Mayer bond orders larger than 0.1
B(  6-C ,  7-O ) :   1.0031 B(  6-C ,  9-H ) :   0.9724 B(  6-C , 10-H ) :   0.9813
B(  6-C , 11-H ) :   0.9740 B(  7-O ,  8-H ) :   0.8980

Dispersion correction           -0.000224471
FINAL SINGLE POINT ENERGY      -115.736556157959

DIPOLE MOMENT
-------------
                                X             Y             Z
Electronic contribution:     -0.68149       1.10260      -1.32112
Nuclear contribution   :      0.34882      -1.29822       1.84677
                        -----------------------------------------
Total Dipole Moment    :     -0.33267      -0.19561       0.52565
                        -----------------------------------------
Magnitude (a.u.)       :      0.65211
Magnitude (Debye)      :      1.65753

Rotational constants in cm-1:     4.283207     0.866331     0.833663
Rotational constants in MHz : 128407.307097 25971.944622 24992.576775

                             ****ORCA TERMINATED NORMALLY****
TOTAL RUN TIME: 0 days 0 hours 1 minutes 35 seconds 314 msec
