                         Program Version 4.1.2  - RELEASE  -
|  1> #Run DFT-D3 single point of the dimer
|  2> ! wB97X-D3 def2-TZVP TIGHTSCF CHELPG PMODEL PAL8
|  3>
|  4> %base "22-47_DFT_AB"
|  5>
|  6> %scf
|  7> MaxIter 1000
|  8> end
|  9>
| 10> * xyz 0 1
| 11>   C                      3.346385             5.166609             -0.324777
| 12>   O                      4.605433             4.856927             -0.851271
| 13>   H                      4.735588             5.658297             -1.389277
| 14>   H                      2.939554             4.225934             -0.016089
| 15>   H                      3.411675             5.727115             0.579502
| 16>   H                      2.613158             5.716876             -1.000328
| 17>   C                      7.948919             5.705900             2.405429
| 18>   O                      6.539732             5.500871             2.665796
| 19>   H                      6.234676             4.665391             2.277052
| 20>   H                      8.553581             5.239697             3.103390
| 21>   H                      8.362494             5.393117             1.477451
| 22>   H                      8.136218             6.764954             2.515097
| 23> *
| 24>
| 25> #Run DFT-D3 single point of the molecule with dimer basis set
| 26> $new_job
| 27> %base "22-47_DFT_A"
| 28> ! wB97X-D3 def2-TZVP TIGHTSCF CHELPG PMODEL
| 29>
| 30> %scf
| 31> MaxIter 1000
| 32> end
| 33>
| 34> * xyz 0 1
| 35>   C                      3.346385             5.166609             -0.324777
| 36>   O                      4.605433             4.856927             -0.851271
| 37>   H                      4.735588             5.658297             -1.389277
| 38>   H                      2.939554             4.225934             -0.016089
| 39>   H                      3.411675             5.727115             0.579502
| 40>   H                      2.613158             5.716876             -1.000328
| 41>   C                    : 7.948919             5.705900             2.405429
| 42>   O                    : 6.539732             5.500871             2.665796
| 43>   H                    : 6.234676             4.665391             2.277052
| 44>   H                    : 8.553581             5.239697             3.103390
| 45>   H                    : 8.362494             5.393117             1.477451
| 46>   H                    : 8.136218             6.764954             2.515097
| 47> *
| 48>
| 49> #Run DFT-D3 single point of the particle with dimer basis set
| 50> $new_job
| 51> %base "22-47_DFT_B"
| 52> ! wB97X-D3 def2-TZVP TIGHTSCF CHELPG PMODEL
| 53>
| 54> %scf
| 55> MaxIter 1000
| 56> end
| 57>
| 58> * xyz 0 1
| 59>   C                    : 3.346385             5.166609             -0.324777
| 60>   O                    : 4.605433             4.856927             -0.851271
| 61>   H                    : 4.735588             5.658297             -1.389277
| 62>   H                    : 2.939554             4.225934             -0.016089
| 63>   H                    : 3.411675             5.727115             0.579502
| 64>   H                    : 2.613158             5.716876             -1.000328
| 65>   C                      7.948919             5.705900             2.405429
| 66>   O                      6.539732             5.500871             2.665796
| 67>   H                      6.234676             4.665391             2.277052
| 68>   H                      8.553581             5.239697             3.103390
| 69>   H                      8.362494             5.393117             1.477451
| 70>   H                      8.136218             6.764954             2.515097
| 71> *
| 72>
| 73>                          ****END OF INPUT****
 Total Charge           Charge          ....    0
 Multiplicity           Mult            ....    1
 Number of Electrons    NEL             ....   36
Dispersion correction           -0.001066672
FINAL SINGLE POINT ENERGY      -231.461639794021
Dispersion correction           -0.000224358
FINAL SINGLE POINT ENERGY      -115.729387964295

CARTESIAN COORDINATES (ANGSTROEM)
---------------------------------
  C      3.346385    5.166609   -0.324777
  O      4.605433    4.856927   -0.851271
  H      4.735588    5.658297   -1.389277
  H      2.939554    4.225934   -0.016089
  H      3.411675    5.727115    0.579502
  H      2.613158    5.716876   -1.000328
  C      7.948919    5.705900    2.405429
  O      6.539732    5.500871    2.665796
  H      6.234676    4.665391    2.277052
  H      8.553581    5.239697    3.103390
  H      8.362494    5.393117    1.477451
  H      8.136218    6.764954    2.515097

 Multiplicity           Mult            ....    1
 Number of Electrons    NEL             ....   18
 Basis Dimension        Dim             ....  172

ORBITAL ENERGIES
----------------

  NO   OCC          E(Eh)            E(eV)
   0   2.0000     -19.232284      -523.3370
   1   2.0000     -10.304328      -280.3950
   2   2.0000      -1.122554       -30.5463
   3   2.0000      -0.808250       -21.9936
   4   2.0000      -0.612079       -16.6555
   5   2.0000      -0.537138       -14.6163
   6   2.0000      -0.520971       -14.1763
   7   2.0000      -0.439885       -11.9699
   8   2.0000      -0.375894       -10.2286
   9   0.0000       0.082666         2.2495
  10   0.0000       0.123587         3.3630
  11   0.0000       0.150344         4.0911
  12   0.0000       0.169939         4.6243
  13   0.0000       0.191098         5.2000

MULLIKEN ATOMIC CHARGES
-----------------------
   0 C :   -0.000988
   1 O :    0.000041
   2 H :   -0.000015
   3 H :    0.000187
   4 H :   -0.001466
   5 H :   -0.000064
   6 C :   -0.157644
   7 O :   -0.487314
   8 H :    0.315940
   9 H :    0.107347
  10 H :    0.103961
  11 H :    0.120016
Sum of atomic charges:    0.0000000

LOEWDIN ATOMIC CHARGES
----------------------
   0 C :   -0.000981
   1 O :   -0.000323
   2 H :   -0.000077
   3 H :   -0.000013
   4 H :   -0.000822
   5 H :   -0.000016
   6 C :   -0.351338
   7 O :   -0.100959
   8 H :    0.170700
   9 H :    0.083961
  10 H :    0.090571
  11 H :    0.109296

  Mayer bond orders larger than 0.1
B(  6-C ,  7-O ) :   1.0003 B(  6-C ,  9-H ) :   0.9779 B(  6-C , 10-H ) :   0.9734
B(  6-C , 11-H ) :   0.9795 B(  7-O ,  8-H ) :   0.8966

Dispersion correction           -0.000269999
FINAL SINGLE POINT ENERGY      -115.730377492094

DIPOLE MOMENT
-------------
                                X             Y             Z
Electronic contribution:     -1.78703      -0.21364       0.33595
Nuclear contribution   :      2.21310      -0.24064      -0.68981
                        -----------------------------------------
Total Dipole Moment    :      0.42607      -0.45428      -0.35387
                        -----------------------------------------
Magnitude (a.u.)       :      0.71633
Magnitude (Debye)      :      1.82076

Rotational constants in cm-1:     4.656824     0.797378     0.764146
Rotational constants in MHz : 139608.059726 23904.784688 22908.526751

                             ****ORCA TERMINATED NORMALLY****
TOTAL RUN TIME: 0 days 0 hours 0 minutes 59 seconds 942 msec
