                         Program Version 4.1.2  - RELEASE  -
|  1> #Run DFT-D3 single point of the dimer
|  2> ! wB97X-D3 def2-TZVP TIGHTSCF CHELPG PMODEL PAL8
|  3>
|  4> %base "15-207_DFT_AB"
|  5>
|  6> %scf
|  7> MaxIter 1000
|  8> end
|  9>
| 10> * xyz 0 1
| 11>   C                      -3.792512            1.488583             -7.452187
| 12>   O                      -4.759811            2.049113             -8.376682
| 13>   H                      -4.986571            1.271547             -8.877913
| 14>   H                      -4.248719            0.778068             -6.799371
| 15>   H                      -2.845662            1.009647             -7.852309
| 16>   H                      -3.524249            2.327959             -6.747354
| 17>   C                      -6.713916            4.633181             -9.298199
| 18>   O                      -6.673973            4.227261             -7.932960
| 19>   H                      -5.894896            3.698962             -7.860099
| 20>   H                      -6.524925            3.883431             -10.035054
| 21>   H                      -7.675923            5.006068             -9.523393
| 22>   H                      -6.182964            5.551324             -9.587558
| 23> *
| 24>
| 25> #Run DFT-D3 single point of the molecule with dimer basis set
| 26> $new_job
| 27> %base "15-207_DFT_A"
| 28> ! wB97X-D3 def2-TZVP TIGHTSCF CHELPG PMODEL
| 29>
| 30> %scf
| 31> MaxIter 1000
| 32> end
| 33>
| 34> * xyz 0 1
| 35>   C                      -3.792512            1.488583             -7.452187
| 36>   O                      -4.759811            2.049113             -8.376682
| 37>   H                      -4.986571            1.271547             -8.877913
| 38>   H                      -4.248719            0.778068             -6.799371
| 39>   H                      -2.845662            1.009647             -7.852309
| 40>   H                      -3.524249            2.327959             -6.747354
| 41>   C                    : -6.713916            4.633181             -9.298199
| 42>   O                    : -6.673973            4.227261             -7.932960
| 43>   H                    : -5.894896            3.698962             -7.860099
| 44>   H                    : -6.524925            3.883431             -10.035054
| 45>   H                    : -7.675923            5.006068             -9.523393
| 46>   H                    : -6.182964            5.551324             -9.587558
| 47> *
| 48>
| 49> #Run DFT-D3 single point of the particle with dimer basis set
| 50> $new_job
| 51> %base "15-207_DFT_B"
| 52> ! wB97X-D3 def2-TZVP TIGHTSCF CHELPG PMODEL
| 53>
| 54> %scf
| 55> MaxIter 1000
| 56> end
| 57>
| 58> * xyz 0 1
| 59>   C                    : -3.792512            1.488583             -7.452187
| 60>   O                    : -4.759811            2.049113             -8.376682
| 61>   H                    : -4.986571            1.271547             -8.877913
| 62>   H                    : -4.248719            0.778068             -6.799371
| 63>   H                    : -2.845662            1.009647             -7.852309
| 64>   H                    : -3.524249            2.327959             -6.747354
| 65>   C                      -6.713916            4.633181             -9.298199
| 66>   O                      -6.673973            4.227261             -7.932960
| 67>   H                      -5.894896            3.698962             -7.860099
| 68>   H                      -6.524925            3.883431             -10.035054
| 69>   H                      -7.675923            5.006068             -9.523393
| 70>   H                      -6.182964            5.551324             -9.587558
| 71> *
| 72>
| 73>                          ****END OF INPUT****
 Total Charge           Charge          ....    0
 Multiplicity           Mult            ....    1
 Number of Electrons    NEL             ....   36
Dispersion correction           -0.001739851
FINAL SINGLE POINT ENERGY      -231.466319823688
Dispersion correction           -0.000261668
FINAL SINGLE POINT ENERGY      -115.730302316475

CARTESIAN COORDINATES (ANGSTROEM)
---------------------------------
  C     -3.792512    1.488583   -7.452187
  O     -4.759811    2.049113   -8.376682
  H     -4.986571    1.271547   -8.877913
  H     -4.248719    0.778068   -6.799371
  H     -2.845662    1.009647   -7.852309
  H     -3.524249    2.327959   -6.747354
  C     -6.713916    4.633181   -9.298199
  O     -6.673973    4.227261   -7.932960
  H     -5.894896    3.698962   -7.860099
  H     -6.524925    3.883431  -10.035054
  H     -7.675923    5.006068   -9.523393
  H     -6.182964    5.551324   -9.587558

 Multiplicity           Mult            ....    1
 Number of Electrons    NEL             ....   18
 Basis Dimension        Dim             ....  172

ORBITAL ENERGIES
----------------

  NO   OCC          E(Eh)            E(eV)
   0   2.0000     -19.236408      -523.4493
   1   2.0000     -10.307205      -280.4733
   2   2.0000      -1.140655       -31.0388
   3   2.0000      -0.806580       -21.9482
   4   2.0000      -0.614656       -16.7256
   5   2.0000      -0.543736       -14.7958
   6   2.0000      -0.523020       -14.2321
   7   2.0000      -0.441505       -12.0140
   8   2.0000      -0.378152       -10.2900
   9   0.0000       0.070172         1.9095
  10   0.0000       0.131429         3.5764
  11   0.0000       0.146949         3.9987
  12   0.0000       0.163648         4.4531
  13   0.0000       0.194704         5.2982

MULLIKEN ATOMIC CHARGES
-----------------------
   0 C :   -0.001512
   1 O :   -0.004238
   2 H :   -0.000145
   3 H :    0.000073
   4 H :    0.000003
   5 H :   -0.000346
   6 C :   -0.175632
   7 O :   -0.458275
   8 H :    0.312705
   9 H :    0.112601
  10 H :    0.117263
  11 H :    0.097504
Sum of atomic charges:   -0.0000000

LOEWDIN ATOMIC CHARGES
----------------------
   0 C :   -0.002320
   1 O :   -0.014744
   2 H :   -0.000848
   3 H :   -0.000053
   4 H :   -0.000037
   5 H :   -0.000440
   6 C :   -0.383636
   7 O :   -0.056462
   8 H :    0.164585
   9 H :    0.093102
  10 H :    0.102118
  11 H :    0.098736

  Mayer bond orders larger than 0.1
B(  6-C ,  7-O ) :   1.0091 B(  6-C ,  9-H ) :   0.9731 B(  6-C , 10-H ) :   0.9806
B(  6-C , 11-H ) :   0.9741 B(  7-O ,  8-H ) :   0.9122

Dispersion correction           -0.000264925
FINAL SINGLE POINT ENERGY      -115.729240108758

DIPOLE MOMENT
-------------
                                X             Y             Z
Electronic contribution:      0.03350      -0.60142       1.89262
Nuclear contribution   :      0.39836       0.43552      -2.39502
                        -----------------------------------------
Total Dipole Moment    :      0.43186      -0.16590      -0.50239
                        -----------------------------------------
Magnitude (a.u.)       :      0.68295
Magnitude (Debye)      :      1.73592

Rotational constants in cm-1:     4.664100     0.812067     0.783882
Rotational constants in MHz : 139826.214677 24345.151730 23500.203306

                             ****ORCA TERMINATED NORMALLY****
TOTAL RUN TIME: 0 days 0 hours 1 minutes 5 seconds 964 msec
