                         Program Version 4.1.2  - RELEASE  -
|  1> #Run DFT-D3 single point of the dimer
|  2> ! wB97X-D3 def2-TZVP TIGHTSCF CHELPG PMODEL PAL8
|  3>
|  4> %base "3-109_DFT_AB"
|  5>
|  6> %scf
|  7> MaxIter 1000
|  8> end
|  9>
| 10> * xyz 0 1
| 11>   C                      3.247965             -4.559031            -0.450661
| 12>   O                      3.082228             -5.100131            0.833028
| 13>   H                      3.428484             -4.516003            1.598931
| 14>   H                      2.833958             -5.230700            -1.176977
| 15>   H                      2.781872             -3.575299            -0.586808
| 16>   H                      4.333572             -4.378047            -0.637821
| 17>   C                      -0.671174            -5.214124            -0.869858
| 18>   O                      -1.115675            -3.858978            -0.718865
| 19>   H                      -0.623826            -3.269613            -1.312421
| 20>   H                      -0.459745            -5.446240            -1.955176
| 21>   H                      0.149292             -5.512162            -0.208505
| 22>   H                      -1.482645            -5.896220            -0.501619
| 23> *
| 24>
| 25> #Run DFT-D3 single point of the molecule with dimer basis set
| 26> $new_job
| 27> %base "3-109_DFT_A"
| 28> ! wB97X-D3 def2-TZVP TIGHTSCF CHELPG PMODEL
| 29>
| 30> %scf
| 31> MaxIter 1000
| 32> end
| 33>
| 34> * xyz 0 1
| 35>   C                      3.247965             -4.559031            -0.450661
| 36>   O                      3.082228             -5.100131            0.833028
| 37>   H                      3.428484             -4.516003            1.598931
| 38>   H                      2.833958             -5.230700            -1.176977
| 39>   H                      2.781872             -3.575299            -0.586808
| 40>   H                      4.333572             -4.378047            -0.637821
| 41>   C                    : -0.671174            -5.214124            -0.869858
| 42>   O                    : -1.115675            -3.858978            -0.718865
| 43>   H                    : -0.623826            -3.269613            -1.312421
| 44>   H                    : -0.459745            -5.446240            -1.955176
| 45>   H                    : 0.149292             -5.512162            -0.208505
| 46>   H                    : -1.482645            -5.896220            -0.501619
| 47> *
| 48>
| 49> #Run DFT-D3 single point of the particle with dimer basis set
| 50> $new_job
| 51> %base "3-109_DFT_B"
| 52> ! wB97X-D3 def2-TZVP TIGHTSCF CHELPG PMODEL
| 53>
| 54> %scf
| 55> MaxIter 1000
| 56> end
| 57>
| 58> * xyz 0 1
| 59>   C                    : 3.247965             -4.559031            -0.450661
| 60>   O                    : 3.082228             -5.100131            0.833028
| 61>   H                    : 3.428484             -4.516003            1.598931
| 62>   H                    : 2.833958             -5.230700            -1.176977
| 63>   H                    : 2.781872             -3.575299            -0.586808
| 64>   H                    : 4.333572             -4.378047            -0.637821
| 65>   C                      -0.671174            -5.214124            -0.869858
| 66>   O                      -1.115675            -3.858978            -0.718865
| 67>   H                      -0.623826            -3.269613            -1.312421
| 68>   H                      -0.459745            -5.446240            -1.955176
| 69>   H                      0.149292             -5.512162            -0.208505
| 70>   H                      -1.482645            -5.896220            -0.501619
| 71> *
| 72>
| 73>                          ****END OF INPUT****
 Total Charge           Charge          ....    0
 Multiplicity           Mult            ....    1
 Number of Electrons    NEL             ....   36
Dispersion correction           -0.001629454
FINAL SINGLE POINT ENERGY      -231.465624747020
Dispersion correction           -0.000258005
FINAL SINGLE POINT ENERGY      -115.731315361602

CARTESIAN COORDINATES (ANGSTROEM)
---------------------------------
  C      3.247965   -4.559031   -0.450661
  O      3.082228   -5.100131    0.833028
  H      3.428484   -4.516003    1.598931
  H      2.833958   -5.230700   -1.176977
  H      2.781872   -3.575299   -0.586808
  H      4.333572   -4.378047   -0.637821
  C     -0.671174   -5.214124   -0.869858
  O     -1.115675   -3.858978   -0.718865
  H     -0.623826   -3.269613   -1.312421
  H     -0.459745   -5.446240   -1.955176
  H      0.149292   -5.512162   -0.208505
  H     -1.482645   -5.896220   -0.501619

 Multiplicity           Mult            ....    1
 Number of Electrons    NEL             ....   18
 Basis Dimension        Dim             ....  172

ORBITAL ENERGIES
----------------

  NO   OCC          E(Eh)            E(eV)
   0   2.0000     -19.231780      -523.3233
   1   2.0000     -10.322017      -280.8764
   2   2.0000      -1.127042       -30.6684
   3   2.0000      -0.792588       -21.5674
   4   2.0000      -0.604064       -16.4374
   5   2.0000      -0.541670       -14.7396
   6   2.0000      -0.518974       -14.1220
   7   2.0000      -0.428708       -11.6657
   8   2.0000      -0.374211       -10.1828
   9   0.0000       0.078964         2.1487
  10   0.0000       0.119074         3.2402
  11   0.0000       0.146926         3.9981
  12   0.0000       0.161468         4.3938
  13   0.0000       0.191333         5.2064

MULLIKEN ATOMIC CHARGES
-----------------------
   0 C :    0.003766
   1 O :   -0.000407
   2 H :   -0.000022
   3 H :   -0.002355
   4 H :   -0.000882
   5 H :    0.000124
   6 C :   -0.176944
   7 O :   -0.478615
   8 H :    0.317452
   9 H :    0.106364
  10 H :    0.108122
  11 H :    0.123398
Sum of atomic charges:    0.0000000

LOEWDIN ATOMIC CHARGES
----------------------
   0 C :   -0.003052
   1 O :   -0.000686
   2 H :   -0.000049
   3 H :   -0.001429
   4 H :   -0.000442
   5 H :   -0.000017
   6 C :   -0.381533
   7 O :   -0.096889
   8 H :    0.171957
   9 H :    0.103433
  10 H :    0.095546
  11 H :    0.113161

  Mayer bond orders larger than 0.1
B(  6-C ,  7-O ) :   1.0078 B(  6-C ,  9-H ) :   0.9783 B(  6-C , 10-H ) :   0.9675
B(  6-C , 11-H ) :   0.9747 B(  7-O ,  8-H ) :   0.8959

Dispersion correction           -0.000275064
FINAL SINGLE POINT ENERGY      -115.732963857279

DIPOLE MOMENT
-------------
                                X             Y             Z
Electronic contribution:     -0.56739       1.74939       0.25945
Nuclear contribution   :      1.04908      -1.92900      -0.69023
                        -----------------------------------------
Total Dipole Moment    :      0.48169      -0.17962      -0.43078
                        -----------------------------------------
Magnitude (a.u.)       :      0.67072
Magnitude (Debye)      :      1.70483

Rotational constants in cm-1:     4.213849     0.803552     0.771029
Rotational constants in MHz : 126328.000597 24089.880542 23114.861015

                             ****ORCA TERMINATED NORMALLY****
TOTAL RUN TIME: 0 days 0 hours 5 minutes 59 seconds 526 msec
