                         Program Version 4.1.2  - RELEASE  -
|  1> #Run DFT-D3 single point of the dimer
|  2> ! wB97X-D3 def2-TZVP TIGHTSCF CHELPG PMODEL PAL8
|  3>
|  4> %base "4-82_DFT_AB"
|  5>
|  6> %scf
|  7> MaxIter 1000
|  8> end
|  9>
| 10> * xyz 0 1
| 11>   C                      10.523130            -2.639775            4.449714
| 12>   O                      9.637086             -1.623541            4.944725
| 13>   H                      10.235835            -1.029594            5.432499
| 14>   H                      10.169014            -3.207924            3.581402
| 15>   H                      11.577218            -2.300368            4.261550
| 16>   H                      10.573071            -3.466301            5.153517
| 17>   C                      7.940522             -5.132775            7.224020
| 18>   O                      6.873024             -4.272816            6.968114
| 19>   H                      7.133448             -3.716899            6.257355
| 20>   H                      8.893694             -4.602173            7.225351
| 21>   H                      7.774406             -5.545440            8.190793
| 22>   H                      8.003783             -5.947100            6.575534
| 23> *
| 24>
| 25> #Run DFT-D3 single point of the molecule with dimer basis set
| 26> $new_job
| 27> %base "4-82_DFT_A"
| 28> ! wB97X-D3 def2-TZVP TIGHTSCF CHELPG PMODEL
| 29>
| 30> %scf
| 31> MaxIter 1000
| 32> end
| 33>
| 34> * xyz 0 1
| 35>   C                      10.523130            -2.639775            4.449714
| 36>   O                      9.637086             -1.623541            4.944725
| 37>   H                      10.235835            -1.029594            5.432499
| 38>   H                      10.169014            -3.207924            3.581402
| 39>   H                      11.577218            -2.300368            4.261550
| 40>   H                      10.573071            -3.466301            5.153517
| 41>   C                    : 7.940522             -5.132775            7.224020
| 42>   O                    : 6.873024             -4.272816            6.968114
| 43>   H                    : 7.133448             -3.716899            6.257355
| 44>   H                    : 8.893694             -4.602173            7.225351
| 45>   H                    : 7.774406             -5.545440            8.190793
| 46>   H                    : 8.003783             -5.947100            6.575534
| 47> *
| 48>
| 49> #Run DFT-D3 single point of the particle with dimer basis set
| 50> $new_job
| 51> %base "4-82_DFT_B"
| 52> ! wB97X-D3 def2-TZVP TIGHTSCF CHELPG PMODEL
| 53>
| 54> %scf
| 55> MaxIter 1000
| 56> end
| 57>
| 58> * xyz 0 1
| 59>   C                    : 10.523130            -2.639775            4.449714
| 60>   O                    : 9.637086             -1.623541            4.944725
| 61>   H                    : 10.235835            -1.029594            5.432499
| 62>   H                    : 10.169014            -3.207924            3.581402
| 63>   H                    : 11.577218            -2.300368            4.261550
| 64>   H                    : 10.573071            -3.466301            5.153517
| 65>   C                      7.940522             -5.132775            7.224020
| 66>   O                      6.873024             -4.272816            6.968114
| 67>   H                      7.133448             -3.716899            6.257355
| 68>   H                      8.893694             -4.602173            7.225351
| 69>   H                      7.774406             -5.545440            8.190793
| 70>   H                      8.003783             -5.947100            6.575534
| 71> *
| 72>
| 73>                          ****END OF INPUT****
 Total Charge           Charge          ....    0
 Multiplicity           Mult            ....    1
 Number of Electrons    NEL             ....   36
Dispersion correction           -0.001292651
FINAL SINGLE POINT ENERGY      -231.466255572981
Dispersion correction           -0.000261416
FINAL SINGLE POINT ENERGY      -115.730099926943

CARTESIAN COORDINATES (ANGSTROEM)
---------------------------------
  C     10.523130   -2.639775    4.449714
  O      9.637086   -1.623541    4.944725
  H     10.235835   -1.029594    5.432499
  H     10.169014   -3.207924    3.581402
  H     11.577218   -2.300368    4.261550
  H     10.573071   -3.466301    5.153517
  C      7.940522   -5.132775    7.224020
  O      6.873024   -4.272816    6.968114
  H      7.133448   -3.716899    6.257355
  H      8.893694   -4.602173    7.225351
  H      7.774406   -5.545440    8.190793
  H      8.003783   -5.947100    6.575534

 Multiplicity           Mult            ....    1
 Number of Electrons    NEL             ....   18
 Basis Dimension        Dim             ....  172

ORBITAL ENERGIES
----------------

  NO   OCC          E(Eh)            E(eV)
   0   2.0000     -19.227040      -523.1943
   1   2.0000     -10.301175      -280.3092
   2   2.0000      -1.146298       -31.1923
   3   2.0000      -0.802899       -21.8480
   4   2.0000      -0.618379       -16.8269
   5   2.0000      -0.549535       -14.9536
   6   2.0000      -0.530316       -14.4306
   7   2.0000      -0.436072       -11.8661
   8   2.0000      -0.374666       -10.1952
   9   0.0000       0.071963         1.9582
  10   0.0000       0.126679         3.4471
  11   0.0000       0.151394         4.1196
  12   0.0000       0.162317         4.4169
  13   0.0000       0.191051         5.1988

MULLIKEN ATOMIC CHARGES
-----------------------
   0 C :    0.000219
   1 O :   -0.000006
   2 H :   -0.000005
   3 H :   -0.000066
   4 H :    0.000018
   5 H :   -0.000570
   6 C :   -0.151335
   7 O :   -0.468834
   8 H :    0.310013
   9 H :    0.097650
  10 H :    0.113612
  11 H :    0.099305
Sum of atomic charges:   -0.0000000

LOEWDIN ATOMIC CHARGES
----------------------
   0 C :   -0.000658
   1 O :   -0.000169
   2 H :   -0.000011
   3 H :   -0.000014
   4 H :   -0.000010
   5 H :   -0.001146
   6 C :   -0.386813
   7 O :   -0.050687
   8 H :    0.156203
   9 H :    0.096152
  10 H :    0.104053
  11 H :    0.083100

  Mayer bond orders larger than 0.1
B(  6-C ,  7-O ) :   1.0046 B(  6-C ,  9-H ) :   0.9849 B(  6-C , 10-H ) :   0.9795
B(  6-C , 11-H ) :   0.9735 B(  7-O ,  8-H ) :   0.9074

Dispersion correction           -0.000218252
FINAL SINGLE POINT ENERGY      -115.733894913749

DIPOLE MOMENT
-------------
                                X             Y             Z
Electronic contribution:     -1.44620       1.02878      -0.29455
Nuclear contribution   :      2.02779      -1.01527      -0.05274
                        -----------------------------------------
Total Dipole Moment    :      0.58159       0.01351      -0.34729
                        -----------------------------------------
Magnitude (a.u.)       :      0.67752
Magnitude (Debye)      :      1.72213

Rotational constants in cm-1:     4.509874     0.860444     0.826673
Rotational constants in MHz : 135202.606660 25795.447726 24783.032323

                             ****ORCA TERMINATED NORMALLY****
TOTAL RUN TIME: 0 days 0 hours 1 minutes 33 seconds 652 msec
