                         Program Version 4.1.2  - RELEASE  -
|  1> #Run DFT-D3 single point of the dimer
|  2> ! wB97X-D3 def2-TZVP TIGHTSCF CHELPG PMODEL PAL8
|  3>
|  4> %base "19-47_DFT_AB"
|  5>
|  6> %scf
|  7> MaxIter 1000
|  8> end
|  9>
| 10> * xyz 0 1
| 11>   C                      -5.106868            5.364977             4.076705
| 12>   O                      -4.860362            6.614453             3.509791
| 13>   H                      -4.817998            6.497377             2.536860
| 14>   H                      -6.164157            5.347365             4.411321
| 15>   H                      -4.952286            4.468046             3.431176
| 16>   H                      -4.499261            5.272901             4.938925
| 17>   C                      -3.991973            7.682110             0.307530
| 18>   O                      -4.418876            6.312322             0.390519
| 19>   H                      -3.885738            5.778613             -0.162751
| 20>   H                      -2.957614            7.755466             0.729680
| 21>   H                      -3.795129            7.844099             -0.789331
| 22>   H                      -4.612794            8.412655             0.832491
| 23> *
| 24>
| 25> #Run DFT-D3 single point of the molecule with dimer basis set
| 26> $new_job
| 27> %base "19-47_DFT_A"
| 28> ! wB97X-D3 def2-TZVP TIGHTSCF CHELPG PMODEL
| 29>
| 30> %scf
| 31> MaxIter 1000
| 32> end
| 33>
| 34> * xyz 0 1
| 35>   C                      -5.106868            5.364977             4.076705
| 36>   O                      -4.860362            6.614453             3.509791
| 37>   H                      -4.817998            6.497377             2.536860
| 38>   H                      -6.164157            5.347365             4.411321
| 39>   H                      -4.952286            4.468046             3.431176
| 40>   H                      -4.499261            5.272901             4.938925
| 41>   C                    : -3.991973            7.682110             0.307530
| 42>   O                    : -4.418876            6.312322             0.390519
| 43>   H                    : -3.885738            5.778613             -0.162751
| 44>   H                    : -2.957614            7.755466             0.729680
| 45>   H                    : -3.795129            7.844099             -0.789331
| 46>   H                    : -4.612794            8.412655             0.832491
| 47> *
| 48>
| 49> #Run DFT-D3 single point of the particle with dimer basis set
| 50> $new_job
| 51> %base "19-47_DFT_B"
| 52> ! wB97X-D3 def2-TZVP TIGHTSCF CHELPG PMODEL
| 53>
| 54> %scf
| 55> MaxIter 1000
| 56> end
| 57>
| 58> * xyz 0 1
| 59>   C                    : -5.106868            5.364977             4.076705
| 60>   O                    : -4.860362            6.614453             3.509791
| 61>   H                    : -4.817998            6.497377             2.536860
| 62>   H                    : -6.164157            5.347365             4.411321
| 63>   H                    : -4.952286            4.468046             3.431176
| 64>   H                    : -4.499261            5.272901             4.938925
| 65>   C                      -3.991973            7.682110             0.307530
| 66>   O                      -4.418876            6.312322             0.390519
| 67>   H                      -3.885738            5.778613             -0.162751
| 68>   H                      -2.957614            7.755466             0.729680
| 69>   H                      -3.795129            7.844099             -0.789331
| 70>   H                      -4.612794            8.412655             0.832491
| 71> *
| 72>
| 73>                          ****END OF INPUT****
 Total Charge           Charge          ....    0
 Multiplicity           Mult            ....    1
 Number of Electrons    NEL             ....   36
Dispersion correction           -0.001675460
FINAL SINGLE POINT ENERGY      -231.469239245881
Dispersion correction           -0.000245977
FINAL SINGLE POINT ENERGY      -115.733390924544

CARTESIAN COORDINATES (ANGSTROEM)
---------------------------------
  C     -5.106868    5.364977    4.076705
  O     -4.860362    6.614453    3.509791
  H     -4.817998    6.497377    2.536860
  H     -6.164157    5.347365    4.411321
  H     -4.952286    4.468046    3.431176
  H     -4.499261    5.272901    4.938925
  C     -3.991973    7.682110    0.307530
  O     -4.418876    6.312322    0.390519
  H     -3.885738    5.778613   -0.162751
  H     -2.957614    7.755466    0.729680
  H     -3.795129    7.844099   -0.789331
  H     -4.612794    8.412655    0.832491

 Multiplicity           Mult            ....    1
 Number of Electrons    NEL             ....   18
 Basis Dimension        Dim             ....  172

ORBITAL ENERGIES
----------------

  NO   OCC          E(Eh)            E(eV)
   0   2.0000     -19.224985      -523.1384
   1   2.0000     -10.323552      -280.9181
   2   2.0000      -1.132961       -30.8294
   3   2.0000      -0.794815       -21.6280
   4   2.0000      -0.608755       -16.5651
   5   2.0000      -0.543126       -14.7792
   6   2.0000      -0.524657       -14.2766
   7   2.0000      -0.433660       -11.8005
   8   2.0000      -0.366577        -9.9751
   9   0.0000       0.097822         2.6619
  10   0.0000       0.120203         3.2709
  11   0.0000       0.149822         4.0769
  12   0.0000       0.188163         5.1202
  13   0.0000       0.193136         5.2555

MULLIKEN ATOMIC CHARGES
-----------------------
   0 C :   -0.000380
   1 O :   -0.002701
   2 H :    0.003091
   3 H :   -0.000079
   4 H :   -0.001866
   5 H :   -0.000009
   6 C :   -0.175695
   7 O :   -0.480254
   8 H :    0.309717
   9 H :    0.103624
  10 H :    0.109610
  11 H :    0.134944
Sum of atomic charges:   -0.0000000

LOEWDIN ATOMIC CHARGES
----------------------
   0 C :   -0.001866
   1 O :   -0.001717
   2 H :   -0.021368
   3 H :   -0.000017
   4 H :   -0.000779
   5 H :   -0.000011
   6 C :   -0.366894
   7 O :   -0.071347
   8 H :    0.149774
   9 H :    0.099096
  10 H :    0.104903
  11 H :    0.110228

  Mayer bond orders larger than 0.1
B(  6-C ,  7-O ) :   0.9740 B(  6-C ,  9-H ) :   0.9764 B(  6-C , 10-H ) :   0.9818
B(  6-C , 11-H ) :   0.9687 B(  7-O ,  8-H ) :   0.9018

Dispersion correction           -0.000235935
FINAL SINGLE POINT ENERGY      -115.728112097432

DIPOLE MOMENT
-------------
                                X             Y             Z
Electronic contribution:     -0.85509      -1.55546       0.27133
Nuclear contribution   :      1.38414       1.78802      -0.66310
                        -----------------------------------------
Total Dipole Moment    :      0.52905       0.23255      -0.39177
                        -----------------------------------------
Magnitude (a.u.)       :      0.69818
Magnitude (Debye)      :      1.77464

Rotational constants in cm-1:     4.206148     0.815792     0.776674
Rotational constants in MHz : 126097.155513 24456.842954 23284.091742

                             ****ORCA TERMINATED NORMALLY****
TOTAL RUN TIME: 0 days 0 hours 0 minutes 45 seconds 290 msec
