                         Program Version 4.1.2  - RELEASE  -
|  1> #Run DFT-D3 single point of the dimer
|  2> ! wB97X-D3 def2-TZVP TIGHTSCF  CHELPG PAL8
|  3>
|  4> %base "88_charges"
|  5>
|  6> %scf
|  7> MaxIter 1000
|  8> end
|  9> %output
| 10>   Print[ P_Mayer ] 1
| 11>   Print[ P_NatPop ] 1
| 12>   Print[ P_Hirshfeld ] 1
| 13>   Print[ P_Mulliken ] 1
| 14>   Print [ P_Loewdin ] 1
| 15> end
| 16>
| 17> * xyz 0 1
| 18>   C                      8.005911             -8.001466            4.774255
| 19>   O                      7.809466             -7.574018            3.394217
| 20>   H                      8.173047             -6.650571            3.329624
| 21>   H                      7.423144             -7.369204            5.494751
| 22>   H                      7.626826             -9.041798            4.873923
| 23>   H                      9.106625             -8.005179            5.128215
| 24> *
| 25>
| 26>                          ****END OF INPUT****

CARTESIAN COORDINATES (ANGSTROEM)
---------------------------------
  C      8.005911   -8.001466    4.774255
  O      7.809466   -7.574018    3.394217
  H      8.173047   -6.650571    3.329624
  H      7.423144   -7.369204    5.494751
  H      7.626826   -9.041798    4.873923
  H      9.106625   -8.005179    5.128215

 Total Charge           Charge          ....    0
 Multiplicity           Mult            ....    1
 Number of Electrons    NEL             ....   18
 Basis Dimension        Dim             ....   86

ORBITAL ENERGIES
----------------

  NO   OCC          E(Eh)            E(eV)
   0   2.0000     -19.237138      -523.4691
   1   2.0000     -10.328276      -281.0467
   2   2.0000      -1.119170       -30.4542
   3   2.0000      -0.786556       -21.4033
   4   2.0000      -0.597617       -16.2620
   5   2.0000      -0.528697       -14.3866
   6   2.0000      -0.517908       -14.0930
   7   2.0000      -0.437215       -11.8972
   8   2.0000      -0.375349       -10.2138
   9   0.0000       0.111130         3.0240
  10   0.0000       0.145631         3.9628
  11   0.0000       0.194833         5.3017
  12   0.0000       0.199084         5.4174
  13   0.0000       0.218307         5.9404

MULLIKEN ATOMIC CHARGES
-----------------------
   0 C :   -0.176371
   1 O :   -0.475820
   2 H :    0.316252
   3 H :    0.105813
   4 H :    0.126251
   5 H :    0.103875
Sum of atomic charges:    0.0000000

LOEWDIN ATOMIC CHARGES
----------------------
   0 C :   -0.376331
   1 O :   -0.122308
   2 H :    0.185533
   3 H :    0.097711
   4 H :    0.111519
   5 H :    0.103877

  Mayer bond orders larger than 0.1
B(  0-C ,  1-O ) :   0.9997 B(  0-C ,  3-H ) :   0.9703 B(  0-C ,  4-H ) :   0.9726
B(  0-C ,  5-H ) :   0.9663 B(  1-O ,  2-H ) :   0.8958

Dispersion correction           -0.000288329
FINAL SINGLE POINT ENERGY      -115.731903013947

DIPOLE MOMENT
-------------
                                X             Y             Z
Electronic contribution:     -0.33022       0.41186      -1.83766
Nuclear contribution   :      0.61745      -0.02803       2.35394
                        -----------------------------------------
Total Dipole Moment    :      0.28723       0.38383       0.51628
                        -----------------------------------------
Magnitude (a.u.)       :      0.70453
Magnitude (Debye)      :      1.79078

Rotational constants in cm-1:     4.042806     0.779209     0.752079
Rotational constants in MHz : 121200.260714 23360.106938 22546.746804

                             ****ORCA TERMINATED NORMALLY****
TOTAL RUN TIME: 0 days 0 hours 0 minutes 41 seconds 188 msec
