                         Program Version 4.1.2  - RELEASE  -
|  1> #Run DFT-D3 single point of the dimer
|  2> ! wB97X-D3 def2-TZVP TIGHTSCF CHELPG PMODEL PAL8
|  3>
|  4> %base "12-172_DFT_AB"
|  5>
|  6> %scf
|  7> MaxIter 1000
|  8> end
|  9>
| 10> * xyz 0 1
| 11>   C                      -9.196187            -3.082035            -0.591072
| 12>   O                      -8.343621            -4.299736            -0.657139
| 13>   H                      -8.896011            -5.028144            -1.048682
| 14>   H                      -9.822898            -3.090126            -1.493331
| 15>   H                      -9.718043            -2.902600            0.356550
| 16>   H                      -8.586075            -2.208660            -0.610090
| 17>   C                      -6.737067            -1.854229            -3.519929
| 18>   O                      -7.192342            -3.164217            -3.769857
| 19>   H                      -7.496775            -3.389537            -2.879806
| 20>   H                      -6.681787            -1.336353            -4.565790
| 21>   H                      -7.464950            -1.145301            -2.982328
| 22>   H                      -5.778120            -1.870265            -3.005641
| 23> *
| 24>
| 25> #Run DFT-D3 single point of the molecule with dimer basis set
| 26> $new_job
| 27> %base "12-172_DFT_A"
| 28> ! wB97X-D3 def2-TZVP TIGHTSCF CHELPG PMODEL
| 29>
| 30> %scf
| 31> MaxIter 1000
| 32> end
| 33>
| 34> * xyz 0 1
| 35>   C                      -9.196187            -3.082035            -0.591072
| 36>   O                      -8.343621            -4.299736            -0.657139
| 37>   H                      -8.896011            -5.028144            -1.048682
| 38>   H                      -9.822898            -3.090126            -1.493331
| 39>   H                      -9.718043            -2.902600            0.356550
| 40>   H                      -8.586075            -2.208660            -0.610090
| 41>   C                    : -6.737067            -1.854229            -3.519929
| 42>   O                    : -7.192342            -3.164217            -3.769857
| 43>   H                    : -7.496775            -3.389537            -2.879806
| 44>   H                    : -6.681787            -1.336353            -4.565790
| 45>   H                    : -7.464950            -1.145301            -2.982328
| 46>   H                    : -5.778120            -1.870265            -3.005641
| 47> *
| 48>
| 49> #Run DFT-D3 single point of the particle with dimer basis set
| 50> $new_job
| 51> %base "12-172_DFT_B"
| 52> ! wB97X-D3 def2-TZVP TIGHTSCF CHELPG PMODEL
| 53>
| 54> %scf
| 55> MaxIter 1000
| 56> end
| 57>
| 58> * xyz 0 1
| 59>   C                    : -9.196187            -3.082035            -0.591072
| 60>   O                    : -8.343621            -4.299736            -0.657139
| 61>   H                    : -8.896011            -5.028144            -1.048682
| 62>   H                    : -9.822898            -3.090126            -1.493331
| 63>   H                    : -9.718043            -2.902600            0.356550
| 64>   H                    : -8.586075            -2.208660            -0.610090
| 65>   C                      -6.737067            -1.854229            -3.519929
| 66>   O                      -7.192342            -3.164217            -3.769857
| 67>   H                      -7.496775            -3.389537            -2.879806
| 68>   H                      -6.681787            -1.336353            -4.565790
| 69>   H                      -7.464950            -1.145301            -2.982328
| 70>   H                      -5.778120            -1.870265            -3.005641
| 71> *
| 72>
| 73>                          ****END OF INPUT****
 Total Charge           Charge          ....    0
 Multiplicity           Mult            ....    1
 Number of Electrons    NEL             ....   36
Dispersion correction           -0.002019570
FINAL SINGLE POINT ENERGY      -231.460764117787
Dispersion correction           -0.000279452
FINAL SINGLE POINT ENERGY      -115.727645228235

CARTESIAN COORDINATES (ANGSTROEM)
---------------------------------
  C     -9.196187   -3.082035   -0.591072
  O     -8.343621   -4.299736   -0.657139
  H     -8.896011   -5.028144   -1.048682
  H     -9.822898   -3.090126   -1.493331
  H     -9.718043   -2.902600    0.356550
  H     -8.586075   -2.208660   -0.610090
  C     -6.737067   -1.854229   -3.519929
  O     -7.192342   -3.164217   -3.769857
  H     -7.496775   -3.389537   -2.879806
  H     -6.681787   -1.336353   -4.565790
  H     -7.464950   -1.145301   -2.982328
  H     -5.778120   -1.870265   -3.005641

 Multiplicity           Mult            ....    1
 Number of Electrons    NEL             ....   18
 Basis Dimension        Dim             ....  172

ORBITAL ENERGIES
----------------

  NO   OCC          E(Eh)            E(eV)
   0   2.0000     -19.238130      -523.4961
   1   2.0000     -10.325544      -280.9723
   2   2.0000      -1.145840       -31.1799
   3   2.0000      -0.781888       -21.2762
   4   2.0000      -0.609724       -16.5914
   5   2.0000      -0.549621       -14.9559
   6   2.0000      -0.515485       -14.0271
   7   2.0000      -0.432159       -11.7597
   8   2.0000      -0.379031       -10.3140
   9   0.0000       0.068309         1.8588
  10   0.0000       0.133163         3.6236
  11   0.0000       0.142660         3.8820
  12   0.0000       0.173037         4.7086
  13   0.0000       0.178224         4.8497

MULLIKEN ATOMIC CHARGES
-----------------------
   0 C :   -0.004686
   1 O :    0.000716
   2 H :   -0.000029
   3 H :   -0.000281
   4 H :   -0.000092
   5 H :    0.000276
   6 C :   -0.191273
   7 O :   -0.446040
   8 H :    0.312723
   9 H :    0.114179
  10 H :    0.102634
  11 H :    0.111872
Sum of atomic charges:   -0.0000000

LOEWDIN ATOMIC CHARGES
----------------------
   0 C :   -0.005618
   1 O :   -0.003122
   2 H :   -0.000606
   3 H :   -0.001005
   4 H :   -0.000097
   5 H :   -0.001562
   6 C :   -0.415032
   7 O :   -0.067296
   8 H :    0.178827
   9 H :    0.120416
  10 H :    0.102108
  11 H :    0.092988

  Mayer bond orders larger than 0.1
B(  6-C ,  7-O ) :   1.0021 B(  6-C ,  9-H ) :   0.9741 B(  6-C , 10-H ) :   0.9659
B(  6-C , 11-H ) :   0.9706 B(  7-O ,  8-H ) :   0.9100

Dispersion correction           -0.000241587
FINAL SINGLE POINT ENERGY      -115.727673729873

DIPOLE MOMENT
-------------
                                X             Y             Z
Electronic contribution:     -0.48657      -1.84656      -0.36968
Nuclear contribution   :      0.46172       2.17891       0.99608
                        -----------------------------------------
Total Dipole Moment    :     -0.02485       0.33235       0.62640
                        -----------------------------------------
Magnitude (a.u.)       :      0.70954
Magnitude (Debye)      :      1.80351

Rotational constants in cm-1:     3.984207     0.835242     0.805287
Rotational constants in MHz : 119443.524233 25039.929652 24141.903276

                             ****ORCA TERMINATED NORMALLY****
TOTAL RUN TIME: 0 days 0 hours 1 minutes 11 seconds 532 msec
