                         Program Version 4.1.2  - RELEASE  -
|  1> #Run DFT-D3 single point of the dimer
|  2> ! wB97X-D3 def2-TZVP TIGHTSCF CHELPG PMODEL PAL8
|  3>
|  4> %base "6-157_DFT_AB"
|  5>
|  6> %scf
|  7> MaxIter 1000
|  8> end
|  9>
| 10> * xyz 0 1
| 11>   C                      6.703492             0.396091             5.305588
| 12>   O                      5.442587             0.726832             5.796296
| 13>   H                      4.738979             0.132312             5.362893
| 14>   H                      6.654158             0.514180             4.212192
| 15>   H                      7.419029             1.101467             5.651365
| 16>   H                      6.987095             -0.656286            5.527411
| 17>   C                      2.296306             -2.463585            5.965098
| 18>   O                      3.335485             -1.459262            6.217298
| 19>   H                      3.961326             -1.631534            6.948087
| 20>   H                      1.859094             -2.983333            6.852082
| 21>   H                      1.470109             -2.070292            5.401378
| 22>   H                      2.752099             -3.228727            5.416353
| 23> *
| 24>
| 25> #Run DFT-D3 single point of the molecule with dimer basis set
| 26> $new_job
| 27> %base "6-157_DFT_A"
| 28> ! wB97X-D3 def2-TZVP TIGHTSCF CHELPG PMODEL
| 29>
| 30> %scf
| 31> MaxIter 1000
| 32> end
| 33>
| 34> * xyz 0 1
| 35>   C                      6.703492             0.396091             5.305588
| 36>   O                      5.442587             0.726832             5.796296
| 37>   H                      4.738979             0.132312             5.362893
| 38>   H                      6.654158             0.514180             4.212192
| 39>   H                      7.419029             1.101467             5.651365
| 40>   H                      6.987095             -0.656286            5.527411
| 41>   C                    : 2.296306             -2.463585            5.965098
| 42>   O                    : 3.335485             -1.459262            6.217298
| 43>   H                    : 3.961326             -1.631534            6.948087
| 44>   H                    : 1.859094             -2.983333            6.852082
| 45>   H                    : 1.470109             -2.070292            5.401378
| 46>   H                    : 2.752099             -3.228727            5.416353
| 47> *
| 48>
| 49> #Run DFT-D3 single point of the particle with dimer basis set
| 50> $new_job
| 51> %base "6-157_DFT_B"
| 52> ! wB97X-D3 def2-TZVP TIGHTSCF CHELPG PMODEL
| 53>
| 54> %scf
| 55> MaxIter 1000
| 56> end
| 57>
| 58> * xyz 0 1
| 59>   C                    : 6.703492             0.396091             5.305588
| 60>   O                    : 5.442587             0.726832             5.796296
| 61>   H                    : 4.738979             0.132312             5.362893
| 62>   H                    : 6.654158             0.514180             4.212192
| 63>   H                    : 7.419029             1.101467             5.651365
| 64>   H                    : 6.987095             -0.656286            5.527411
| 65>   C                      2.296306             -2.463585            5.965098
| 66>   O                      3.335485             -1.459262            6.217298
| 67>   H                      3.961326             -1.631534            6.948087
| 68>   H                      1.859094             -2.983333            6.852082
| 69>   H                      1.470109             -2.070292            5.401378
| 70>   H                      2.752099             -3.228727            5.416353
| 71> *
| 72>
| 73>                          ****END OF INPUT****
 Total Charge           Charge          ....    0
 Multiplicity           Mult            ....    1
 Number of Electrons    NEL             ....   36
Dispersion correction           -0.001428866
FINAL SINGLE POINT ENERGY      -231.466124309279
Dispersion correction           -0.000227307
FINAL SINGLE POINT ENERGY      -115.732055104337

CARTESIAN COORDINATES (ANGSTROEM)
---------------------------------
  C      6.703492    0.396091    5.305588
  O      5.442587    0.726832    5.796296
  H      4.738979    0.132312    5.362893
  H      6.654158    0.514180    4.212192
  H      7.419029    1.101467    5.651365
  H      6.987095   -0.656286    5.527411
  C      2.296306   -2.463585    5.965098
  O      3.335485   -1.459262    6.217298
  H      3.961326   -1.631534    6.948087
  H      1.859094   -2.983333    6.852082
  H      1.470109   -2.070292    5.401378
  H      2.752099   -3.228727    5.416353

 Multiplicity           Mult            ....    1
 Number of Electrons    NEL             ....   18
 Basis Dimension        Dim             ....  172

ORBITAL ENERGIES
----------------

  NO   OCC          E(Eh)            E(eV)
   0   2.0000     -19.228275      -523.2280
   1   2.0000     -10.314356      -280.6679
   2   2.0000      -1.111444       -30.2439
   3   2.0000      -0.804916       -21.9029
   4   2.0000      -0.603055       -16.4100
   5   2.0000      -0.540260       -14.7012
   6   2.0000      -0.520376       -14.1602
   7   2.0000      -0.426933       -11.6174
   8   2.0000      -0.372810       -10.1447
   9   0.0000       0.091825         2.4987
  10   0.0000       0.124689         3.3930
  11   0.0000       0.146571         3.9884
  12   0.0000       0.190147         5.1742
  13   0.0000       0.200899         5.4667

MULLIKEN ATOMIC CHARGES
-----------------------
   0 C :   -0.000378
   1 O :    0.000220
   2 H :   -0.008551
   3 H :    0.000044
   4 H :   -0.000122
   5 H :   -0.000798
   6 C :   -0.158047
   7 O :   -0.501987
   8 H :    0.322391
   9 H :    0.101322
  10 H :    0.128748
  11 H :    0.117158
Sum of atomic charges:   -0.0000000

LOEWDIN ATOMIC CHARGES
----------------------
   0 C :   -0.001138
   1 O :   -0.002944
   2 H :   -0.020715
   3 H :   -0.000010
   4 H :   -0.000025
   5 H :   -0.000355
   6 C :   -0.338622
   7 O :   -0.107189
   8 H :    0.174800
   9 H :    0.101949
  10 H :    0.105663
  11 H :    0.088585

  Mayer bond orders larger than 0.1
B(  6-C ,  7-O ) :   0.9804 B(  6-C ,  9-H ) :   0.9693 B(  6-C , 10-H ) :   0.9723
B(  6-C , 11-H ) :   0.9820 B(  7-O ,  8-H ) :   0.8865

Dispersion correction           -0.000293663
FINAL SINGLE POINT ENERGY      -115.727536550134

DIPOLE MOMENT
-------------
                                X             Y             Z
Electronic contribution:      1.16908       1.33588       0.21084
Nuclear contribution   :     -1.23672      -1.92325       0.15020
                        -----------------------------------------
Total Dipole Moment    :     -0.06763      -0.58737       0.36104
                        -----------------------------------------
Magnitude (a.u.)       :      0.69276
Magnitude (Debye)      :      1.76087

Rotational constants in cm-1:     4.573308     0.769207     0.741968
Rotational constants in MHz : 137104.321487 23060.257929 22243.628070

                             ****ORCA TERMINATED NORMALLY****
TOTAL RUN TIME: 0 days 0 hours 1 minutes 2 seconds 685 msec
