                         Program Version 4.1.2  - RELEASE  -
|  1> #Run DFT-D3 single point of the dimer
|  2> ! wB97X-D3 def2-TZVP TIGHTSCF CHELPG PMODEL PAL8
|  3>
|  4> %base "11-61_DFT_AB"
|  5>
|  6> %scf
|  7> MaxIter 1000
|  8> end
|  9>
| 10> * xyz 0 1
| 11>   C                      0.029205             -3.305085            5.575801
| 12>   O                      -1.152025            -2.596991            5.492510
| 13>   H                      -0.980307            -2.042697            4.669758
| 14>   H                      0.889800             -2.641096            5.935441
| 15>   H                      -0.058726            -4.169142            6.203153
| 16>   H                      0.260555             -3.587206            4.550461
| 17>   C                      1.463543             -4.993512            8.717868
| 18>   O                      1.459707             -3.615025            8.438369
| 19>   H                      2.311640             -3.280222            8.110350
| 20>   H                      0.806054             -5.469183            8.034112
| 21>   H                      2.417977             -5.332903            8.555645
| 22>   H                      1.200727             -5.212282            9.774085
| 23> *
| 24>
| 25> #Run DFT-D3 single point of the molecule with dimer basis set
| 26> $new_job
| 27> %base "11-61_DFT_A"
| 28> ! wB97X-D3 def2-TZVP TIGHTSCF CHELPG PMODEL
| 29>
| 30> %scf
| 31> MaxIter 1000
| 32> end
| 33>
| 34> * xyz 0 1
| 35>   C                      0.029205             -3.305085            5.575801
| 36>   O                      -1.152025            -2.596991            5.492510
| 37>   H                      -0.980307            -2.042697            4.669758
| 38>   H                      0.889800             -2.641096            5.935441
| 39>   H                      -0.058726            -4.169142            6.203153
| 40>   H                      0.260555             -3.587206            4.550461
| 41>   C                    : 1.463543             -4.993512            8.717868
| 42>   O                    : 1.459707             -3.615025            8.438369
| 43>   H                    : 2.311640             -3.280222            8.110350
| 44>   H                    : 0.806054             -5.469183            8.034112
| 45>   H                    : 2.417977             -5.332903            8.555645
| 46>   H                    : 1.200727             -5.212282            9.774085
| 47> *
| 48>
| 49> #Run DFT-D3 single point of the particle with dimer basis set
| 50> $new_job
| 51> %base "11-61_DFT_B"
| 52> ! wB97X-D3 def2-TZVP TIGHTSCF CHELPG PMODEL
| 53>
| 54> %scf
| 55> MaxIter 1000
| 56> end
| 57>
| 58> * xyz 0 1
| 59>   C                    : 0.029205             -3.305085            5.575801
| 60>   O                    : -1.152025            -2.596991            5.492510
| 61>   H                    : -0.980307            -2.042697            4.669758
| 62>   H                    : 0.889800             -2.641096            5.935441
| 63>   H                    : -0.058726            -4.169142            6.203153
| 64>   H                    : 0.260555             -3.587206            4.550461
| 65>   C                      1.463543             -4.993512            8.717868
| 66>   O                      1.459707             -3.615025            8.438369
| 67>   H                      2.311640             -3.280222            8.110350
| 68>   H                      0.806054             -5.469183            8.034112
| 69>   H                      2.417977             -5.332903            8.555645
| 70>   H                      1.200727             -5.212282            9.774085
| 71> *
| 72>
| 73>                          ****END OF INPUT****
 Total Charge           Charge          ....    0
 Multiplicity           Mult            ....    1
 Number of Electrons    NEL             ....   36
Dispersion correction           -0.001816448
FINAL SINGLE POINT ENERGY      -231.457230541033
Dispersion correction           -0.000203093
FINAL SINGLE POINT ENERGY      -115.727915861668

CARTESIAN COORDINATES (ANGSTROEM)
---------------------------------
  C      0.029205   -3.305085    5.575801
  O     -1.152025   -2.596991    5.492510
  H     -0.980307   -2.042697    4.669758
  H      0.889800   -2.641096    5.935441
  H     -0.058726   -4.169142    6.203153
  H      0.260555   -3.587206    4.550461
  C      1.463543   -4.993512    8.717868
  O      1.459707   -3.615025    8.438369
  H      2.311640   -3.280222    8.110350
  H      0.806054   -5.469183    8.034112
  H      2.417977   -5.332903    8.555645
  H      1.200727   -5.212282    9.774085

 Multiplicity           Mult            ....    1
 Number of Electrons    NEL             ....   18
 Basis Dimension        Dim             ....  172

ORBITAL ENERGIES
----------------

  NO   OCC          E(Eh)            E(eV)
   0   2.0000     -19.225173      -523.1435
   1   2.0000     -10.303323      -280.3677
   2   2.0000      -1.131436       -30.7880
   3   2.0000      -0.801505       -21.8100
   4   2.0000      -0.615345       -16.7444
   5   2.0000      -0.547056       -14.8862
   6   2.0000      -0.532667       -14.4946
   7   2.0000      -0.424334       -11.5467
   8   2.0000      -0.371843       -10.1184
   9   0.0000       0.094219         2.5638
  10   0.0000       0.122803         3.3416
  11   0.0000       0.152951         4.1620
  12   0.0000       0.183135         4.9834
  13   0.0000       0.195548         5.3211

MULLIKEN ATOMIC CHARGES
-----------------------
   0 C :    0.006852
   1 O :   -0.000667
   2 H :   -0.000158
   3 H :   -0.012778
   4 H :    0.000004
   5 H :   -0.000340
   6 C :   -0.136612
   7 O :   -0.493633
   8 H :    0.321838
   9 H :    0.107011
  10 H :    0.103628
  11 H :    0.104856
Sum of atomic charges:   -0.0000000

LOEWDIN ATOMIC CHARGES
----------------------
   0 C :   -0.014168
   1 O :   -0.000046
   2 H :   -0.000034
   3 H :   -0.007266
   4 H :   -0.004553
   5 H :   -0.000147
   6 C :   -0.369024
   7 O :   -0.065056
   8 H :    0.175684
   9 H :    0.095545
  10 H :    0.082987
  11 H :    0.106078

  Mayer bond orders larger than 0.1
B(  6-C ,  7-O ) :   1.0022 B(  6-C ,  9-H ) :   0.9806 B(  6-C , 10-H ) :   0.9933
B(  6-C , 11-H ) :   0.9731 B(  7-O ,  8-H ) :   0.8916

Dispersion correction           -0.000232889
FINAL SINGLE POINT ENERGY      -115.729965330042

DIPOLE MOMENT
-------------
                                X             Y             Z
Electronic contribution:     -0.12705       1.65009      -0.30035
Nuclear contribution   :      0.73028      -2.01585       0.19602
                        -----------------------------------------
Total Dipole Moment    :      0.60323      -0.36576      -0.10433
                        -----------------------------------------
Magnitude (a.u.)       :      0.71313
Magnitude (Debye)      :      1.81263

Rotational constants in cm-1:     4.476901     0.838353     0.817571
Rotational constants in MHz : 134214.117352 25133.195602 24510.152497

                             ****ORCA TERMINATED NORMALLY****
TOTAL RUN TIME: 0 days 0 hours 1 minutes 8 seconds 919 msec
