                         Program Version 4.1.2  - RELEASE  -
|  1> #Run DFT-D3 single point of the dimer
|  2> ! wB97X-D3 def2-TZVP TIGHTSCF CHELPG PMODEL PAL8
|  3>
|  4> %base "6-81_DFT_AB"
|  5>
|  6> %scf
|  7> MaxIter 1000
|  8> end
|  9>
| 10> * xyz 0 1
| 11>   C                      -4.592135            -8.778354            -4.672863
| 12>   O                      -4.996036            -7.685713            -3.782804
| 13>   H                      -4.696775            -7.821721            -2.928204
| 14>   H                      -3.534098            -9.010149            -4.638917
| 15>   H                      -5.112055            -9.688766            -4.343416
| 16>   H                      -4.938609            -8.647915            -5.698391
| 17>   C                      -0.256012            -9.851537            -1.349977
| 18>   O                      -0.282630            -9.037021            -0.175052
| 19>   H                      -0.437417            -8.170426            -0.545344
| 20>   H                      -1.283493            -10.104946           -1.656995
| 21>   H                      0.322564             -9.305297            -2.135499
| 22>   H                      0.330582             -10.797342           -1.153834
| 23> *
| 24>
| 25> #Run DFT-D3 single point of the molecule with dimer basis set
| 26> $new_job
| 27> %base "6-81_DFT_A"
| 28> ! wB97X-D3 def2-TZVP TIGHTSCF CHELPG PMODEL
| 29>
| 30> %scf
| 31> MaxIter 1000
| 32> end
| 33>
| 34> * xyz 0 1
| 35>   C                      -4.592135            -8.778354            -4.672863
| 36>   O                      -4.996036            -7.685713            -3.782804
| 37>   H                      -4.696775            -7.821721            -2.928204
| 38>   H                      -3.534098            -9.010149            -4.638917
| 39>   H                      -5.112055            -9.688766            -4.343416
| 40>   H                      -4.938609            -8.647915            -5.698391
| 41>   C                    : -0.256012            -9.851537            -1.349977
| 42>   O                    : -0.282630            -9.037021            -0.175052
| 43>   H                    : -0.437417            -8.170426            -0.545344
| 44>   H                    : -1.283493            -10.104946           -1.656995
| 45>   H                    : 0.322564             -9.305297            -2.135499
| 46>   H                    : 0.330582             -10.797342           -1.153834
| 47> *
| 48>
| 49> #Run DFT-D3 single point of the particle with dimer basis set
| 50> $new_job
| 51> %base "6-81_DFT_B"
| 52> ! wB97X-D3 def2-TZVP TIGHTSCF CHELPG PMODEL
| 53>
| 54> %scf
| 55> MaxIter 1000
| 56> end
| 57>
| 58> * xyz 0 1
| 59>   C                    : -4.592135            -8.778354            -4.672863
| 60>   O                    : -4.996036            -7.685713            -3.782804
| 61>   H                    : -4.696775            -7.821721            -2.928204
| 62>   H                    : -3.534098            -9.010149            -4.638917
| 63>   H                    : -5.112055            -9.688766            -4.343416
| 64>   H                    : -4.938609            -8.647915            -5.698391
| 65>   C                      -0.256012            -9.851537            -1.349977
| 66>   O                      -0.282630            -9.037021            -0.175052
| 67>   H                      -0.437417            -8.170426            -0.545344
| 68>   H                      -1.283493            -10.104946           -1.656995
| 69>   H                      0.322564             -9.305297            -2.135499
| 70>   H                      0.330582             -10.797342           -1.153834
| 71> *
| 72>
| 73>                          ****END OF INPUT****
 Total Charge           Charge          ....    0
 Multiplicity           Mult            ....    1
 Number of Electrons    NEL             ....   36
Dispersion correction           -0.000716056
FINAL SINGLE POINT ENERGY      -231.463710637681
Dispersion correction           -0.000267042
FINAL SINGLE POINT ENERGY      -115.730340516643

CARTESIAN COORDINATES (ANGSTROEM)
---------------------------------
  C     -4.592135   -8.778354   -4.672863
  O     -4.996036   -7.685713   -3.782804
  H     -4.696775   -7.821721   -2.928204
  H     -3.534098   -9.010149   -4.638917
  H     -5.112055   -9.688766   -4.343416
  H     -4.938609   -8.647915   -5.698391
  C     -0.256012   -9.851537   -1.349977
  O     -0.282630   -9.037021   -0.175052
  H     -0.437417   -8.170426   -0.545344
  H     -1.283493  -10.104946   -1.656995
  H      0.322564   -9.305297   -2.135499
  H      0.330582  -10.797342   -1.153834

 Multiplicity           Mult            ....    1
 Number of Electrons    NEL             ....   18
 Basis Dimension        Dim             ....  172

ORBITAL ENERGIES
----------------

  NO   OCC          E(Eh)            E(eV)
   0   2.0000     -19.229834      -523.2704
   1   2.0000     -10.321957      -280.8747
   2   2.0000      -1.136479       -30.9252
   3   2.0000      -0.787068       -21.4172
   4   2.0000      -0.603357       -16.4182
   5   2.0000      -0.546927       -14.8826
   6   2.0000      -0.520937       -14.1754
   7   2.0000      -0.434367       -11.8197
   8   2.0000      -0.375444       -10.2163
   9   0.0000       0.079290         2.1576
  10   0.0000       0.114204         3.1076
  11   0.0000       0.151587         4.1249
  12   0.0000       0.159871         4.3503
  13   0.0000       0.186086         5.0637

MULLIKEN ATOMIC CHARGES
-----------------------
   0 C :    0.000064
   1 O :    0.000003
   2 H :   -0.000003
   3 H :   -0.000203
   4 H :   -0.000012
   5 H :   -0.000006
   6 C :   -0.173652
   7 O :   -0.463363
   8 H :    0.312798
   9 H :    0.103999
  10 H :    0.102788
  11 H :    0.117587
Sum of atomic charges:   -0.0000000

LOEWDIN ATOMIC CHARGES
----------------------
   0 C :   -0.000065
   1 O :   -0.000001
   2 H :   -0.000011
   3 H :   -0.000100
   4 H :   -0.000004
   5 H :   -0.000001
   6 C :   -0.384498
   7 O :   -0.090164
   8 H :    0.166386
   9 H :    0.095536
  10 H :    0.099870
  11 H :    0.113052

  Mayer bond orders larger than 0.1
B(  6-C ,  7-O ) :   0.9993 B(  6-C ,  9-H ) :   0.9706 B(  6-C , 10-H ) :   0.9846
B(  6-C , 11-H ) :   0.9716 B(  7-O ,  8-H ) :   0.9046

Dispersion correction           -0.000231830
FINAL SINGLE POINT ENERGY      -115.733290348474

DIPOLE MOMENT
-------------
                                X             Y             Z
Electronic contribution:     -0.08345       0.89528       1.58070
Nuclear contribution   :      0.01385      -0.67747      -2.26806
                        -----------------------------------------
Total Dipole Moment    :     -0.06960       0.21781      -0.68736
                        -----------------------------------------
Magnitude (a.u.)       :      0.72440
Magnitude (Debye)      :      1.84127

Rotational constants in cm-1:     4.053606     0.821956     0.796620
Rotational constants in MHz : 121524.036637 24641.627311 23882.065465

                             ****ORCA TERMINATED NORMALLY****
TOTAL RUN TIME: 0 days 0 hours 1 minutes 2 seconds 656 msec
