                         Program Version 4.1.2  - RELEASE  -
|  1> #Run DFT-D3 single point of the dimer
|  2> ! wB97X-D3 def2-TZVP TIGHTSCF CHELPG PMODEL PAL8
|  3>
|  4> %base "12-56_DFT_AB"
|  5>
|  6> %scf
|  7> MaxIter 1000
|  8> end
|  9>
| 10> * xyz 0 1
| 11>   C                      1.228255             8.850175             -3.515345
| 12>   O                      1.191600             8.715200             -2.081027
| 13>   H                      0.242599             8.844409             -1.860280
| 14>   H                      1.453714             9.811640             -3.993332
| 15>   H                      1.787758             7.990946             -3.923253
| 16>   H                      0.282204             8.617246             -3.914783
| 17>   C                      1.651800             10.215706            -8.233508
| 18>   O                      1.791856             10.275568            -6.868398
| 19>   H                      0.984907             10.711210            -6.547303
| 20>   H                      0.706257             10.062585            -8.627706
| 21>   H                      2.119570             11.031810            -8.745449
| 22>   H                      2.253994             9.375002             -8.615722
| 23> *
| 24>
| 25> #Run DFT-D3 single point of the molecule with dimer basis set
| 26> $new_job
| 27> %base "12-56_DFT_A"
| 28> ! wB97X-D3 def2-TZVP TIGHTSCF CHELPG PMODEL
| 29>
| 30> %scf
| 31> MaxIter 1000
| 32> end
| 33>
| 34> * xyz 0 1
| 35>   C                      1.228255             8.850175             -3.515345
| 36>   O                      1.191600             8.715200             -2.081027
| 37>   H                      0.242599             8.844409             -1.860280
| 38>   H                      1.453714             9.811640             -3.993332
| 39>   H                      1.787758             7.990946             -3.923253
| 40>   H                      0.282204             8.617246             -3.914783
| 41>   C                    : 1.651800             10.215706            -8.233508
| 42>   O                    : 1.791856             10.275568            -6.868398
| 43>   H                    : 0.984907             10.711210            -6.547303
| 44>   H                    : 0.706257             10.062585            -8.627706
| 45>   H                    : 2.119570             11.031810            -8.745449
| 46>   H                    : 2.253994             9.375002             -8.615722
| 47> *
| 48>
| 49> #Run DFT-D3 single point of the particle with dimer basis set
| 50> $new_job
| 51> %base "12-56_DFT_B"
| 52> ! wB97X-D3 def2-TZVP TIGHTSCF CHELPG PMODEL
| 53>
| 54> %scf
| 55> MaxIter 1000
| 56> end
| 57>
| 58> * xyz 0 1
| 59>   C                    : 1.228255             8.850175             -3.515345
| 60>   O                    : 1.191600             8.715200             -2.081027
| 61>   H                    : 0.242599             8.844409             -1.860280
| 62>   H                    : 1.453714             9.811640             -3.993332
| 63>   H                    : 1.787758             7.990946             -3.923253
| 64>   H                    : 0.282204             8.617246             -3.914783
| 65>   C                      1.651800             10.215706            -8.233508
| 66>   O                      1.791856             10.275568            -6.868398
| 67>   H                      0.984907             10.711210            -6.547303
| 68>   H                      0.706257             10.062585            -8.627706
| 69>   H                      2.119570             11.031810            -8.745449
| 70>   H                      2.253994             9.375002             -8.615722
| 71> *
| 72>
| 73>                          ****END OF INPUT****
 Total Charge           Charge          ....    0
 Multiplicity           Mult            ....    1
 Number of Electrons    NEL             ....   36
Dispersion correction           -0.001245172
FINAL SINGLE POINT ENERGY      -231.456464829981
Dispersion correction           -0.000258969
FINAL SINGLE POINT ENERGY      -115.725760498522

CARTESIAN COORDINATES (ANGSTROEM)
---------------------------------
  C      1.228255    8.850175   -3.515345
  O      1.191600    8.715200   -2.081027
  H      0.242599    8.844409   -1.860280
  H      1.453714    9.811640   -3.993332
  H      1.787758    7.990946   -3.923253
  H      0.282204    8.617246   -3.914783
  C      1.651800   10.215706   -8.233508
  O      1.791856   10.275568   -6.868398
  H      0.984907   10.711210   -6.547303
  H      0.706257   10.062585   -8.627706
  H      2.119570   11.031810   -8.745449
  H      2.253994    9.375002   -8.615722

 Multiplicity           Mult            ....    1
 Number of Electrons    NEL             ....   18
 Basis Dimension        Dim             ....  172

ORBITAL ENERGIES
----------------

  NO   OCC          E(Eh)            E(eV)
   0   2.0000     -19.235097      -523.4136
   1   2.0000     -10.299986      -280.2769
   2   2.0000      -1.150263       -31.3002
   3   2.0000      -0.800090       -21.7715
   4   2.0000      -0.623832       -16.9753
   5   2.0000      -0.548244       -14.9185
   6   2.0000      -0.529744       -14.4151
   7   2.0000      -0.436979       -11.8908
   8   2.0000      -0.372223       -10.1287
   9   0.0000       0.088859         2.4180
  10   0.0000       0.121711         3.3119
  11   0.0000       0.153944         4.1890
  12   0.0000       0.181836         4.9480
  13   0.0000       0.200337         5.4514

MULLIKEN ATOMIC CHARGES
-----------------------
   0 C :   -0.000908
   1 O :   -0.000096
   2 H :   -0.000016
   3 H :   -0.002107
   4 H :   -0.000754
   5 H :   -0.000956
   6 C :   -0.171545
   7 O :   -0.452607
   8 H :    0.318933
   9 H :    0.106974
  10 H :    0.096144
  11 H :    0.106939
Sum of atomic charges:    0.0000000

LOEWDIN ATOMIC CHARGES
----------------------
   0 C :   -0.004504
   1 O :   -0.000031
   2 H :   -0.000014
   3 H :   -0.002838
   4 H :   -0.000423
   5 H :   -0.000456
   6 C :   -0.418939
   7 O :   -0.040520
   8 H :    0.183475
   9 H :    0.082670
  10 H :    0.091027
  11 H :    0.110554

  Mayer bond orders larger than 0.1
B(  6-C ,  7-O ) :   1.0178 B(  6-C ,  9-H ) :   0.9776 B(  6-C , 10-H ) :   0.9775
B(  6-C , 11-H ) :   0.9807 B(  7-O ,  8-H ) :   0.8949

Dispersion correction           -0.000228963
FINAL SINGLE POINT ENERGY      -115.730090401118

DIPOLE MOMENT
-------------
                                X             Y             Z
Electronic contribution:      0.13125       0.09217       1.90414
Nuclear contribution   :     -0.70604       0.14875      -2.22170
                        -----------------------------------------
Total Dipole Moment    :     -0.57479       0.24092      -0.31756
                        -----------------------------------------
Magnitude (a.u.)       :      0.69948
Magnitude (Debye)      :      1.77793

Rotational constants in cm-1:     4.552064     0.870233     0.835040
Rotational constants in MHz : 136467.458483 26088.919520 25033.867957

                             ****ORCA TERMINATED NORMALLY****
TOTAL RUN TIME: 0 days 0 hours 1 minutes 1 seconds 174 msec
