                         Program Version 4.1.2  - RELEASE  -
|  1> #Run DFT-D3 single point of the dimer
|  2> ! wB97X-D3 def2-TZVP TIGHTSCF CHELPG PMODEL PAL8
|  3>
|  4> %base "9-45_DFT_AB"
|  5>
|  6> %scf
|  7> MaxIter 1000
|  8> end
|  9>
| 10> * xyz 0 1
| 11>   C                      -2.321207            -5.271564            -0.117392
| 12>   O                      -1.699948            -4.236620            -0.812064
| 13>   H                      -1.067507            -3.804357            -0.260356
| 14>   H                      -3.067091            -5.682834            -0.736439
| 15>   H                      -1.643910            -6.077927            0.202816
| 16>   H                      -2.851049            -4.806668            0.717258
| 17>   C                      1.679776             -3.546201            0.676951
| 18>   O                      0.715683             -2.560960            0.566006
| 19>   H                      1.174141             -1.743596            0.382833
| 20>   H                      2.370658             -3.287889            1.424318
| 21>   H                      1.297961             -4.499157            0.996631
| 22>   H                      2.239425             -3.799190            -0.274607
| 23> *
| 24>
| 25> #Run DFT-D3 single point of the molecule with dimer basis set
| 26> $new_job
| 27> %base "9-45_DFT_A"
| 28> ! wB97X-D3 def2-TZVP TIGHTSCF CHELPG PMODEL
| 29>
| 30> %scf
| 31> MaxIter 1000
| 32> end
| 33>
| 34> * xyz 0 1
| 35>   C                      -2.321207            -5.271564            -0.117392
| 36>   O                      -1.699948            -4.236620            -0.812064
| 37>   H                      -1.067507            -3.804357            -0.260356
| 38>   H                      -3.067091            -5.682834            -0.736439
| 39>   H                      -1.643910            -6.077927            0.202816
| 40>   H                      -2.851049            -4.806668            0.717258
| 41>   C                    : 1.679776             -3.546201            0.676951
| 42>   O                    : 0.715683             -2.560960            0.566006
| 43>   H                    : 1.174141             -1.743596            0.382833
| 44>   H                    : 2.370658             -3.287889            1.424318
| 45>   H                    : 1.297961             -4.499157            0.996631
| 46>   H                    : 2.239425             -3.799190            -0.274607
| 47> *
| 48>
| 49> #Run DFT-D3 single point of the particle with dimer basis set
| 50> $new_job
| 51> %base "9-45_DFT_B"
| 52> ! wB97X-D3 def2-TZVP TIGHTSCF CHELPG PMODEL
| 53>
| 54> %scf
| 55> MaxIter 1000
| 56> end
| 57>
| 58> * xyz 0 1
| 59>   C                    : -2.321207            -5.271564            -0.117392
| 60>   O                    : -1.699948            -4.236620            -0.812064
| 61>   H                    : -1.067507            -3.804357            -0.260356
| 62>   H                    : -3.067091            -5.682834            -0.736439
| 63>   H                    : -1.643910            -6.077927            0.202816
| 64>   H                    : -2.851049            -4.806668            0.717258
| 65>   C                      1.679776             -3.546201            0.676951
| 66>   O                      0.715683             -2.560960            0.566006
| 67>   H                      1.174141             -1.743596            0.382833
| 68>   H                      2.370658             -3.287889            1.424318
| 69>   H                      1.297961             -4.499157            0.996631
| 70>   H                      2.239425             -3.799190            -0.274607
| 71> *
| 72>
| 73>                          ****END OF INPUT****
 Total Charge           Charge          ....    0
 Multiplicity           Mult            ....    1
 Number of Electrons    NEL             ....   36
Dispersion correction           -0.001611593
FINAL SINGLE POINT ENERGY      -231.473232218856
Dispersion correction           -0.000224301
FINAL SINGLE POINT ENERGY      -115.734829462297

CARTESIAN COORDINATES (ANGSTROEM)
---------------------------------
  C     -2.321207   -5.271564   -0.117392
  O     -1.699948   -4.236620   -0.812064
  H     -1.067507   -3.804357   -0.260356
  H     -3.067091   -5.682834   -0.736439
  H     -1.643910   -6.077927    0.202816
  H     -2.851049   -4.806668    0.717258
  C      1.679776   -3.546201    0.676951
  O      0.715683   -2.560960    0.566006
  H      1.174141   -1.743596    0.382833
  H      2.370658   -3.287889    1.424318
  H      1.297961   -4.499157    0.996631
  H      2.239425   -3.799190   -0.274607

 Multiplicity           Mult            ....    1
 Number of Electrons    NEL             ....   18
 Basis Dimension        Dim             ....  172

ORBITAL ENERGIES
----------------

  NO   OCC          E(Eh)            E(eV)
   0   2.0000     -19.232917      -523.3543
   1   2.0000     -10.307147      -280.4717
   2   2.0000      -1.149347       -31.2753
   3   2.0000      -0.798684       -21.7333
   4   2.0000      -0.618380       -16.8270
   5   2.0000      -0.547535       -14.8992
   6   2.0000      -0.534545       -14.5457
   7   2.0000      -0.430422       -11.7124
   8   2.0000      -0.374659       -10.1950
   9   0.0000       0.096013         2.6127
  10   0.0000       0.121216         3.2985
  11   0.0000       0.152844         4.1591
  12   0.0000       0.189874         5.1667
  13   0.0000       0.195819         5.3285

MULLIKEN ATOMIC CHARGES
-----------------------
   0 C :   -0.000153
   1 O :   -0.001186
   2 H :   -0.003592
   3 H :   -0.000016
   4 H :   -0.000078
   5 H :   -0.000113
   6 C :   -0.165907
   7 O :   -0.458431
   8 H :    0.314536
   9 H :    0.107716
  10 H :    0.116175
  11 H :    0.091049
Sum of atomic charges:    0.0000000

LOEWDIN ATOMIC CHARGES
----------------------
   0 C :   -0.000416
   1 O :   -0.001665
   2 H :   -0.016653
   3 H :   -0.000003
   4 H :   -0.000189
   5 H :   -0.000022
   6 C :   -0.409994
   7 O :   -0.033548
   8 H :    0.170913
   9 H :    0.087185
  10 H :    0.104959
  11 H :    0.099434

  Mayer bond orders larger than 0.1
B(  6-C ,  7-O ) :   0.9988 B(  6-C ,  9-H ) :   0.9800 B(  6-C , 10-H ) :   0.9757
B(  6-C , 11-H ) :   0.9725 B(  7-O ,  8-H ) :   0.8973

Dispersion correction           -0.000231744
FINAL SINGLE POINT ENERGY      -115.732609820478

DIPOLE MOMENT
-------------
                                X             Y             Z
Electronic contribution:     -1.44341       1.27965      -0.09280
Nuclear contribution   :      2.09696      -1.13804       0.06065
                        -----------------------------------------
Total Dipole Moment    :      0.65355       0.14161      -0.03215
                        -----------------------------------------
Magnitude (a.u.)       :      0.66949
Magnitude (Debye)      :      1.70171

Rotational constants in cm-1:     4.482342     0.851573     0.827358
Rotational constants in MHz : 134377.226919 25529.505066 24803.575501

                             ****ORCA TERMINATED NORMALLY****
TOTAL RUN TIME: 0 days 0 hours 0 minutes 44 seconds 854 msec
