                         Program Version 4.1.2  - RELEASE  -
|  1> #Run DFT-D3 single point of the dimer
|  2> ! wB97X-D3 def2-TZVP TIGHTSCF CHELPG PMODEL PAL8
|  3>
|  4> %base "1-104_DFT_AB"
|  5>
|  6> %scf
|  7> MaxIter 1000
|  8> end
|  9>
| 10> * xyz 0 1
| 11>   C                      -0.021919            8.009453             2.783988
| 12>   O                      -0.528219            7.199774             3.833651
| 13>   H                      0.125578             6.504699             4.084652
| 14>   H                      0.915588             8.444604             3.152632
| 15>   H                      0.145282             7.447361             1.830952
| 16>   H                      -0.773289            8.872872             2.476492
| 17>   C                      -0.240587            10.641804            7.865057
| 18>   O                      0.666583             10.079060            8.810300
| 19>   H                      1.484784             10.337458            8.448530
| 20>   H                      -0.117658            10.286621            6.892133
| 21>   H                      -1.280444            10.364790            8.099353
| 22>   H                      -0.135803            11.692860            7.881449
| 23> *
| 24>
| 25> #Run DFT-D3 single point of the molecule with dimer basis set
| 26> $new_job
| 27> %base "1-104_DFT_A"
| 28> ! wB97X-D3 def2-TZVP TIGHTSCF CHELPG PMODEL
| 29>
| 30> %scf
| 31> MaxIter 1000
| 32> end
| 33>
| 34> * xyz 0 1
| 35>   C                      -0.021919            8.009453             2.783988
| 36>   O                      -0.528219            7.199774             3.833651
| 37>   H                      0.125578             6.504699             4.084652
| 38>   H                      0.915588             8.444604             3.152632
| 39>   H                      0.145282             7.447361             1.830952
| 40>   H                      -0.773289            8.872872             2.476492
| 41>   C                    : -0.240587            10.641804            7.865057
| 42>   O                    : 0.666583             10.079060            8.810300
| 43>   H                    : 1.484784             10.337458            8.448530
| 44>   H                    : -0.117658            10.286621            6.892133
| 45>   H                    : -1.280444            10.364790            8.099353
| 46>   H                    : -0.135803            11.692860            7.881449
| 47> *
| 48>
| 49> #Run DFT-D3 single point of the particle with dimer basis set
| 50> $new_job
| 51> %base "1-104_DFT_B"
| 52> ! wB97X-D3 def2-TZVP TIGHTSCF CHELPG PMODEL
| 53>
| 54> %scf
| 55> MaxIter 1000
| 56> end
| 57>
| 58> * xyz 0 1
| 59>   C                    : -0.021919            8.009453             2.783988
| 60>   O                    : -0.528219            7.199774             3.833651
| 61>   H                    : 0.125578             6.504699             4.084652
| 62>   H                    : 0.915588             8.444604             3.152632
| 63>   H                    : 0.145282             7.447361             1.830952
| 64>   H                    : -0.773289            8.872872             2.476492
| 65>   C                      -0.240587            10.641804            7.865057
| 66>   O                      0.666583             10.079060            8.810300
| 67>   H                      1.484784             10.337458            8.448530
| 68>   H                      -0.117658            10.286621            6.892133
| 69>   H                      -1.280444            10.364790            8.099353
| 70>   H                      -0.135803            11.692860            7.881449
| 71> *
| 72>
| 73>                          ****END OF INPUT****
 Total Charge           Charge          ....    0
 Multiplicity           Mult            ....    1
 Number of Electrons    NEL             ....   36
Dispersion correction           -0.000653234
FINAL SINGLE POINT ENERGY      -231.460511070495
Dispersion correction           -0.000261686
FINAL SINGLE POINT ENERGY      -115.729172643896

CARTESIAN COORDINATES (ANGSTROEM)
---------------------------------
  C     -0.021919    8.009453    2.783988
  O     -0.528219    7.199774    3.833651
  H      0.125578    6.504699    4.084652
  H      0.915588    8.444604    3.152632
  H      0.145282    7.447361    1.830952
  H     -0.773289    8.872872    2.476492
  C     -0.240587   10.641804    7.865057
  O      0.666583   10.079060    8.810300
  H      1.484784   10.337458    8.448530
  H     -0.117658   10.286621    6.892133
  H     -1.280444   10.364790    8.099353
  H     -0.135803   11.692860    7.881449

 Multiplicity           Mult            ....    1
 Number of Electrons    NEL             ....   18
 Basis Dimension        Dim             ....  172

ORBITAL ENERGIES
----------------

  NO   OCC          E(Eh)            E(eV)
   0   2.0000     -19.228204      -523.2260
   1   2.0000     -10.305195      -280.4186
   2   2.0000      -1.142721       -31.0950
   3   2.0000      -0.802460       -21.8360
   4   2.0000      -0.611660       -16.6441
   5   2.0000      -0.554389       -15.0857
   6   2.0000      -0.522590       -14.2204
   7   2.0000      -0.441831       -12.0228
   8   2.0000      -0.377495       -10.2722
   9   0.0000       0.081221         2.2101
  10   0.0000       0.119441         3.2501
  11   0.0000       0.155298         4.2259
  12   0.0000       0.161642         4.3985
  13   0.0000       0.184665         5.0250

MULLIKEN ATOMIC CHARGES
-----------------------
   0 C :   -0.000024
   1 O :   -0.000000
   2 H :   -0.000000
   3 H :   -0.000020
   4 H :   -0.000002
   5 H :   -0.000005
   6 C :   -0.173866
   7 O :   -0.464230
   8 H :    0.307345
   9 H :    0.107425
  10 H :    0.112503
  11 H :    0.110875
Sum of atomic charges:    0.0000000

LOEWDIN ATOMIC CHARGES
----------------------
   0 C :   -0.000076
   1 O :   -0.000011
   2 H :   -0.000003
   3 H :   -0.000023
   4 H :   -0.000002
   5 H :   -0.000005
   6 C :   -0.367850
   7 O :   -0.069872
   8 H :    0.151801
   9 H :    0.084531
  10 H :    0.111777
  11 H :    0.089734

  Mayer bond orders larger than 0.1
B(  6-C ,  7-O ) :   0.9936 B(  6-C ,  9-H ) :   0.9752 B(  6-C , 10-H ) :   0.9756
B(  6-C , 11-H ) :   0.9837 B(  7-O ,  8-H ) :   0.9105

Dispersion correction           -0.000211807
FINAL SINGLE POINT ENERGY      -115.731026104609

DIPOLE MOMENT
-------------
                                X             Y             Z
Electronic contribution:      1.08866      -0.76099       1.25581
Nuclear contribution   :     -0.94458       1.14415      -1.87791
                        -----------------------------------------
Total Dipole Moment    :      0.14408       0.38316      -0.62210
                        -----------------------------------------
Magnitude (a.u.)       :      0.74470
Magnitude (Debye)      :      1.89288

Rotational constants in cm-1:     4.489848     0.833167     0.802041
Rotational constants in MHz : 134602.250225 24977.729077 24044.579749

                             ****ORCA TERMINATED NORMALLY****
TOTAL RUN TIME: 0 days 0 hours 4 minutes 5 seconds 230 msec
