                         Program Version 4.1.2  - RELEASE  -
|  1> #Run DFT-D3 single point of the dimer
|  2> ! wB97X-D3 def2-TZVP TIGHTSCF CHELPG PMODEL PAL8
|  3>
|  4> %base "12-110_DFT_AB"
|  5>
|  6> %scf
|  7> MaxIter 1000
|  8> end
|  9>
| 10> * xyz 0 1
| 11>   C                      0.660958             5.234501             6.568248
| 12>   O                      1.793988             4.917370             7.403906
| 13>   H                      1.654328             3.934204             7.551554
| 14>   H                      0.805839             4.909714             5.553898
| 15>   H                      -0.204570            4.628391             6.807331
| 16>   H                      0.475641             6.293078             6.607980
| 17>   C                      -3.272401            6.414772             7.903279
| 18>   O                      -2.221952            7.192676             8.481812
| 19>   H                      -2.096548            8.004167             7.918444
| 20>   H                      -3.352770            5.419782             8.481370
| 21>   H                      -4.210993            6.998517             8.036973
| 22>   H                      -3.129233            6.191496             6.820200
| 23> *
| 24>
| 25> #Run DFT-D3 single point of the molecule with dimer basis set
| 26> $new_job
| 27> %base "12-110_DFT_A"
| 28> ! wB97X-D3 def2-TZVP TIGHTSCF CHELPG PMODEL
| 29>
| 30> %scf
| 31> MaxIter 1000
| 32> end
| 33>
| 34> * xyz 0 1
| 35>   C                      0.660958             5.234501             6.568248
| 36>   O                      1.793988             4.917370             7.403906
| 37>   H                      1.654328             3.934204             7.551554
| 38>   H                      0.805839             4.909714             5.553898
| 39>   H                      -0.204570            4.628391             6.807331
| 40>   H                      0.475641             6.293078             6.607980
| 41>   C                    : -3.272401            6.414772             7.903279
| 42>   O                    : -2.221952            7.192676             8.481812
| 43>   H                    : -2.096548            8.004167             7.918444
| 44>   H                    : -3.352770            5.419782             8.481370
| 45>   H                    : -4.210993            6.998517             8.036973
| 46>   H                    : -3.129233            6.191496             6.820200
| 47> *
| 48>
| 49> #Run DFT-D3 single point of the particle with dimer basis set
| 50> $new_job
| 51> %base "12-110_DFT_B"
| 52> ! wB97X-D3 def2-TZVP TIGHTSCF CHELPG PMODEL
| 53>
| 54> %scf
| 55> MaxIter 1000
| 56> end
| 57>
| 58> * xyz 0 1
| 59>   C                    : 0.660958             5.234501             6.568248
| 60>   O                    : 1.793988             4.917370             7.403906
| 61>   H                    : 1.654328             3.934204             7.551554
| 62>   H                    : 0.805839             4.909714             5.553898
| 63>   H                    : -0.204570            4.628391             6.807331
| 64>   H                    : 0.475641             6.293078             6.607980
| 65>   C                      -3.272401            6.414772             7.903279
| 66>   O                      -2.221952            7.192676             8.481812
| 67>   H                      -2.096548            8.004167             7.918444
| 68>   H                      -3.352770            5.419782             8.481370
| 69>   H                      -4.210993            6.998517             8.036973
| 70>   H                      -3.129233            6.191496             6.820200
| 71> *
| 72>
| 73>                          ****END OF INPUT****
 Total Charge           Charge          ....    0
 Multiplicity           Mult            ....    1
 Number of Electrons    NEL             ....   36
Dispersion correction           -0.001352001
FINAL SINGLE POINT ENERGY      -231.462664159209
Dispersion correction           -0.000230112
FINAL SINGLE POINT ENERGY      -115.729731683543

CARTESIAN COORDINATES (ANGSTROEM)
---------------------------------
  C      0.660958    5.234501    6.568248
  O      1.793988    4.917370    7.403906
  H      1.654328    3.934204    7.551554
  H      0.805839    4.909714    5.553898
  H     -0.204570    4.628391    6.807331
  H      0.475641    6.293078    6.607980
  C     -3.272401    6.414772    7.903279
  O     -2.221952    7.192676    8.481812
  H     -2.096548    8.004167    7.918444
  H     -3.352770    5.419782    8.481370
  H     -4.210993    6.998517    8.036973
  H     -3.129233    6.191496    6.820200

 Multiplicity           Mult            ....    1
 Number of Electrons    NEL             ....   18
 Basis Dimension        Dim             ....  172

ORBITAL ENERGIES
----------------

  NO   OCC          E(Eh)            E(eV)
   0   2.0000     -19.233486      -523.3698
   1   2.0000     -10.324899      -280.9548
   2   2.0000      -1.125657       -30.6307
   3   2.0000      -0.784346       -21.3431
   4   2.0000      -0.602456       -16.3936
   5   2.0000      -0.538821       -14.6621
   6   2.0000      -0.517930       -14.0936
   7   2.0000      -0.431907       -11.7528
   8   2.0000      -0.371961       -10.1216
   9   0.0000       0.087081         2.3696
  10   0.0000       0.116632         3.1737
  11   0.0000       0.146096         3.9755
  12   0.0000       0.171966         4.6794
  13   0.0000       0.194280         5.2866

MULLIKEN ATOMIC CHARGES
-----------------------
   0 C :    0.000248
   1 O :    0.000092
   2 H :    0.000018
   3 H :   -0.000189
   4 H :    0.000469
   5 H :   -0.004538
   6 C :   -0.171352
   7 O :   -0.478378
   8 H :    0.316538
   9 H :    0.119993
  10 H :    0.109568
  11 H :    0.107531
Sum of atomic charges:    0.0000000

LOEWDIN ATOMIC CHARGES
----------------------
   0 C :   -0.002646
   1 O :   -0.000012
   2 H :   -0.000002
   3 H :   -0.000043
   4 H :   -0.000318
   5 H :   -0.002052
   6 C :   -0.390778
   7 O :   -0.106133
   8 H :    0.187518
   9 H :    0.120081
  10 H :    0.098214
  11 H :    0.096170

  Mayer bond orders larger than 0.1
B(  6-C ,  7-O ) :   0.9868 B(  6-C ,  9-H ) :   0.9702 B(  6-C , 10-H ) :   0.9774
B(  6-C , 11-H ) :   0.9680 B(  7-O ,  8-H ) :   0.8926

Dispersion correction           -0.000254535
FINAL SINGLE POINT ENERGY      -115.732560062644

DIPOLE MOMENT
-------------
                                X             Y             Z
Electronic contribution:      1.36751       0.86635       0.79650
Nuclear contribution   :     -1.71458      -0.66919      -1.37166
                        -----------------------------------------
Total Dipole Moment    :     -0.34707       0.19716      -0.57516
                        -----------------------------------------
Magnitude (a.u.)       :      0.70010
Magnitude (Debye)      :      1.77951

Rotational constants in cm-1:     3.996511     0.814386     0.780463
Rotational constants in MHz : 119812.399921 24414.674813 23397.700521

                             ****ORCA TERMINATED NORMALLY****
TOTAL RUN TIME: 0 days 0 hours 1 minutes 6 seconds 428 msec
