                         Program Version 4.1.2  - RELEASE  -
|  1> #Run DFT-D3 single point of the dimer
|  2> ! wB97X-D3 def2-TZVP TIGHTSCF CHELPG PMODEL PAL8
|  3>
|  4> %base "1-118_DFT_AB"
|  5>
|  6> %scf
|  7> MaxIter 1000
|  8> end
|  9>
| 10> * xyz 0 1
| 11>   C                      10.097442            -11.021088           4.792170
| 12>   O                      9.797004             -10.184872           3.709985
| 13>   H                      10.061023            -9.304137            3.936101
| 14>   H                      10.118877            -12.027282           4.441475
| 15>   H                      11.067215            -10.924921           5.229111
| 16>   H                      9.389762             -10.964575           5.682178
| 17>   C                      6.167384             -7.793143            6.981429
| 18>   O                      5.490129             -8.798173            6.267838
| 19>   H                      5.778939             -8.786988            5.359989
| 20>   H                      6.700082             -7.157952            6.310295
| 21>   H                      5.422981             -7.203798            7.505563
| 22>   H                      6.882457             -8.238947            7.669788
| 23> *
| 24>
| 25> #Run DFT-D3 single point of the molecule with dimer basis set
| 26> $new_job
| 27> %base "1-118_DFT_A"
| 28> ! wB97X-D3 def2-TZVP TIGHTSCF CHELPG PMODEL
| 29>
| 30> %scf
| 31> MaxIter 1000
| 32> end
| 33>
| 34> * xyz 0 1
| 35>   C                      10.097442            -11.021088           4.792170
| 36>   O                      9.797004             -10.184872           3.709985
| 37>   H                      10.061023            -9.304137            3.936101
| 38>   H                      10.118877            -12.027282           4.441475
| 39>   H                      11.067215            -10.924921           5.229111
| 40>   H                      9.389762             -10.964575           5.682178
| 41>   C                    : 6.167384             -7.793143            6.981429
| 42>   O                    : 5.490129             -8.798173            6.267838
| 43>   H                    : 5.778939             -8.786988            5.359989
| 44>   H                    : 6.700082             -7.157952            6.310295
| 45>   H                    : 5.422981             -7.203798            7.505563
| 46>   H                    : 6.882457             -8.238947            7.669788
| 47> *
| 48>
| 49> #Run DFT-D3 single point of the particle with dimer basis set
| 50> $new_job
| 51> %base "1-118_DFT_B"
| 52> ! wB97X-D3 def2-TZVP TIGHTSCF CHELPG PMODEL
| 53>
| 54> %scf
| 55> MaxIter 1000
| 56> end
| 57>
| 58> * xyz 0 1
| 59>   C                    : 10.097442            -11.021088           4.792170
| 60>   O                    : 9.797004             -10.184872           3.709985
| 61>   H                    : 10.061023            -9.304137            3.936101
| 62>   H                    : 10.118877            -12.027282           4.441475
| 63>   H                    : 11.067215            -10.924921           5.229111
| 64>   H                    : 9.389762             -10.964575           5.682178
| 65>   C                      6.167384             -7.793143            6.981429
| 66>   O                      5.490129             -8.798173            6.267838
| 67>   H                      5.778939             -8.786988            5.359989
| 68>   H                      6.700082             -7.157952            6.310295
| 69>   H                      5.422981             -7.203798            7.505563
| 70>   H                      6.882457             -8.238947            7.669788
| 71> *
| 72>
| 73>                          ****END OF INPUT****
 Total Charge           Charge          ....    0
 Multiplicity           Mult            ....    1
 Number of Electrons    NEL             ....   36
Dispersion correction           -0.000757826
FINAL SINGLE POINT ENERGY      -231.468607577243
Dispersion correction           -0.000258124
FINAL SINGLE POINT ENERGY      -115.732995616742

CARTESIAN COORDINATES (ANGSTROEM)
---------------------------------
  C     10.097442  -11.021088    4.792170
  O      9.797004  -10.184872    3.709985
  H     10.061023   -9.304137    3.936101
  H     10.118877  -12.027282    4.441475
  H     11.067215  -10.924921    5.229111
  H      9.389762  -10.964575    5.682178
  C      6.167384   -7.793143    6.981429
  O      5.490129   -8.798173    6.267838
  H      5.778939   -8.786988    5.359989
  H      6.700082   -7.157952    6.310295
  H      5.422981   -7.203798    7.505563
  H      6.882457   -8.238947    7.669788

 Multiplicity           Mult            ....    1
 Number of Electrons    NEL             ....   18
 Basis Dimension        Dim             ....  172

ORBITAL ENERGIES
----------------

  NO   OCC          E(Eh)            E(eV)
   0   2.0000     -19.224947      -523.1374
   1   2.0000     -10.307277      -280.4753
   2   2.0000      -1.137564       -30.9547
   3   2.0000      -0.797724       -21.7072
   4   2.0000      -0.615161       -16.7394
   5   2.0000      -0.545902       -14.8547
   6   2.0000      -0.527718       -14.3599
   7   2.0000      -0.432163       -11.7597
   8   2.0000      -0.371904       -10.1200
   9   0.0000       0.079731         2.1696
  10   0.0000       0.116680         3.1750
  11   0.0000       0.157782         4.2935
  12   0.0000       0.162097         4.4109
  13   0.0000       0.188478         5.1288

MULLIKEN ATOMIC CHARGES
-----------------------
   0 C :    0.000119
   1 O :    0.000010
   2 H :   -0.000009
   3 H :   -0.000009
   4 H :   -0.000012
   5 H :   -0.000351
   6 C :   -0.153073
   7 O :   -0.479739
   8 H :    0.314637
   9 H :    0.100822
  10 H :    0.111402
  11 H :    0.106203
Sum of atomic charges:   -0.0000000

LOEWDIN ATOMIC CHARGES
----------------------
   0 C :   -0.000056
   1 O :   -0.000006
   2 H :   -0.000007
   3 H :   -0.000000
   4 H :   -0.000002
   5 H :   -0.000126
   6 C :   -0.379912
   7 O :   -0.073328
   8 H :    0.163477
   9 H :    0.090463
  10 H :    0.101818
  11 H :    0.097680

  Mayer bond orders larger than 0.1
B(  6-C ,  7-O ) :   1.0042 B(  6-C ,  9-H ) :   0.9891 B(  6-C , 10-H ) :   0.9779
B(  6-C , 11-H ) :   0.9744 B(  7-O ,  8-H ) :   0.9025

Dispersion correction           -0.000230814
FINAL SINGLE POINT ENERGY      -115.735123412767

DIPOLE MOMENT
-------------
                                X             Y             Z
Electronic contribution:     -0.89234      -1.27558      -0.77614
Nuclear contribution   :      1.35821       1.69944       0.44653
                        -----------------------------------------
Total Dipole Moment    :      0.46587       0.42386      -0.32961
                        -----------------------------------------
Magnitude (a.u.)       :      0.71087
Magnitude (Debye)      :      1.80688

Rotational constants in cm-1:     4.345810     0.844738     0.818609
Rotational constants in MHz : 130284.120968 25324.612045 24541.287797

                             ****ORCA TERMINATED NORMALLY****
TOTAL RUN TIME: 0 days 0 hours 5 minutes 38 seconds 425 msec
