                         Program Version 4.1.2  - RELEASE  -
|  1> #Run DFT-D3 single point of the dimer
|  2> ! wB97X-D3 def2-TZVP TIGHTSCF CHELPG PMODEL PAL8
|  3>
|  4> %base "11-73_DFT_AB"
|  5>
|  6> %scf
|  7> MaxIter 1000
|  8> end
|  9>
| 10> * xyz 0 1
| 11>   C                      11.210682            9.246803             6.188863
| 12>   O                      11.549430            8.223964             5.224175
| 13>   H                      11.164311            8.328825             4.327987
| 14>   H                      10.399351            9.964930             5.876393
| 15>   H                      11.010089            8.837820             7.195674
| 16>   H                      12.169177            9.877960             6.296828
| 17>   C                      7.235443             9.089465             5.644530
| 18>   O                      7.280481             9.683275             4.368788
| 19>   H                      6.414151             9.523031             3.910607
| 20>   H                      6.394428             9.403947             6.267391
| 21>   H                      7.340276             7.952158             5.674665
| 22>   H                      8.131908             9.358944             6.263459
| 23> *
| 24>
| 25> #Run DFT-D3 single point of the molecule with dimer basis set
| 26> $new_job
| 27> %base "11-73_DFT_A"
| 28> ! wB97X-D3 def2-TZVP TIGHTSCF CHELPG PMODEL
| 29>
| 30> %scf
| 31> MaxIter 1000
| 32> end
| 33>
| 34> * xyz 0 1
| 35>   C                      11.210682            9.246803             6.188863
| 36>   O                      11.549430            8.223964             5.224175
| 37>   H                      11.164311            8.328825             4.327987
| 38>   H                      10.399351            9.964930             5.876393
| 39>   H                      11.010089            8.837820             7.195674
| 40>   H                      12.169177            9.877960             6.296828
| 41>   C                    : 7.235443             9.089465             5.644530
| 42>   O                    : 7.280481             9.683275             4.368788
| 43>   H                    : 6.414151             9.523031             3.910607
| 44>   H                    : 6.394428             9.403947             6.267391
| 45>   H                    : 7.340276             7.952158             5.674665
| 46>   H                    : 8.131908             9.358944             6.263459
| 47> *
| 48>
| 49> #Run DFT-D3 single point of the particle with dimer basis set
| 50> $new_job
| 51> %base "11-73_DFT_B"
| 52> ! wB97X-D3 def2-TZVP TIGHTSCF CHELPG PMODEL
| 53>
| 54> %scf
| 55> MaxIter 1000
| 56> end
| 57>
| 58> * xyz 0 1
| 59>   C                    : 11.210682            9.246803             6.188863
| 60>   O                    : 11.549430            8.223964             5.224175
| 61>   H                    : 11.164311            8.328825             4.327987
| 62>   H                    : 10.399351            9.964930             5.876393
| 63>   H                    : 11.010089            8.837820             7.195674
| 64>   H                    : 12.169177            9.877960             6.296828
| 65>   C                      7.235443             9.089465             5.644530
| 66>   O                      7.280481             9.683275             4.368788
| 67>   H                      6.414151             9.523031             3.910607
| 68>   H                      6.394428             9.403947             6.267391
| 69>   H                      7.340276             7.952158             5.674665
| 70>   H                      8.131908             9.358944             6.263459
| 71> *
| 72>
| 73>                          ****END OF INPUT****
 Total Charge           Charge          ....    0
 Multiplicity           Mult            ....    1
 Number of Electrons    NEL             ....   36
Dispersion correction           -0.001584626
FINAL SINGLE POINT ENERGY      -231.461567423427
Dispersion correction           -0.000298088
FINAL SINGLE POINT ENERGY      -115.728242441000

CARTESIAN COORDINATES (ANGSTROEM)
---------------------------------
  C     11.210682    9.246803    6.188863
  O     11.549430    8.223964    5.224175
  H     11.164311    8.328825    4.327987
  H     10.399351    9.964930    5.876393
  H     11.010089    8.837820    7.195674
  H     12.169177    9.877960    6.296828
  C      7.235443    9.089465    5.644530
  O      7.280481    9.683275    4.368788
  H      6.414151    9.523031    3.910607
  H      6.394428    9.403947    6.267391
  H      7.340276    7.952158    5.674665
  H      8.131908    9.358944    6.263459

 Multiplicity           Mult            ....    1
 Number of Electrons    NEL             ....   18
 Basis Dimension        Dim             ....  172

ORBITAL ENERGIES
----------------

  NO   OCC          E(Eh)            E(eV)
   0   2.0000     -19.239068      -523.5217
   1   2.0000     -10.320186      -280.8265
   2   2.0000      -1.134358       -30.8674
   3   2.0000      -0.790213       -21.5028
   4   2.0000      -0.609228       -16.5779
   5   2.0000      -0.539611       -14.6836
   6   2.0000      -0.523345       -14.2409
   7   2.0000      -0.426052       -11.5935
   8   2.0000      -0.376143       -10.2354
   9   0.0000       0.089910         2.4466
  10   0.0000       0.116058         3.1581
  11   0.0000       0.148476         4.0402
  12   0.0000       0.165684         4.5085
  13   0.0000       0.192017         5.2251

MULLIKEN ATOMIC CHARGES
-----------------------
   0 C :   -0.001813
   1 O :    0.000048
   2 H :   -0.000230
   3 H :    0.003727
   4 H :   -0.000263
   5 H :    0.000179
   6 C :   -0.180628
   7 O :   -0.470343
   8 H :    0.321378
   9 H :    0.113575
  10 H :    0.098321
  11 H :    0.116048
Sum of atomic charges:   -0.0000000

LOEWDIN ATOMIC CHARGES
----------------------
   0 C :   -0.004479
   1 O :   -0.000018
   2 H :   -0.000154
   3 H :   -0.003112
   4 H :   -0.000461
   5 H :   -0.000018
   6 C :   -0.412418
   7 O :   -0.081407
   8 H :    0.190882
   9 H :    0.093869
  10 H :    0.101206
  11 H :    0.116111

  Mayer bond orders larger than 0.1
B(  6-C ,  7-O ) :   1.0114 B(  6-C ,  9-H ) :   0.9728 B(  6-C , 10-H ) :   0.9716
B(  6-C , 11-H ) :   0.9723 B(  7-O ,  8-H ) :   0.8896

Dispersion correction           -0.000280043
FINAL SINGLE POINT ENERGY      -115.731517203047

DIPOLE MOMENT
-------------
                                X             Y             Z
Electronic contribution:      0.07659       0.90750      -1.79236
Nuclear contribution   :     -0.62586      -1.20645       2.00233
                        -----------------------------------------
Total Dipole Moment    :     -0.54927      -0.29894       0.20997
                        -----------------------------------------
Magnitude (a.u.)       :      0.65966
Magnitude (Debye)      :      1.67672

Rotational constants in cm-1:     4.279572     0.811079     0.788297
Rotational constants in MHz : 128298.345500 24315.527812 23632.543524

                             ****ORCA TERMINATED NORMALLY****
TOTAL RUN TIME: 0 days 0 hours 1 minutes 12 seconds 437 msec
