                         Program Version 4.1.2  - RELEASE  -
|  1> #Run DFT-D3 single point of the dimer
|  2> ! wB97X-D3 def2-TZVP TIGHTSCF CHELPG PMODEL PAL8
|  3>
|  4> %base "21-87_DFT_AB"
|  5>
|  6> %scf
|  7> MaxIter 1000
|  8> end
|  9>
| 10> * xyz 0 1
| 11>   C                      -0.279772            8.880130             -5.984317
| 12>   O                      0.783245             8.630714             -6.886738
| 13>   H                      0.274807             8.473379             -7.649880
| 14>   H                      -0.903684            9.718744             -6.263217
| 15>   H                      -0.970593            8.024726             -5.917269
| 16>   H                      0.085905             9.093486             -4.943612
| 17>   C                      1.481568             11.224175            -2.803278
| 18>   O                      0.321357             11.451695            -2.041558
| 19>   H                      0.369444             10.797276            -1.331065
| 20>   H                      1.394443             11.678209            -3.848719
| 21>   H                      2.332418             11.683921            -2.407907
| 22>   H                      1.728114             10.183127            -2.905787
| 23> *
| 24>
| 25> #Run DFT-D3 single point of the molecule with dimer basis set
| 26> $new_job
| 27> %base "21-87_DFT_A"
| 28> ! wB97X-D3 def2-TZVP TIGHTSCF CHELPG PMODEL
| 29>
| 30> %scf
| 31> MaxIter 1000
| 32> end
| 33>
| 34> * xyz 0 1
| 35>   C                      -0.279772            8.880130             -5.984317
| 36>   O                      0.783245             8.630714             -6.886738
| 37>   H                      0.274807             8.473379             -7.649880
| 38>   H                      -0.903684            9.718744             -6.263217
| 39>   H                      -0.970593            8.024726             -5.917269
| 40>   H                      0.085905             9.093486             -4.943612
| 41>   C                    : 1.481568             11.224175            -2.803278
| 42>   O                    : 0.321357             11.451695            -2.041558
| 43>   H                    : 0.369444             10.797276            -1.331065
| 44>   H                    : 1.394443             11.678209            -3.848719
| 45>   H                    : 2.332418             11.683921            -2.407907
| 46>   H                    : 1.728114             10.183127            -2.905787
| 47> *
| 48>
| 49> #Run DFT-D3 single point of the particle with dimer basis set
| 50> $new_job
| 51> %base "21-87_DFT_B"
| 52> ! wB97X-D3 def2-TZVP TIGHTSCF CHELPG PMODEL
| 53>
| 54> %scf
| 55> MaxIter 1000
| 56> end
| 57>
| 58> * xyz 0 1
| 59>   C                    : -0.279772            8.880130             -5.984317
| 60>   O                    : 0.783245             8.630714             -6.886738
| 61>   H                    : 0.274807             8.473379             -7.649880
| 62>   H                    : -0.903684            9.718744             -6.263217
| 63>   H                    : -0.970593            8.024726             -5.917269
| 64>   H                    : 0.085905             9.093486             -4.943612
| 65>   C                      1.481568             11.224175            -2.803278
| 66>   O                      0.321357             11.451695            -2.041558
| 67>   H                      0.369444             10.797276            -1.331065
| 68>   H                      1.394443             11.678209            -3.848719
| 69>   H                      2.332418             11.683921            -2.407907
| 70>   H                      1.728114             10.183127            -2.905787
| 71> *
| 72>
| 73>                          ****END OF INPUT****
 Total Charge           Charge          ....    0
 Multiplicity           Mult            ....    1
 Number of Electrons    NEL             ....   36
Dispersion correction           -0.001180971
FINAL SINGLE POINT ENERGY      -231.464922523105
Dispersion correction           -0.000223180
FINAL SINGLE POINT ENERGY      -115.731854756946

CARTESIAN COORDINATES (ANGSTROEM)
---------------------------------
  C     -0.279772    8.880130   -5.984317
  O      0.783245    8.630714   -6.886738
  H      0.274807    8.473379   -7.649880
  H     -0.903684    9.718744   -6.263217
  H     -0.970593    8.024726   -5.917269
  H      0.085905    9.093486   -4.943612
  C      1.481568   11.224175   -2.803278
  O      0.321357   11.451695   -2.041558
  H      0.369444   10.797276   -1.331065
  H      1.394443   11.678209   -3.848719
  H      2.332418   11.683921   -2.407907
  H      1.728114   10.183127   -2.905787

 Multiplicity           Mult            ....    1
 Number of Electrons    NEL             ....   18
 Basis Dimension        Dim             ....  172

ORBITAL ENERGIES
----------------

  NO   OCC          E(Eh)            E(eV)
   0   2.0000     -19.233392      -523.3672
   1   2.0000     -10.309344      -280.5315
   2   2.0000      -1.140272       -31.0284
   3   2.0000      -0.796051       -21.6616
   4   2.0000      -0.615016       -16.7354
   5   2.0000      -0.544920       -14.8280
   6   2.0000      -0.523678       -14.2500
   7   2.0000      -0.437266       -11.8986
   8   2.0000      -0.374337       -10.1862
   9   0.0000       0.086910         2.3649
  10   0.0000       0.115696         3.1482
  11   0.0000       0.150902         4.1063
  12   0.0000       0.174095         4.7374
  13   0.0000       0.181866         4.9488

MULLIKEN ATOMIC CHARGES
-----------------------
   0 C :   -0.001629
   1 O :    0.000137
   2 H :    0.000012
   3 H :   -0.000036
   4 H :    0.000019
   5 H :    0.002558
   6 C :   -0.174303
   7 O :   -0.466297
   8 H :    0.315134
   9 H :    0.109709
  10 H :    0.109591
  11 H :    0.105106
Sum of atomic charges:   -0.0000000

LOEWDIN ATOMIC CHARGES
----------------------
   0 C :   -0.000826
   1 O :   -0.000010
   2 H :   -0.000000
   3 H :   -0.000040
   4 H :   -0.000005
   5 H :   -0.001289
   6 C :   -0.394610
   7 O :   -0.071814
   8 H :    0.176757
   9 H :    0.117564
  10 H :    0.082954
  11 H :    0.091319

  Mayer bond orders larger than 0.1
B(  6-C ,  7-O ) :   1.0041 B(  6-C ,  9-H ) :   0.9754 B(  6-C , 10-H ) :   0.9740
B(  6-C , 11-H ) :   0.9823 B(  7-O ,  8-H ) :   0.8994

Dispersion correction           -0.000233290
FINAL SINGLE POINT ENERGY      -115.731927211785

DIPOLE MOMENT
-------------
                                X             Y             Z
Electronic contribution:     -1.58633       0.37405       0.99251
Nuclear contribution   :      2.08190      -0.87886      -0.83180
                        -----------------------------------------
Total Dipole Moment    :      0.49557      -0.50482       0.16071
                        -----------------------------------------
Magnitude (a.u.)       :      0.72544
Magnitude (Debye)      :      1.84392

Rotational constants in cm-1:     4.380464     0.841492     0.800361
Rotational constants in MHz : 131322.999041 25227.286140 23994.210294

                             ****ORCA TERMINATED NORMALLY****
TOTAL RUN TIME: 0 days 0 hours 1 minutes 4 seconds 152 msec
