                         Program Version 4.1.2  - RELEASE  -
|  1> #Run DFT-D3 single point of the dimer
|  2> ! wB97X-D3 def2-TZVP TIGHTSCF CHELPG PMODEL PAL8
|  3>
|  4> %base "3-196_DFT_AB"
|  5>
|  6> %scf
|  7> MaxIter 1000
|  8> end
|  9>
| 10> * xyz 0 1
| 11>   C                      -7.928530            3.771707             -6.464146
| 12>   O                      -7.849009            4.322399             -5.205604
| 13>   H                      -7.952925            3.642590             -4.493695
| 14>   H                      -7.525502            2.716763             -6.413435
| 15>   H                      -8.987006            3.641655             -6.788111
| 16>   H                      -7.464347            4.472502             -7.174355
| 17>   C                      -9.373559            0.297392             -6.536490
| 18>   O                      -9.456627            1.047933             -5.265026
| 19>   H                      -9.619971            0.582751             -4.399038
| 20>   H                      -8.905925            -0.694538            -6.512490
| 21>   H                      -10.378640           0.221856             -6.997461
| 22>   H                      -8.830165            0.846990             -7.252988
| 23> *
| 24>
| 25> #Run DFT-D3 single point of the molecule with dimer basis set
| 26> $new_job
| 27> %base "3-196_DFT_A"
| 28> ! wB97X-D3 def2-TZVP TIGHTSCF CHELPG PMODEL
| 29>
| 30> %scf
| 31> MaxIter 1000
| 32> end
| 33>
| 34> * xyz 0 1
| 35>   C                      -7.928530            3.771707             -6.464146
| 36>   O                      -7.849009            4.322399             -5.205604
| 37>   H                      -7.952925            3.642590             -4.493695
| 38>   H                      -7.525502            2.716763             -6.413435
| 39>   H                      -8.987006            3.641655             -6.788111
| 40>   H                      -7.464347            4.472502             -7.174355
| 41>   C                    : -9.373559            0.297392             -6.536490
| 42>   O                    : -9.456627            1.047933             -5.265026
| 43>   H                    : -9.619971            0.582751             -4.399038
| 44>   H                    : -8.905925            -0.694538            -6.512490
| 45>   H                    : -10.378640           0.221856             -6.997461
| 46>   H                    : -8.830165            0.846990             -7.252988
| 47> *
| 48>
| 49> #Run DFT-D3 single point of the particle with dimer basis set
| 50> $new_job
| 51> %base "3-196_DFT_B"
| 52> ! wB97X-D3 def2-TZVP TIGHTSCF CHELPG PMODEL
| 53>
| 54> %scf
| 55> MaxIter 1000
| 56> end
| 57>
| 58> * xyz 0 1
| 59>   C                    : -7.928530            3.771707             -6.464146
| 60>   O                    : -7.849009            4.322399             -5.205604
| 61>   H                    : -7.952925            3.642590             -4.493695
| 62>   H                    : -7.525502            2.716763             -6.413435
| 63>   H                    : -8.987006            3.641655             -6.788111
| 64>   H                    : -7.464347            4.472502             -7.174355
| 65>   C                      -9.373559            0.297392             -6.536490
| 66>   O                      -9.456627            1.047933             -5.265026
| 67>   H                      -9.619971            0.582751             -4.399038
| 68>   H                      -8.905925            -0.694538            -6.512490
| 69>   H                      -10.378640           0.221856             -6.997461
| 70>   H                      -8.830165            0.846990             -7.252988
| 71> *
| 72>
| 73>                          ****END OF INPUT****
 Total Charge           Charge          ....    0
 Multiplicity           Mult            ....    1
 Number of Electrons    NEL             ....   36
Dispersion correction           -0.002115817
FINAL SINGLE POINT ENERGY      -231.459266431296
Dispersion correction           -0.000234358
FINAL SINGLE POINT ENERGY      -115.730853172426

CARTESIAN COORDINATES (ANGSTROEM)
---------------------------------
  C     -7.928530    3.771707   -6.464146
  O     -7.849009    4.322399   -5.205604
  H     -7.952925    3.642590   -4.493695
  H     -7.525502    2.716763   -6.413435
  H     -8.987006    3.641655   -6.788111
  H     -7.464347    4.472502   -7.174355
  C     -9.373559    0.297392   -6.536490
  O     -9.456627    1.047933   -5.265026
  H     -9.619971    0.582751   -4.399038
  H     -8.905925   -0.694538   -6.512490
  H    -10.378640    0.221856   -6.997461
  H     -8.830165    0.846990   -7.252988

 Multiplicity           Mult            ....    1
 Number of Electrons    NEL             ....   18
 Basis Dimension        Dim             ....  172

ORBITAL ENERGIES
----------------

  NO   OCC          E(Eh)            E(eV)
   0   2.0000     -19.229463      -523.2603
   1   2.0000     -10.318524      -280.7813
   2   2.0000      -1.103013       -30.0145
   3   2.0000      -0.804425       -21.8895
   4   2.0000      -0.599504       -16.3133
   5   2.0000      -0.529158       -14.3991
   6   2.0000      -0.524881       -14.2827
   7   2.0000      -0.421926       -11.4812
   8   2.0000      -0.372834       -10.1453
   9   0.0000       0.096947         2.6381
  10   0.0000       0.124135         3.3779
  11   0.0000       0.143819         3.9135
  12   0.0000       0.185503         5.0478
  13   0.0000       0.196543         5.3482

MULLIKEN ATOMIC CHARGES
-----------------------
   0 C :    0.010170
   1 O :   -0.000702
   2 H :   -0.004083
   3 H :   -0.004691
   4 H :   -0.003009
   5 H :    0.000171
   6 C :   -0.159567
   7 O :   -0.519644
   8 H :    0.324389
   9 H :    0.115963
  10 H :    0.112280
  11 H :    0.128725
Sum of atomic charges:    0.0000000

LOEWDIN ATOMIC CHARGES
----------------------
   0 C :   -0.008831
   1 O :   -0.000439
   2 H :   -0.003430
   3 H :   -0.004856
   4 H :   -0.001951
   5 H :   -0.000047
   6 C :   -0.333981
   7 O :   -0.131703
   8 H :    0.183133
   9 H :    0.099490
  10 H :    0.102819
  11 H :    0.099795

  Mayer bond orders larger than 0.1
B(  6-C ,  7-O ) :   0.9832 B(  6-C ,  9-H ) :   0.9679 B(  6-C , 10-H ) :   0.9803
B(  6-C , 11-H ) :   0.9735 B(  7-O ,  8-H ) :   0.8816

Dispersion correction           -0.000320702
FINAL SINGLE POINT ENERGY      -115.724722493040

DIPOLE MOMENT
-------------
                                X             Y             Z
Electronic contribution:     -0.01572       0.93999       1.53808
Nuclear contribution   :     -0.04206      -1.59137      -1.56650
                        -----------------------------------------
Total Dipole Moment    :     -0.05778      -0.65138      -0.02841
                        -----------------------------------------
Magnitude (a.u.)       :      0.65455
Magnitude (Debye)      :      1.66373

Rotational constants in cm-1:     4.581581     0.746871     0.728291
Rotational constants in MHz : 137352.341187 22390.624414 21833.600687

                             ****ORCA TERMINATED NORMALLY****
TOTAL RUN TIME: 0 days 0 hours 6 minutes 22 seconds 18 msec
