                         Program Version 4.1.2  - RELEASE  -
|  1> #Run DFT-D3 single point of the dimer
|  2> ! wB97X-D3 def2-TZVP TIGHTSCF CHELPG PMODEL PAL8
|  3>
|  4> %base "8-202_DFT_AB"
|  5>
|  6> %scf
|  7> MaxIter 1000
|  8> end
|  9>
| 10> * xyz 0 1
| 11>   C                      6.764283             -9.797262            4.796798
| 12>   O                      7.854235             -9.253086            5.558836
| 13>   H                      8.440373             -8.669675            5.044567
| 14>   H                      6.126712             -10.337744           5.499328
| 15>   H                      6.264568             -8.981207            4.208230
| 16>   H                      7.082795             -10.555114           4.057515
| 17>   C                      4.453299             -7.891015            7.200770
| 18>   O                      5.806999             -8.137532            7.399808
| 19>   H                      6.220994             -8.641215            6.728034
| 20>   H                      4.042633             -8.647299            6.533391
| 21>   H                      3.871545             -7.952245            8.090356
| 22>   H                      4.242423             -6.909423            6.841852
| 23> *
| 24>
| 25> #Run DFT-D3 single point of the molecule with dimer basis set
| 26> $new_job
| 27> %base "8-202_DFT_A"
| 28> ! wB97X-D3 def2-TZVP TIGHTSCF CHELPG PMODEL
| 29>
| 30> %scf
| 31> MaxIter 1000
| 32> end
| 33>
| 34> * xyz 0 1
| 35>   C                      6.764283             -9.797262            4.796798
| 36>   O                      7.854235             -9.253086            5.558836
| 37>   H                      8.440373             -8.669675            5.044567
| 38>   H                      6.126712             -10.337744           5.499328
| 39>   H                      6.264568             -8.981207            4.208230
| 40>   H                      7.082795             -10.555114           4.057515
| 41>   C                    : 4.453299             -7.891015            7.200770
| 42>   O                    : 5.806999             -8.137532            7.399808
| 43>   H                    : 6.220994             -8.641215            6.728034
| 44>   H                    : 4.042633             -8.647299            6.533391
| 45>   H                    : 3.871545             -7.952245            8.090356
| 46>   H                    : 4.242423             -6.909423            6.841852
| 47> *
| 48>
| 49> #Run DFT-D3 single point of the particle with dimer basis set
| 50> $new_job
| 51> %base "8-202_DFT_B"
| 52> ! wB97X-D3 def2-TZVP TIGHTSCF CHELPG PMODEL
| 53>
| 54> %scf
| 55> MaxIter 1000
| 56> end
| 57>
| 58> * xyz 0 1
| 59>   C                    : 6.764283             -9.797262            4.796798
| 60>   O                    : 7.854235             -9.253086            5.558836
| 61>   H                    : 8.440373             -8.669675            5.044567
| 62>   H                    : 6.126712             -10.337744           5.499328
| 63>   H                    : 6.264568             -8.981207            4.208230
| 64>   H                    : 7.082795             -10.555114           4.057515
| 65>   C                      4.453299             -7.891015            7.200770
| 66>   O                      5.806999             -8.137532            7.399808
| 67>   H                      6.220994             -8.641215            6.728034
| 68>   H                      4.042633             -8.647299            6.533391
| 69>   H                      3.871545             -7.952245            8.090356
| 70>   H                      4.242423             -6.909423            6.841852
| 71> *
| 72>
| 73>                          ****END OF INPUT****
 Total Charge           Charge          ....    0
 Multiplicity           Mult            ....    1
 Number of Electrons    NEL             ....   36
Dispersion correction           -0.002022002
FINAL SINGLE POINT ENERGY      -231.469876260713
Dispersion correction           -0.000268595
FINAL SINGLE POINT ENERGY      -115.734184914140

CARTESIAN COORDINATES (ANGSTROEM)
---------------------------------
  C      6.764283   -9.797262    4.796798
  O      7.854235   -9.253086    5.558836
  H      8.440373   -8.669675    5.044567
  H      6.126712  -10.337744    5.499328
  H      6.264568   -8.981207    4.208230
  H      7.082795  -10.555114    4.057515
  C      4.453299   -7.891015    7.200770
  O      5.806999   -8.137532    7.399808
  H      6.220994   -8.641215    6.728034
  H      4.042633   -8.647299    6.533391
  H      3.871545   -7.952245    8.090356
  H      4.242423   -6.909423    6.841852

 Multiplicity           Mult            ....    1
 Number of Electrons    NEL             ....   18
 Basis Dimension        Dim             ....  172

ORBITAL ENERGIES
----------------

  NO   OCC          E(Eh)            E(eV)
   0   2.0000     -19.225666      -523.1570
   1   2.0000     -10.305211      -280.4190
   2   2.0000      -1.143338       -31.1118
   3   2.0000      -0.806326       -21.9413
   4   2.0000      -0.620656       -16.8889
   5   2.0000      -0.547845       -14.9076
   6   2.0000      -0.537465       -14.6252
   7   2.0000      -0.422364       -11.4931
   8   2.0000      -0.373679       -10.1683
   9   0.0000       0.069829         1.9001
  10   0.0000       0.138101         3.7579
  11   0.0000       0.157878         4.2961
  12   0.0000       0.163048         4.4368
  13   0.0000       0.188048         5.1170

MULLIKEN ATOMIC CHARGES
-----------------------
   0 C :   -0.009628
   1 O :    0.000829
   2 H :    0.000028
   3 H :   -0.003250
   4 H :    0.001435
   5 H :   -0.000700
   6 C :   -0.145014
   7 O :   -0.472831
   8 H :    0.314095
   9 H :    0.100546
  10 H :    0.113858
  11 H :    0.100632
Sum of atomic charges:   -0.0000000

LOEWDIN ATOMIC CHARGES
----------------------
   0 C :   -0.016706
   1 O :   -0.009075
   2 H :   -0.000671
   3 H :   -0.004075
   4 H :   -0.001076
   5 H :   -0.000253
   6 C :   -0.386813
   7 O :   -0.032580
   8 H :    0.162980
   9 H :    0.098180
  10 H :    0.099096
  11 H :    0.090992

  Mayer bond orders larger than 0.1
B(  6-C ,  7-O ) :   0.9877 B(  6-C ,  9-H ) :   0.9870 B(  6-C , 10-H ) :   0.9774
B(  6-C , 11-H ) :   0.9772 B(  7-O ,  8-H ) :   0.9135

Dispersion correction           -0.000242651
FINAL SINGLE POINT ENERGY      -115.732317028936

DIPOLE MOMENT
-------------
                                X             Y             Z
Electronic contribution:      1.77725      -0.22411       0.35624
Nuclear contribution   :     -2.06389      -0.02033      -0.87102
                        -----------------------------------------
Total Dipole Moment    :     -0.28664      -0.24444      -0.51478
                        -----------------------------------------
Magnitude (a.u.)       :      0.63790
Magnitude (Debye)      :      1.62140

Rotational constants in cm-1:     4.653472     0.846541     0.817027
Rotational constants in MHz : 139507.587148 25378.667193 24493.852294

                             ****ORCA TERMINATED NORMALLY****
TOTAL RUN TIME: 0 days 0 hours 0 minutes 51 seconds 136 msec
