                         Program Version 4.1.2  - RELEASE  -
|  1> #Run DFT-D3 single point of the dimer
|  2> ! wB97X-D3 def2-TZVP TIGHTSCF CHELPG PMODEL PAL8
|  3>
|  4> %base "2-52_DFT_AB"
|  5>
|  6> %scf
|  7> MaxIter 1000
|  8> end
|  9>
| 10> * xyz 0 1
| 11>   C                      -8.188592            6.299989             8.631116
| 12>   O                      -7.155412            5.502019             8.031139
| 13>   H                      -6.397915            6.059291             7.795830
| 14>   H                      -7.792349            7.169263             9.225792
| 15>   H                      -9.011123            6.514553             7.862433
| 16>   H                      -8.740029            5.735765             9.411922
| 17>   C                      -7.882840            8.198447             6.301070
| 18>   O                      -8.758132            8.676270             7.247108
| 19>   H                      -8.616957            9.605684             7.313643
| 20>   H                      -7.842464            8.784881             5.442997
| 21>   H                      -6.822928            8.242342             6.683947
| 22>   H                      -8.000335            7.119425             5.991361
| 23> *
| 24>
| 25> #Run DFT-D3 single point of the molecule with dimer basis set
| 26> $new_job
| 27> %base "2-52_DFT_A"
| 28> ! wB97X-D3 def2-TZVP TIGHTSCF CHELPG PMODEL
| 29>
| 30> %scf
| 31> MaxIter 1000
| 32> end
| 33>
| 34> * xyz 0 1
| 35>   C                      -8.188592            6.299989             8.631116
| 36>   O                      -7.155412            5.502019             8.031139
| 37>   H                      -6.397915            6.059291             7.795830
| 38>   H                      -7.792349            7.169263             9.225792
| 39>   H                      -9.011123            6.514553             7.862433
| 40>   H                      -8.740029            5.735765             9.411922
| 41>   C                    : -7.882840            8.198447             6.301070
| 42>   O                    : -8.758132            8.676270             7.247108
| 43>   H                    : -8.616957            9.605684             7.313643
| 44>   H                    : -7.842464            8.784881             5.442997
| 45>   H                    : -6.822928            8.242342             6.683947
| 46>   H                    : -8.000335            7.119425             5.991361
| 47> *
| 48>
| 49> #Run DFT-D3 single point of the particle with dimer basis set
| 50> $new_job
| 51> %base "2-52_DFT_B"
| 52> ! wB97X-D3 def2-TZVP TIGHTSCF CHELPG PMODEL
| 53>
| 54> %scf
| 55> MaxIter 1000
| 56> end
| 57>
| 58> * xyz 0 1
| 59>   C                    : -8.188592            6.299989             8.631116
| 60>   O                    : -7.155412            5.502019             8.031139
| 61>   H                    : -6.397915            6.059291             7.795830
| 62>   H                    : -7.792349            7.169263             9.225792
| 63>   H                    : -9.011123            6.514553             7.862433
| 64>   H                    : -8.740029            5.735765             9.411922
| 65>   C                      -7.882840            8.198447             6.301070
| 66>   O                      -8.758132            8.676270             7.247108
| 67>   H                      -8.616957            9.605684             7.313643
| 68>   H                      -7.842464            8.784881             5.442997
| 69>   H                      -6.822928            8.242342             6.683947
| 70>   H                      -8.000335            7.119425             5.991361
| 71> *
| 72>
| 73>                          ****END OF INPUT****
 Total Charge           Charge          ....    0
 Multiplicity           Mult            ....    1
 Number of Electrons    NEL             ....   36
Dispersion correction           -0.002542251
FINAL SINGLE POINT ENERGY      -231.456054728126
Dispersion correction           -0.000284847
FINAL SINGLE POINT ENERGY      -115.730361090772

CARTESIAN COORDINATES (ANGSTROEM)
---------------------------------
  C     -8.188592    6.299989    8.631116
  O     -7.155412    5.502019    8.031139
  H     -6.397915    6.059291    7.795830
  H     -7.792349    7.169263    9.225792
  H     -9.011123    6.514553    7.862433
  H     -8.740029    5.735765    9.411922
  C     -7.882840    8.198447    6.301070
  O     -8.758132    8.676270    7.247108
  H     -8.616957    9.605684    7.313643
  H     -7.842464    8.784881    5.442997
  H     -6.822928    8.242342    6.683947
  H     -8.000335    7.119425    5.991361

 Multiplicity           Mult            ....    1
 Number of Electrons    NEL             ....   18
 Basis Dimension        Dim             ....  172

ORBITAL ENERGIES
----------------

  NO   OCC          E(Eh)            E(eV)
   0   2.0000     -19.232071      -523.3313
   1   2.0000     -10.311726      -280.5963
   2   2.0000      -1.155215       -31.4350
   3   2.0000      -0.796397       -21.6711
   4   2.0000      -0.627396       -17.0723
   5   2.0000      -0.542346       -14.7580
   6   2.0000      -0.533786       -14.5251
   7   2.0000      -0.434782       -11.8310
   8   2.0000      -0.369693       -10.0599
   9   0.0000       0.097471         2.6523
  10   0.0000       0.129990         3.5372
  11   0.0000       0.151582         4.1248
  12   0.0000       0.181097         4.9279
  13   0.0000       0.198376         5.3981

MULLIKEN ATOMIC CHARGES
-----------------------
   0 C :    0.023516
   1 O :   -0.001549
   2 H :   -0.001271
   3 H :   -0.012584
   4 H :   -0.003550
   5 H :    0.000437
   6 C :   -0.199590
   7 O :   -0.453890
   8 H :    0.312721
   9 H :    0.119938
  10 H :    0.096064
  11 H :    0.119758
Sum of atomic charges:   -0.0000000

LOEWDIN ATOMIC CHARGES
----------------------
   0 C :   -0.035234
   1 O :   -0.002483
   2 H :   -0.004705
   3 H :   -0.006485
   4 H :   -0.013459
   5 H :   -0.000202
   6 C :   -0.404713
   7 O :   -0.005260
   8 H :    0.164617
   9 H :    0.082492
  10 H :    0.101584
  11 H :    0.123848

  Mayer bond orders larger than 0.1
B(  6-C ,  7-O ) :   1.0061 B(  6-C ,  9-H ) :   0.9721 B(  6-C , 10-H ) :   0.9819
B(  6-C , 11-H ) :   0.9727 B(  7-O ,  8-H ) :   0.8989

Dispersion correction           -0.000225157
FINAL SINGLE POINT ENERGY      -115.729646466041

DIPOLE MOMENT
-------------
                                X             Y             Z
Electronic contribution:     -1.43713       0.54196       1.24024
Nuclear contribution   :      1.83745      -0.10612      -1.57905
                        -----------------------------------------
Total Dipole Moment    :      0.40032       0.43584      -0.33881
                        -----------------------------------------
Magnitude (a.u.)       :      0.68191
Magnitude (Debye)      :      1.73328

Rotational constants in cm-1:     4.445189     0.862557     0.825913
Rotational constants in MHz : 133263.400799 25858.816172 24760.237338

                             ****ORCA TERMINATED NORMALLY****
TOTAL RUN TIME: 0 days 0 hours 6 minutes 5 seconds 686 msec
