                         Program Version 4.1.2  - RELEASE  -
|  1> #Run DFT-D3 single point of the dimer
|  2> ! wB97X-D3 def2-TZVP TIGHTSCF CHELPG PMODEL PAL8
|  3>
|  4> %base "13-122_DFT_AB"
|  5>
|  6> %scf
|  7> MaxIter 1000
|  8> end
|  9>
| 10> * xyz 0 1
| 11>   C                      -4.441860            0.252273             -10.388572
| 12>   O                      -5.831980            0.272758             -10.110588
| 13>   H                      -6.199616            0.251479             -11.006176
| 14>   H                      -4.139284            1.101493             -11.007962
| 15>   H                      -3.881177            0.211888             -9.421861
| 16>   H                      -4.225145            -0.703041            -10.844103
| 17>   C                      -1.383171            2.494834             -7.774081
| 18>   O                      -2.695883            2.071175             -8.055564
| 19>   H                      -3.226363            2.757146             -8.538271
| 20>   H                      -1.414707            3.136260             -6.875296
| 21>   H                      -0.763160            1.607166             -7.637701
| 22>   H                      -0.942670            3.070044             -8.613933
| 23> *
| 24>
| 25> #Run DFT-D3 single point of the molecule with dimer basis set
| 26> $new_job
| 27> %base "13-122_DFT_A"
| 28> ! wB97X-D3 def2-TZVP TIGHTSCF CHELPG PMODEL
| 29>
| 30> %scf
| 31> MaxIter 1000
| 32> end
| 33>
| 34> * xyz 0 1
| 35>   C                      -4.441860            0.252273             -10.388572
| 36>   O                      -5.831980            0.272758             -10.110588
| 37>   H                      -6.199616            0.251479             -11.006176
| 38>   H                      -4.139284            1.101493             -11.007962
| 39>   H                      -3.881177            0.211888             -9.421861
| 40>   H                      -4.225145            -0.703041            -10.844103
| 41>   C                    : -1.383171            2.494834             -7.774081
| 42>   O                    : -2.695883            2.071175             -8.055564
| 43>   H                    : -3.226363            2.757146             -8.538271
| 44>   H                    : -1.414707            3.136260             -6.875296
| 45>   H                    : -0.763160            1.607166             -7.637701
| 46>   H                    : -0.942670            3.070044             -8.613933
| 47> *
| 48>
| 49> #Run DFT-D3 single point of the particle with dimer basis set
| 50> $new_job
| 51> %base "13-122_DFT_B"
| 52> ! wB97X-D3 def2-TZVP TIGHTSCF CHELPG PMODEL
| 53>
| 54> %scf
| 55> MaxIter 1000
| 56> end
| 57>
| 58> * xyz 0 1
| 59>   C                    : -4.441860            0.252273             -10.388572
| 60>   O                    : -5.831980            0.272758             -10.110588
| 61>   H                    : -6.199616            0.251479             -11.006176
| 62>   H                    : -4.139284            1.101493             -11.007962
| 63>   H                    : -3.881177            0.211888             -9.421861
| 64>   H                    : -4.225145            -0.703041            -10.844103
| 65>   C                      -1.383171            2.494834             -7.774081
| 66>   O                      -2.695883            2.071175             -8.055564
| 67>   H                      -3.226363            2.757146             -8.538271
| 68>   H                      -1.414707            3.136260             -6.875296
| 69>   H                      -0.763160            1.607166             -7.637701
| 70>   H                      -0.942670            3.070044             -8.613933
| 71> *
| 72>
| 73>                          ****END OF INPUT****
 Total Charge           Charge          ....    0
 Multiplicity           Mult            ....    1
 Number of Electrons    NEL             ....   36
Dispersion correction           -0.001426341
FINAL SINGLE POINT ENERGY      -231.469633056720
Dispersion correction           -0.000213209
FINAL SINGLE POINT ENERGY      -115.733452918720

CARTESIAN COORDINATES (ANGSTROEM)
---------------------------------
  C     -4.441860    0.252273  -10.388572
  O     -5.831980    0.272758  -10.110588
  H     -6.199616    0.251479  -11.006176
  H     -4.139284    1.101493  -11.007962
  H     -3.881177    0.211888   -9.421861
  H     -4.225145   -0.703041  -10.844103
  C     -1.383171    2.494834   -7.774081
  O     -2.695883    2.071175   -8.055564
  H     -3.226363    2.757146   -8.538271
  H     -1.414707    3.136260   -6.875296
  H     -0.763160    1.607166   -7.637701
  H     -0.942670    3.070044   -8.613933

 Multiplicity           Mult            ....    1
 Number of Electrons    NEL             ....   18
 Basis Dimension        Dim             ....  172

ORBITAL ENERGIES
----------------

  NO   OCC          E(Eh)            E(eV)
   0   2.0000     -19.229683      -523.2663
   1   2.0000     -10.314871      -280.6819
   2   2.0000      -1.128810       -30.7165
   3   2.0000      -0.791555       -21.5393
   4   2.0000      -0.606962       -16.5163
   5   2.0000      -0.544928       -14.8282
   6   2.0000      -0.524989       -14.2857
   7   2.0000      -0.426161       -11.5964
   8   2.0000      -0.370592       -10.0843
   9   0.0000       0.089552         2.4368
  10   0.0000       0.120968         3.2917
  11   0.0000       0.153819         4.1856
  12   0.0000       0.179907         4.8955
  13   0.0000       0.193291         5.2597

MULLIKEN ATOMIC CHARGES
-----------------------
   0 C :   -0.002610
   1 O :   -0.000048
   2 H :   -0.000039
   3 H :   -0.001641
   4 H :   -0.004751
   5 H :   -0.000574
   6 C :   -0.153076
   7 O :   -0.481229
   8 H :    0.321088
   9 H :    0.100803
  10 H :    0.121175
  11 H :    0.100903
Sum of atomic charges:   -0.0000000

LOEWDIN ATOMIC CHARGES
----------------------
   0 C :   -0.008158
   1 O :   -0.000024
   2 H :   -0.000017
   3 H :   -0.001096
   4 H :   -0.010644
   5 H :   -0.000070
   6 C :   -0.390310
   7 O :   -0.078649
   8 H :    0.186935
   9 H :    0.097478
  10 H :    0.107942
  11 H :    0.096613

  Mayer bond orders larger than 0.1
B(  6-C ,  7-O ) :   0.9910 B(  6-C ,  9-H ) :   0.9742 B(  6-C , 10-H ) :   0.9731
B(  6-C , 11-H ) :   0.9764 B(  7-O ,  8-H ) :   0.8871

Dispersion correction           -0.000247395
FINAL SINGLE POINT ENERGY      -115.734964837233

DIPOLE MOMENT
-------------
                                X             Y             Z
Electronic contribution:     -1.58049      -0.66929      -0.26072
Nuclear contribution   :      1.78263       1.27535       0.05907
                        -----------------------------------------
Total Dipole Moment    :      0.20214       0.60606      -0.20165
                        -----------------------------------------
Magnitude (a.u.)       :      0.66995
Magnitude (Debye)      :      1.70287

Rotational constants in cm-1:     4.186296     0.832428     0.805579
Rotational constants in MHz : 125501.999216 24955.571119 24150.638409

                             ****ORCA TERMINATED NORMALLY****
TOTAL RUN TIME: 0 days 0 hours 0 minutes 59 seconds 122 msec
