                         Program Version 4.1.2  - RELEASE  -
|  1> #Run DFT-D3 single point of the dimer
|  2> ! wB97X-D3 def2-TZVP TIGHTSCF CHELPG PMODEL PAL8
|  3>
|  4> %base "4-0_DFT_AB"
|  5>
|  6> %scf
|  7> MaxIter 1000
|  8> end
|  9>
| 10> * xyz 0 1
| 11>   C                      9.510002             3.753170             -5.325528
| 12>   O                      9.876401             4.225670             -4.068210
| 13>   H                      10.364098            5.018810             -4.265636
| 14>   H                      8.978419             2.857762             -5.197583
| 15>   H                      8.779346             4.325251             -5.874902
| 16>   H                      10.363160            3.582555             -6.031037
| 17>   C                      8.304697             0.773642             -7.879795
| 18>   O                      7.697569             -0.052126            -8.879199
| 19>   H                      7.046114             -0.492704            -8.416586
| 20>   H                      8.728058             0.224718             -7.058519
| 21>   H                      9.138744             1.205424             -8.296531
| 22>   H                      7.608282             1.530593             -7.478363
| 23> *
| 24>
| 25> #Run DFT-D3 single point of the molecule with dimer basis set
| 26> $new_job
| 27> %base "4-0_DFT_A"
| 28> ! wB97X-D3 def2-TZVP TIGHTSCF CHELPG PMODEL
| 29>
| 30> %scf
| 31> MaxIter 1000
| 32> end
| 33>
| 34> * xyz 0 1
| 35>   C                      9.510002             3.753170             -5.325528
| 36>   O                      9.876401             4.225670             -4.068210
| 37>   H                      10.364098            5.018810             -4.265636
| 38>   H                      8.978419             2.857762             -5.197583
| 39>   H                      8.779346             4.325251             -5.874902
| 40>   H                      10.363160            3.582555             -6.031037
| 41>   C                    : 8.304697             0.773642             -7.879795
| 42>   O                    : 7.697569             -0.052126            -8.879199
| 43>   H                    : 7.046114             -0.492704            -8.416586
| 44>   H                    : 8.728058             0.224718             -7.058519
| 45>   H                    : 9.138744             1.205424             -8.296531
| 46>   H                    : 7.608282             1.530593             -7.478363
| 47> *
| 48>
| 49> #Run DFT-D3 single point of the particle with dimer basis set
| 50> $new_job
| 51> %base "4-0_DFT_B"
| 52> ! wB97X-D3 def2-TZVP TIGHTSCF CHELPG PMODEL
| 53>
| 54> %scf
| 55> MaxIter 1000
| 56> end
| 57>
| 58> * xyz 0 1
| 59>   C                    : 9.510002             3.753170             -5.325528
| 60>   O                    : 9.876401             4.225670             -4.068210
| 61>   H                    : 10.364098            5.018810             -4.265636
| 62>   H                    : 8.978419             2.857762             -5.197583
| 63>   H                    : 8.779346             4.325251             -5.874902
| 64>   H                    : 10.363160            3.582555             -6.031037
| 65>   C                      8.304697             0.773642             -7.879795
| 66>   O                      7.697569             -0.052126            -8.879199
| 67>   H                      7.046114             -0.492704            -8.416586
| 68>   H                      8.728058             0.224718             -7.058519
| 69>   H                      9.138744             1.205424             -8.296531
| 70>   H                      7.608282             1.530593             -7.478363
| 71> *
| 72>
| 73>                          ****END OF INPUT****
 Total Charge           Charge          ....    0
 Multiplicity           Mult            ....    1
 Number of Electrons    NEL             ....   36
Dispersion correction           -0.001282786
FINAL SINGLE POINT ENERGY      -231.462923691177
Dispersion correction           -0.000233802
FINAL SINGLE POINT ENERGY      -115.732151475885

CARTESIAN COORDINATES (ANGSTROEM)
---------------------------------
  C      9.510002    3.753170   -5.325528
  O      9.876401    4.225670   -4.068210
  H     10.364098    5.018810   -4.265636
  H      8.978419    2.857762   -5.197583
  H      8.779346    4.325251   -5.874902
  H     10.363160    3.582555   -6.031037
  C      8.304697    0.773642   -7.879795
  O      7.697569   -0.052126   -8.879199
  H      7.046114   -0.492704   -8.416586
  H      8.728058    0.224718   -7.058519
  H      9.138744    1.205424   -8.296531
  H      7.608282    1.530593   -7.478363

 Multiplicity           Mult            ....    1
 Number of Electrons    NEL             ....   18
 Basis Dimension        Dim             ....  172

ORBITAL ENERGIES
----------------

  NO   OCC          E(Eh)            E(eV)
   0   2.0000     -19.227297      -523.2014
   1   2.0000     -10.305952      -280.4392
   2   2.0000      -1.144164       -31.1343
   3   2.0000      -0.806384       -21.9428
   4   2.0000      -0.612833       -16.6760
   5   2.0000      -0.546682       -14.8760
   6   2.0000      -0.525342       -14.2953
   7   2.0000      -0.445581       -12.1249
   8   2.0000      -0.377990       -10.2856
   9   0.0000       0.079884         2.1737
  10   0.0000       0.121531         3.3070
  11   0.0000       0.141451         3.8491
  12   0.0000       0.179476         4.8838
  13   0.0000       0.185451         5.0464

MULLIKEN ATOMIC CHARGES
-----------------------
   0 C :    0.001168
   1 O :   -0.000016
   2 H :   -0.000002
   3 H :   -0.001494
   4 H :   -0.000257
   5 H :   -0.000218
   6 C :   -0.173982
   7 O :   -0.458735
   8 H :    0.301689
   9 H :    0.104200
  10 H :    0.124042
  11 H :    0.103604
Sum of atomic charges:   -0.0000000

LOEWDIN ATOMIC CHARGES
----------------------
   0 C :   -0.001198
   1 O :   -0.000008
   2 H :   -0.000003
   3 H :   -0.000983
   4 H :   -0.000215
   5 H :   -0.000124
   6 C :   -0.362873
   7 O :   -0.059554
   8 H :    0.136309
   9 H :    0.093680
  10 H :    0.094943
  11 H :    0.100027

  Mayer bond orders larger than 0.1
B(  6-C ,  7-O ) :   1.0041 B(  6-C ,  9-H ) :   0.9740 B(  6-C , 10-H ) :   0.9763
B(  6-C , 11-H ) :   0.9759 B(  7-O ,  8-H ) :   0.9173

Dispersion correction           -0.000227093
FINAL SINGLE POINT ENERGY      -115.729985517749

DIPOLE MOMENT
-------------
                                X             Y             Z
Electronic contribution:     -0.69965      -0.98221      -1.39274
Nuclear contribution   :      0.56134       1.02765       2.08589
                        -----------------------------------------
Total Dipole Moment    :     -0.13831       0.04543       0.69315
                        -----------------------------------------
Magnitude (a.u.)       :      0.70828
Magnitude (Debye)      :      1.80029

Rotational constants in cm-1:     4.522139     0.821674     0.799064
Rotational constants in MHz : 135570.317123 24633.168482 23955.327620

                             ****ORCA TERMINATED NORMALLY****
TOTAL RUN TIME: 0 days 0 hours 1 minutes 35 seconds 313 msec
