                         Program Version 4.1.2  - RELEASE  -
|  1> #Run DFT-D3 single point of the dimer
|  2> ! wB97X-D3 def2-TZVP TIGHTSCF CHELPG PMODEL PAL8
|  3>
|  4> %base "16-183_DFT_AB"
|  5>
|  6> %scf
|  7> MaxIter 1000
|  8> end
|  9>
| 10> * xyz 0 1
| 11>   C                      -10.437570           -7.691088            3.203041
| 12>   O                      -9.351927            -7.248831            3.985945
| 13>   H                      -9.736368            -6.954246            4.808212
| 14>   H                      -10.397779           -7.595246            2.129901
| 15>   H                      -10.486399           -8.739084            3.351331
| 16>   H                      -11.322131           -7.209878            3.542003
| 17>   C                      -6.926930            -7.038993            6.030844
| 18>   O                      -7.862486            -8.078517            5.983902
| 19>   H                      -7.752567            -8.571505            5.175237
| 20>   H                      -7.097751            -6.429771            6.946809
| 21>   H                      -5.886073            -7.377496            6.057846
| 22>   H                      -7.004129            -6.308239            5.201193
| 23> *
| 24>
| 25> #Run DFT-D3 single point of the molecule with dimer basis set
| 26> $new_job
| 27> %base "16-183_DFT_A"
| 28> ! wB97X-D3 def2-TZVP TIGHTSCF CHELPG PMODEL
| 29>
| 30> %scf
| 31> MaxIter 1000
| 32> end
| 33>
| 34> * xyz 0 1
| 35>   C                      -10.437570           -7.691088            3.203041
| 36>   O                      -9.351927            -7.248831            3.985945
| 37>   H                      -9.736368            -6.954246            4.808212
| 38>   H                      -10.397779           -7.595246            2.129901
| 39>   H                      -10.486399           -8.739084            3.351331
| 40>   H                      -11.322131           -7.209878            3.542003
| 41>   C                    : -6.926930            -7.038993            6.030844
| 42>   O                    : -7.862486            -8.078517            5.983902
| 43>   H                    : -7.752567            -8.571505            5.175237
| 44>   H                    : -7.097751            -6.429771            6.946809
| 45>   H                    : -5.886073            -7.377496            6.057846
| 46>   H                    : -7.004129            -6.308239            5.201193
| 47> *
| 48>
| 49> #Run DFT-D3 single point of the particle with dimer basis set
| 50> $new_job
| 51> %base "16-183_DFT_B"
| 52> ! wB97X-D3 def2-TZVP TIGHTSCF CHELPG PMODEL
| 53>
| 54> %scf
| 55> MaxIter 1000
| 56> end
| 57>
| 58> * xyz 0 1
| 59>   C                    : -10.437570           -7.691088            3.203041
| 60>   O                    : -9.351927            -7.248831            3.985945
| 61>   H                    : -9.736368            -6.954246            4.808212
| 62>   H                    : -10.397779           -7.595246            2.129901
| 63>   H                    : -10.486399           -8.739084            3.351331
| 64>   H                    : -11.322131           -7.209878            3.542003
| 65>   C                      -6.926930            -7.038993            6.030844
| 66>   O                      -7.862486            -8.078517            5.983902
| 67>   H                      -7.752567            -8.571505            5.175237
| 68>   H                      -7.097751            -6.429771            6.946809
| 69>   H                      -5.886073            -7.377496            6.057846
| 70>   H                      -7.004129            -6.308239            5.201193
| 71> *
| 72>
| 73>                          ****END OF INPUT****
 Total Charge           Charge          ....    0
 Multiplicity           Mult            ....    1
 Number of Electrons    NEL             ....   36
Dispersion correction           -0.001850730
FINAL SINGLE POINT ENERGY      -231.468142866659
Dispersion correction           -0.000218616
FINAL SINGLE POINT ENERGY      -115.729254480763

CARTESIAN COORDINATES (ANGSTROEM)
---------------------------------
  C    -10.437570   -7.691088    3.203041
  O     -9.351927   -7.248831    3.985945
  H     -9.736368   -6.954246    4.808212
  H    -10.397779   -7.595246    2.129901
  H    -10.486399   -8.739084    3.351331
  H    -11.322131   -7.209878    3.542003
  C     -6.926930   -7.038993    6.030844
  O     -7.862486   -8.078517    5.983902
  H     -7.752567   -8.571505    5.175237
  H     -7.097751   -6.429771    6.946809
  H     -5.886073   -7.377496    6.057846
  H     -7.004129   -6.308239    5.201193

 Multiplicity           Mult            ....    1
 Number of Electrons    NEL             ....   18
 Basis Dimension        Dim             ....  172

ORBITAL ENERGIES
----------------

  NO   OCC          E(Eh)            E(eV)
   0   2.0000     -19.233864      -523.3800
   1   2.0000     -10.315532      -280.6999
   2   2.0000      -1.143260       -31.1097
   3   2.0000      -0.795464       -21.6457
   4   2.0000      -0.617574       -16.8050
   5   2.0000      -0.540791       -14.7157
   6   2.0000      -0.526995       -14.3403
   7   2.0000      -0.431661       -11.7461
   8   2.0000      -0.375986       -10.2311
   9   0.0000       0.085356         2.3226
  10   0.0000       0.128690         3.5018
  11   0.0000       0.149194         4.0598
  12   0.0000       0.182733         4.9724
  13   0.0000       0.192367         5.2346

MULLIKEN ATOMIC CHARGES
-----------------------
   0 C :   -0.002891
   1 O :   -0.007781
   2 H :   -0.004143
   3 H :    0.000013
   4 H :   -0.000389
   5 H :    0.000244
   6 C :   -0.172446
   7 O :   -0.456619
   8 H :    0.316970
   9 H :    0.119437
  10 H :    0.106550
  11 H :    0.101056
Sum of atomic charges:   -0.0000000

LOEWDIN ATOMIC CHARGES
----------------------
   0 C :   -0.002287
   1 O :   -0.020477
   2 H :   -0.011720
   3 H :   -0.000045
   4 H :   -0.000293
   5 H :   -0.000039
   6 C :   -0.402831
   7 O :   -0.034016
   8 H :    0.168547
   9 H :    0.113945
  10 H :    0.093925
  11 H :    0.095292

  Mayer bond orders larger than 0.1
B(  6-C ,  7-O ) :   1.0023 B(  6-C ,  9-H ) :   0.9753 B(  6-C , 10-H ) :   0.9749
B(  6-C , 11-H ) :   0.9732 B(  7-O ,  8-H ) :   0.8971

Dispersion correction           -0.000253556
FINAL SINGLE POINT ENERGY      -115.737147694370

DIPOLE MOMENT
-------------
                                X             Y             Z
Electronic contribution:     -1.28028      -1.42181       0.04157
Nuclear contribution   :      1.71921       1.50487      -0.52081
                        -----------------------------------------
Total Dipole Moment    :      0.43894       0.08306      -0.47924
                        -----------------------------------------
Magnitude (a.u.)       :      0.65516
Magnitude (Debye)      :      1.66529

Rotational constants in cm-1:     4.344038     0.833634     0.804748
Rotational constants in MHz : 130230.981577 24991.708831 24125.732725

                             ****ORCA TERMINATED NORMALLY****
TOTAL RUN TIME: 0 days 0 hours 1 minutes 9 seconds 36 msec
