                         Program Version 4.1.2  - RELEASE  -
|  1> #Run DFT-D3 single point of the dimer
|  2> ! wB97X-D3 def2-TZVP TIGHTSCF CHELPG PMODEL PAL8
|  3>
|  4> %base "7-208_DFT_AB"
|  5>
|  6> %scf
|  7> MaxIter 1000
|  8> end
|  9>
| 10> * xyz 0 1
| 11>   C                      -8.073983            1.833345             -9.588540
| 12>   O                      -7.130411            2.584063             -8.864001
| 13>   H                      -6.456292            1.998703             -8.551465
| 14>   H                      -8.235140            0.778497             -9.290424
| 15>   H                      -9.112701            2.244961             -9.539074
| 16>   H                      -7.848559            1.591181             -10.633758
| 17>   C                      -5.422532            -0.561418            -9.388061
| 18>   O                      -5.397293            0.003766             -8.132950
| 19>   H                      -4.584833            -0.355716            -7.780727
| 20>   H                      -6.177468            0.021668             -9.869926
| 21>   H                      -4.539351            -0.243569            -10.024074
| 22>   H                      -5.560223            -1.636570            -9.374983
| 23> *
| 24>
| 25> #Run DFT-D3 single point of the molecule with dimer basis set
| 26> $new_job
| 27> %base "7-208_DFT_A"
| 28> ! wB97X-D3 def2-TZVP TIGHTSCF CHELPG PMODEL
| 29>
| 30> %scf
| 31> MaxIter 1000
| 32> end
| 33>
| 34> * xyz 0 1
| 35>   C                      -8.073983            1.833345             -9.588540
| 36>   O                      -7.130411            2.584063             -8.864001
| 37>   H                      -6.456292            1.998703             -8.551465
| 38>   H                      -8.235140            0.778497             -9.290424
| 39>   H                      -9.112701            2.244961             -9.539074
| 40>   H                      -7.848559            1.591181             -10.633758
| 41>   C                    : -5.422532            -0.561418            -9.388061
| 42>   O                    : -5.397293            0.003766             -8.132950
| 43>   H                    : -4.584833            -0.355716            -7.780727
| 44>   H                    : -6.177468            0.021668             -9.869926
| 45>   H                    : -4.539351            -0.243569            -10.024074
| 46>   H                    : -5.560223            -1.636570            -9.374983
| 47> *
| 48>
| 49> #Run DFT-D3 single point of the particle with dimer basis set
| 50> $new_job
| 51> %base "7-208_DFT_B"
| 52> ! wB97X-D3 def2-TZVP TIGHTSCF CHELPG PMODEL
| 53>
| 54> %scf
| 55> MaxIter 1000
| 56> end
| 57>
| 58> * xyz 0 1
| 59>   C                    : -8.073983            1.833345             -9.588540
| 60>   O                    : -7.130411            2.584063             -8.864001
| 61>   H                    : -6.456292            1.998703             -8.551465
| 62>   H                    : -8.235140            0.778497             -9.290424
| 63>   H                    : -9.112701            2.244961             -9.539074
| 64>   H                    : -7.848559            1.591181             -10.633758
| 65>   C                      -5.422532            -0.561418            -9.388061
| 66>   O                      -5.397293            0.003766             -8.132950
| 67>   H                      -4.584833            -0.355716            -7.780727
| 68>   H                      -6.177468            0.021668             -9.869926
| 69>   H                      -4.539351            -0.243569            -10.024074
| 70>   H                      -5.560223            -1.636570            -9.374983
| 71> *
| 72>
| 73>                          ****END OF INPUT****
 Total Charge           Charge          ....    0
 Multiplicity           Mult            ....    1
 Number of Electrons    NEL             ....   36
Dispersion correction           -0.002159327
FINAL SINGLE POINT ENERGY      -231.462897554943
Dispersion correction           -0.000277076
FINAL SINGLE POINT ENERGY      -115.728944776058

CARTESIAN COORDINATES (ANGSTROEM)
---------------------------------
  C     -8.073983    1.833345   -9.588540
  O     -7.130411    2.584063   -8.864001
  H     -6.456292    1.998703   -8.551465
  H     -8.235140    0.778497   -9.290424
  H     -9.112701    2.244961   -9.539074
  H     -7.848559    1.591181  -10.633758
  C     -5.422532   -0.561418   -9.388061
  O     -5.397293    0.003766   -8.132950
  H     -4.584833   -0.355716   -7.780727
  H     -6.177468    0.021668   -9.869926
  H     -4.539351   -0.243569  -10.024074
  H     -5.560223   -1.636570   -9.374983

 Multiplicity           Mult            ....    1
 Number of Electrons    NEL             ....   18
 Basis Dimension        Dim             ....  172

ORBITAL ENERGIES
----------------

  NO   OCC          E(Eh)            E(eV)
   0   2.0000     -19.232157      -523.3336
   1   2.0000     -10.309095      -280.5247
   2   2.0000      -1.155334       -31.4382
   3   2.0000      -0.791375       -21.5344
   4   2.0000      -0.617816       -16.8116
   5   2.0000      -0.558061       -15.1856
   6   2.0000      -0.521701       -14.1962
   7   2.0000      -0.433776       -11.8036
   8   2.0000      -0.375338       -10.2135
   9   0.0000       0.094712         2.5773
  10   0.0000       0.123410         3.3582
  11   0.0000       0.158427         4.3110
  12   0.0000       0.186814         5.0835
  13   0.0000       0.195206         5.3118

MULLIKEN ATOMIC CHARGES
-----------------------
   0 C :    0.006794
   1 O :   -0.000800
   2 H :   -0.005606
   3 H :   -0.000271
   4 H :    0.000356
   5 H :   -0.001559
   6 C :   -0.163011
   7 O :   -0.447688
   8 H :    0.308951
   9 H :    0.100808
  10 H :    0.095672
  11 H :    0.106353
Sum of atomic charges:    0.0000000

LOEWDIN ATOMIC CHARGES
----------------------
   0 C :   -0.011566
   1 O :   -0.001415
   2 H :   -0.017283
   3 H :   -0.003321
   4 H :   -0.000056
   5 H :   -0.002565
   6 C :   -0.415657
   7 O :   -0.027501
   8 H :    0.170360
   9 H :    0.114010
  10 H :    0.101393
  11 H :    0.093601

  Mayer bond orders larger than 0.1
B(  6-C ,  7-O ) :   1.0051 B(  6-C ,  9-H ) :   0.9875 B(  6-C , 10-H ) :   0.9766
B(  6-C , 11-H ) :   0.9689 B(  7-O ,  8-H ) :   0.9047

Dispersion correction           -0.000206468
FINAL SINGLE POINT ENERGY      -115.728385125736

DIPOLE MOMENT
-------------
                                X             Y             Z
Electronic contribution:     -0.15538       0.62376       1.70208
Nuclear contribution   :      0.63178      -1.02904      -1.93060
                        -----------------------------------------
Total Dipole Moment    :      0.47639      -0.40527      -0.22852
                        -----------------------------------------
Magnitude (a.u.)       :      0.66590
Magnitude (Debye)      :      1.69258

Rotational constants in cm-1:     4.183365     0.879771     0.854034
Rotational constants in MHz : 125414.127834 26374.885558 25603.283510

                             ****ORCA TERMINATED NORMALLY****
TOTAL RUN TIME: 0 days 0 hours 1 minutes 8 seconds 310 msec
