                         Program Version 4.1.2  - RELEASE  -
|  1> #Run DFT-D3 single point of the dimer
|  2> ! wB97X-D3 def2-TZVP TIGHTSCF CHELPG PMODEL PAL8
|  3>
|  4> %base "14-8_DFT_AB"
|  5>
|  6> %scf
|  7> MaxIter 1000
|  8> end
|  9>
| 10> * xyz 0 1
| 11>   C                      2.263257             -4.148155            5.412082
| 12>   O                      2.954997             -4.750595            6.535683
| 13>   H                      3.854224             -4.751128            6.203519
| 14>   H                      2.189910             -3.055356            5.686844
| 15>   H                      2.686634             -4.323060            4.395248
| 16>   H                      1.297417             -4.690642            5.387383
| 17>   C                      -0.225415            -6.095642            1.633426
| 18>   O                      0.536393             -4.945777            1.263949
| 19>   H                      0.282742             -4.668539            0.398102
| 20>   H                      -0.303400            -6.885576            0.849981
| 21>   H                      0.171865             -6.535752            2.542253
| 22>   H                      -1.226510            -5.752249            1.770612
| 23> *
| 24>
| 25> #Run DFT-D3 single point of the molecule with dimer basis set
| 26> $new_job
| 27> %base "14-8_DFT_A"
| 28> ! wB97X-D3 def2-TZVP TIGHTSCF CHELPG PMODEL
| 29>
| 30> %scf
| 31> MaxIter 1000
| 32> end
| 33>
| 34> * xyz 0 1
| 35>   C                      2.263257             -4.148155            5.412082
| 36>   O                      2.954997             -4.750595            6.535683
| 37>   H                      3.854224             -4.751128            6.203519
| 38>   H                      2.189910             -3.055356            5.686844
| 39>   H                      2.686634             -4.323060            4.395248
| 40>   H                      1.297417             -4.690642            5.387383
| 41>   C                    : -0.225415            -6.095642            1.633426
| 42>   O                    : 0.536393             -4.945777            1.263949
| 43>   H                    : 0.282742             -4.668539            0.398102
| 44>   H                    : -0.303400            -6.885576            0.849981
| 45>   H                    : 0.171865             -6.535752            2.542253
| 46>   H                    : -1.226510            -5.752249            1.770612
| 47> *
| 48>
| 49> #Run DFT-D3 single point of the particle with dimer basis set
| 50> $new_job
| 51> %base "14-8_DFT_B"
| 52> ! wB97X-D3 def2-TZVP TIGHTSCF CHELPG PMODEL
| 53>
| 54> %scf
| 55> MaxIter 1000
| 56> end
| 57>
| 58> * xyz 0 1
| 59>   C                    : 2.263257             -4.148155            5.412082
| 60>   O                    : 2.954997             -4.750595            6.535683
| 61>   H                    : 3.854224             -4.751128            6.203519
| 62>   H                    : 2.189910             -3.055356            5.686844
| 63>   H                    : 2.686634             -4.323060            4.395248
| 64>   H                    : 1.297417             -4.690642            5.387383
| 65>   C                      -0.225415            -6.095642            1.633426
| 66>   O                      0.536393             -4.945777            1.263949
| 67>   H                      0.282742             -4.668539            0.398102
| 68>   H                      -0.303400            -6.885576            0.849981
| 69>   H                      0.171865             -6.535752            2.542253
| 70>   H                      -1.226510            -5.752249            1.770612
| 71> *
| 72>
| 73>                          ****END OF INPUT****
 Total Charge           Charge          ....    0
 Multiplicity           Mult            ....    1
 Number of Electrons    NEL             ....   36
Dispersion correction           -0.000901197
FINAL SINGLE POINT ENERGY      -231.463740216099
Dispersion correction           -0.000245725
FINAL SINGLE POINT ENERGY      -115.728388784218

CARTESIAN COORDINATES (ANGSTROEM)
---------------------------------
  C      2.263257   -4.148155    5.412082
  O      2.954997   -4.750595    6.535683
  H      3.854224   -4.751128    6.203519
  H      2.189910   -3.055356    5.686844
  H      2.686634   -4.323060    4.395248
  H      1.297417   -4.690642    5.387383
  C     -0.225415   -6.095642    1.633426
  O      0.536393   -4.945777    1.263949
  H      0.282742   -4.668539    0.398102
  H     -0.303400   -6.885576    0.849981
  H      0.171865   -6.535752    2.542253
  H     -1.226510   -5.752249    1.770612

 Multiplicity           Mult            ....    1
 Number of Electrons    NEL             ....   18
 Basis Dimension        Dim             ....  172

ORBITAL ENERGIES
----------------

  NO   OCC          E(Eh)            E(eV)
   0   2.0000     -19.226714      -523.1855
   1   2.0000     -10.313418      -280.6424
   2   2.0000      -1.133818       -30.8528
   3   2.0000      -0.798947       -21.7404
   4   2.0000      -0.611336       -16.6353
   5   2.0000      -0.542210       -14.7543
   6   2.0000      -0.524682       -14.2773
   7   2.0000      -0.437076       -11.8935
   8   2.0000      -0.371470       -10.1082
   9   0.0000       0.092859         2.5268
  10   0.0000       0.117892         3.2080
  11   0.0000       0.153154         4.1675
  12   0.0000       0.172173         4.6851
  13   0.0000       0.191116         5.2005

MULLIKEN ATOMIC CHARGES
-----------------------
   0 C :    0.000115
   1 O :   -0.000001
   2 H :   -0.000002
   3 H :   -0.000013
   4 H :   -0.001092
   5 H :   -0.000049
   6 C :   -0.157343
   7 O :   -0.478969
   8 H :    0.310975
   9 H :    0.099108
  10 H :    0.121928
  11 H :    0.105344
Sum of atomic charges:   -0.0000000

LOEWDIN ATOMIC CHARGES
----------------------
   0 C :   -0.000293
   1 O :   -0.000006
   2 H :   -0.000001
   3 H :   -0.000001
   4 H :   -0.000387
   5 H :   -0.000096
   6 C :   -0.368930
   7 O :   -0.081642
   8 H :    0.156037
   9 H :    0.097471
  10 H :    0.107124
  11 H :    0.090724

  Mayer bond orders larger than 0.1
B(  6-C ,  7-O ) :   0.9877 B(  6-C ,  9-H ) :   0.9724 B(  6-C , 10-H ) :   0.9729
B(  6-C , 11-H ) :   0.9843 B(  7-O ,  8-H ) :   0.9025

Dispersion correction           -0.000239196
FINAL SINGLE POINT ENERGY      -115.734159339876

DIPOLE MOMENT
-------------
                                X             Y             Z
Electronic contribution:      1.07703       1.41177      -0.29411
Nuclear contribution   :     -1.56414      -1.70309      -0.10774
                        -----------------------------------------
Total Dipole Moment    :     -0.48711      -0.29132      -0.40185
                        -----------------------------------------
Magnitude (a.u.)       :      0.69543
Magnitude (Debye)      :      1.76765

Rotational constants in cm-1:     4.363417     0.822133     0.788070
Rotational constants in MHz : 130811.961326 24646.940343 23625.735983

                             ****ORCA TERMINATED NORMALLY****
TOTAL RUN TIME: 0 days 0 hours 0 minutes 51 seconds 984 msec
