                         Program Version 4.1.2  - RELEASE  -
|  1> #Run DFT-D3 single point of the dimer
|  2> ! wB97X-D3 def2-TZVP TIGHTSCF CHELPG PMODEL PAL8
|  3>
|  4> %base "19-117_DFT_AB"
|  5>
|  6> %scf
|  7> MaxIter 1000
|  8> end
|  9>
| 10> * xyz 0 1
| 11>   C                      -0.942349            -0.312623            6.462802
| 12>   O                      -1.254387            -1.464392            7.229617
| 13>   H                      -0.880571            -2.244624            6.848968
| 14>   H                      -1.109190            -0.446360            5.396069
| 15>   H                      -1.477128            0.535260             6.817403
| 16>   H                      0.090158             -0.179774            6.506438
| 17>   C                      2.150202             -4.868944            5.313812
| 18>   O                      1.539903             -3.847500            6.025287
| 19>   H                      1.102995             -3.372393            5.293624
| 20>   H                      2.596078             -5.698066            5.913052
| 21>   H                      1.498631             -5.241180            4.529990
| 22>   H                      2.939477             -4.406176            4.686918
| 23> *
| 24>
| 25> #Run DFT-D3 single point of the molecule with dimer basis set
| 26> $new_job
| 27> %base "19-117_DFT_A"
| 28> ! wB97X-D3 def2-TZVP TIGHTSCF CHELPG PMODEL
| 29>
| 30> %scf
| 31> MaxIter 1000
| 32> end
| 33>
| 34> * xyz 0 1
| 35>   C                      -0.942349            -0.312623            6.462802
| 36>   O                      -1.254387            -1.464392            7.229617
| 37>   H                      -0.880571            -2.244624            6.848968
| 38>   H                      -1.109190            -0.446360            5.396069
| 39>   H                      -1.477128            0.535260             6.817403
| 40>   H                      0.090158             -0.179774            6.506438
| 41>   C                    : 2.150202             -4.868944            5.313812
| 42>   O                    : 1.539903             -3.847500            6.025287
| 43>   H                    : 1.102995             -3.372393            5.293624
| 44>   H                    : 2.596078             -5.698066            5.913052
| 45>   H                    : 1.498631             -5.241180            4.529990
| 46>   H                    : 2.939477             -4.406176            4.686918
| 47> *
| 48>
| 49> #Run DFT-D3 single point of the particle with dimer basis set
| 50> $new_job
| 51> %base "19-117_DFT_B"
| 52> ! wB97X-D3 def2-TZVP TIGHTSCF CHELPG PMODEL
| 53>
| 54> %scf
| 55> MaxIter 1000
| 56> end
| 57>
| 58> * xyz 0 1
| 59>   C                    : -0.942349            -0.312623            6.462802
| 60>   O                    : -1.254387            -1.464392            7.229617
| 61>   H                    : -0.880571            -2.244624            6.848968
| 62>   H                    : -1.109190            -0.446360            5.396069
| 63>   H                    : -1.477128            0.535260             6.817403
| 64>   H                    : 0.090158             -0.179774            6.506438
| 65>   C                      2.150202             -4.868944            5.313812
| 66>   O                      1.539903             -3.847500            6.025287
| 67>   H                      1.102995             -3.372393            5.293624
| 68>   H                      2.596078             -5.698066            5.913052
| 69>   H                      1.498631             -5.241180            4.529990
| 70>   H                      2.939477             -4.406176            4.686918
| 71> *
| 72>
| 73>                          ****END OF INPUT****
 Total Charge           Charge          ....    0
 Multiplicity           Mult            ....    1
 Number of Electrons    NEL             ....   36
Dispersion correction           -0.001142633
FINAL SINGLE POINT ENERGY      -231.460996092975
Dispersion correction           -0.000226066
FINAL SINGLE POINT ENERGY      -115.732132324457

CARTESIAN COORDINATES (ANGSTROEM)
---------------------------------
  C     -0.942349   -0.312623    6.462802
  O     -1.254387   -1.464392    7.229617
  H     -0.880571   -2.244624    6.848968
  H     -1.109190   -0.446360    5.396069
  H     -1.477128    0.535260    6.817403
  H      0.090158   -0.179774    6.506438
  C      2.150202   -4.868944    5.313812
  O      1.539903   -3.847500    6.025287
  H      1.102995   -3.372393    5.293624
  H      2.596078   -5.698066    5.913052
  H      1.498631   -5.241180    4.529990
  H      2.939477   -4.406176    4.686918

 Multiplicity           Mult            ....    1
 Number of Electrons    NEL             ....   18
 Basis Dimension        Dim             ....  172

ORBITAL ENERGIES
----------------

  NO   OCC          E(Eh)            E(eV)
   0   2.0000     -19.234455      -523.3961
   1   2.0000     -10.314628      -280.6753
   2   2.0000      -1.149694       -31.2848
   3   2.0000      -0.787317       -21.4240
   4   2.0000      -0.619450       -16.8561
   5   2.0000      -0.537348       -14.6220
   6   2.0000      -0.533567       -14.5191
   7   2.0000      -0.444602       -12.0982
   8   2.0000      -0.365817        -9.9544
   9   0.0000       0.081971         2.2305
  10   0.0000       0.118635         3.2282
  11   0.0000       0.154488         4.2038
  12   0.0000       0.180821         4.9204
  13   0.0000       0.195911         5.3310

MULLIKEN ATOMIC CHARGES
-----------------------
   0 C :    0.000369
   1 O :    0.000490
   2 H :   -0.004532
   3 H :   -0.000033
   4 H :   -0.000014
   5 H :   -0.000431
   6 C :   -0.188946
   7 O :   -0.452471
   8 H :    0.321563
   9 H :    0.125348
  10 H :    0.102829
  11 H :    0.095828
Sum of atomic charges:   -0.0000000

LOEWDIN ATOMIC CHARGES
----------------------
   0 C :   -0.000364
   1 O :   -0.000138
   2 H :   -0.003841
   3 H :   -0.000055
   4 H :   -0.000004
   5 H :   -0.000189
   6 C :   -0.420443
   7 O :   -0.062509
   8 H :    0.189107
   9 H :    0.112463
  10 H :    0.090935
  11 H :    0.095037

  Mayer bond orders larger than 0.1
B(  6-C ,  7-O ) :   0.9944 B(  6-C ,  9-H ) :   0.9684 B(  6-C , 10-H ) :   0.9832
B(  6-C , 11-H ) :   0.9816 B(  7-O ,  8-H ) :   0.8934

Dispersion correction           -0.000203334
FINAL SINGLE POINT ENERGY      -115.728125568381

DIPOLE MOMENT
-------------
                                X             Y             Z
Electronic contribution:     -0.80190       1.19152       1.28953
Nuclear contribution   :      0.75903      -1.28513      -2.00955
                        -----------------------------------------
Total Dipole Moment    :     -0.04287      -0.09361      -0.72002
                        -----------------------------------------
Magnitude (a.u.)       :      0.72735
Magnitude (Debye)      :      1.84877

Rotational constants in cm-1:     4.192631     0.872287     0.822084
Rotational constants in MHz : 125691.908960 26150.518426 24645.460083

                             ****ORCA TERMINATED NORMALLY****
TOTAL RUN TIME: 0 days 0 hours 0 minutes 46 seconds 628 msec
