                         Program Version 4.1.2  - RELEASE  -
|  1> #Run DFT-D3 single point of the dimer
|  2> ! wB97X-D3 def2-TZVP TIGHTSCF CHELPG PMODEL PAL8
|  3>
|  4> %base "21-80_DFT_AB"
|  5>
|  6> %scf
|  7> MaxIter 1000
|  8> end
|  9>
| 10> * xyz 0 1
| 11>   C                      3.842016             6.695679             2.250202
| 12>   O                      2.873278             7.246164             1.343030
| 13>   H                      3.031708             6.919436             0.425400
| 14>   H                      3.817862             5.565453             2.173094
| 15>   H                      4.822762             6.953849             1.878522
| 16>   H                      3.663193             7.138407             3.241986
| 17>   C                      3.910685             9.782445             4.854193
| 18>   O                      4.156895             9.057687             6.072297
| 19>   H                      4.453599             9.647365             6.726900
| 20>   H                      3.645590             9.023861             4.088601
| 21>   H                      3.062189             10.520821            4.999484
| 22>   H                      4.779321             10.393356            4.511406
| 23> *
| 24>
| 25> #Run DFT-D3 single point of the molecule with dimer basis set
| 26> $new_job
| 27> %base "21-80_DFT_A"
| 28> ! wB97X-D3 def2-TZVP TIGHTSCF CHELPG PMODEL
| 29>
| 30> %scf
| 31> MaxIter 1000
| 32> end
| 33>
| 34> * xyz 0 1
| 35>   C                      3.842016             6.695679             2.250202
| 36>   O                      2.873278             7.246164             1.343030
| 37>   H                      3.031708             6.919436             0.425400
| 38>   H                      3.817862             5.565453             2.173094
| 39>   H                      4.822762             6.953849             1.878522
| 40>   H                      3.663193             7.138407             3.241986
| 41>   C                    : 3.910685             9.782445             4.854193
| 42>   O                    : 4.156895             9.057687             6.072297
| 43>   H                    : 4.453599             9.647365             6.726900
| 44>   H                    : 3.645590             9.023861             4.088601
| 45>   H                    : 3.062189             10.520821            4.999484
| 46>   H                    : 4.779321             10.393356            4.511406
| 47> *
| 48>
| 49> #Run DFT-D3 single point of the particle with dimer basis set
| 50> $new_job
| 51> %base "21-80_DFT_B"
| 52> ! wB97X-D3 def2-TZVP TIGHTSCF CHELPG PMODEL
| 53>
| 54> %scf
| 55> MaxIter 1000
| 56> end
| 57>
| 58> * xyz 0 1
| 59>   C                    : 3.842016             6.695679             2.250202
| 60>   O                    : 2.873278             7.246164             1.343030
| 61>   H                    : 3.031708             6.919436             0.425400
| 62>   H                    : 3.817862             5.565453             2.173094
| 63>   H                    : 4.822762             6.953849             1.878522
| 64>   H                    : 3.663193             7.138407             3.241986
| 65>   C                      3.910685             9.782445             4.854193
| 66>   O                      4.156895             9.057687             6.072297
| 67>   H                      4.453599             9.647365             6.726900
| 68>   H                      3.645590             9.023861             4.088601
| 69>   H                      3.062189             10.520821            4.999484
| 70>   H                      4.779321             10.393356            4.511406
| 71> *
| 72>
| 73>                          ****END OF INPUT****
 Total Charge           Charge          ....    0
 Multiplicity           Mult            ....    1
 Number of Electrons    NEL             ....   36
Dispersion correction           -0.001365548
FINAL SINGLE POINT ENERGY      -231.467008547287
Dispersion correction           -0.000238932
FINAL SINGLE POINT ENERGY      -115.732025635041

CARTESIAN COORDINATES (ANGSTROEM)
---------------------------------
  C      3.842016    6.695679    2.250202
  O      2.873278    7.246164    1.343030
  H      3.031708    6.919436    0.425400
  H      3.817862    5.565453    2.173094
  H      4.822762    6.953849    1.878522
  H      3.663193    7.138407    3.241986
  C      3.910685    9.782445    4.854193
  O      4.156895    9.057687    6.072297
  H      4.453599    9.647365    6.726900
  H      3.645590    9.023861    4.088601
  H      3.062189   10.520821    4.999484
  H      4.779321   10.393356    4.511406

 Multiplicity           Mult            ....    1
 Number of Electrons    NEL             ....   18
 Basis Dimension        Dim             ....  172

ORBITAL ENERGIES
----------------

  NO   OCC          E(Eh)            E(eV)
   0   2.0000     -19.227481      -523.2064
   1   2.0000     -10.324350      -280.9398
   2   2.0000      -1.134711       -30.8770
   3   2.0000      -0.793589       -21.5946
   4   2.0000      -0.610850       -16.6221
   5   2.0000      -0.531083       -14.4515
   6   2.0000      -0.522784       -14.2257
   7   2.0000      -0.438457       -11.9310
   8   2.0000      -0.373701       -10.1689
   9   0.0000       0.088939         2.4201
  10   0.0000       0.119215         3.2440
  11   0.0000       0.153774         4.1844
  12   0.0000       0.170077         4.6280
  13   0.0000       0.187057         5.0901

MULLIKEN ATOMIC CHARGES
-----------------------
   0 C :   -0.004156
   1 O :    0.000050
   2 H :   -0.000011
   3 H :    0.000143
   4 H :   -0.000175
   5 H :    0.007386
   6 C :   -0.167777
   7 O :   -0.472201
   8 H :    0.306388
   9 H :    0.120116
  10 H :    0.102893
  11 H :    0.107345
Sum of atomic charges:    0.0000000

LOEWDIN ATOMIC CHARGES
----------------------
   0 C :   -0.004698
   1 O :   -0.000075
   2 H :   -0.000006
   3 H :   -0.000027
   4 H :   -0.000152
   5 H :   -0.006443
   6 C :   -0.369855
   7 O :   -0.079145
   8 H :    0.144487
   9 H :    0.117559
  10 H :    0.100388
  11 H :    0.097967

  Mayer bond orders larger than 0.1
B(  6-C ,  7-O ) :   1.0032 B(  6-C ,  9-H ) :   0.9754 B(  6-C , 10-H ) :   0.9766
B(  6-C , 11-H ) :   0.9708 B(  7-O ,  8-H ) :   0.9084

Dispersion correction           -0.000260959
FINAL SINGLE POINT ENERGY      -115.734503234680

DIPOLE MOMENT
-------------
                                X             Y             Z
Electronic contribution:      0.31594      -1.05898       1.45800
Nuclear contribution   :     -0.21530       1.72612      -1.52786
                        -----------------------------------------
Total Dipole Moment    :      0.10064       0.66714      -0.06986
                        -----------------------------------------
Magnitude (a.u.)       :      0.67829
Magnitude (Debye)      :      1.72409

Rotational constants in cm-1:     4.160985     0.806707     0.776378
Rotational constants in MHz : 124743.178169 24184.478459 23275.229937

                             ****ORCA TERMINATED NORMALLY****
TOTAL RUN TIME: 0 days 0 hours 1 minutes 3 seconds 281 msec
