                         Program Version 4.1.2  - RELEASE  -
|  1> #Run DFT-D3 single point of the dimer
|  2> ! wB97X-D3 def2-TZVP TIGHTSCF CHELPG PMODEL PAL8
|  3>
|  4> %base "20-78_DFT_AB"
|  5>
|  6> %scf
|  7> MaxIter 1000
|  8> end
|  9>
| 10> * xyz 0 1
| 11>   C                      -2.839955            -3.953407            -0.078150
| 12>   O                      -2.008247            -2.946951            0.371114
| 13>   H                      -2.187683            -2.219467            -0.178250
| 14>   H                      -3.058394            -3.772306            -1.120352
| 15>   H                      -2.431864            -4.948480            0.016022
| 16>   H                      -3.792097            -3.920621            0.402216
| 17>   C                      -3.572831            -2.518480            -3.619282
| 18>   O                      -2.201665            -2.609266            -3.374965
| 19>   H                      -1.933915            -3.521238            -3.503153
| 20>   H                      -4.055319            -3.201278            -2.917605
| 21>   H                      -3.926328            -1.556956            -3.334496
| 22>   H                      -3.891178            -2.573715            -4.624249
| 23> *
| 24>
| 25> #Run DFT-D3 single point of the molecule with dimer basis set
| 26> $new_job
| 27> %base "20-78_DFT_A"
| 28> ! wB97X-D3 def2-TZVP TIGHTSCF CHELPG PMODEL
| 29>
| 30> %scf
| 31> MaxIter 1000
| 32> end
| 33>
| 34> * xyz 0 1
| 35>   C                      -2.839955            -3.953407            -0.078150
| 36>   O                      -2.008247            -2.946951            0.371114
| 37>   H                      -2.187683            -2.219467            -0.178250
| 38>   H                      -3.058394            -3.772306            -1.120352
| 39>   H                      -2.431864            -4.948480            0.016022
| 40>   H                      -3.792097            -3.920621            0.402216
| 41>   C                    : -3.572831            -2.518480            -3.619282
| 42>   O                    : -2.201665            -2.609266            -3.374965
| 43>   H                    : -1.933915            -3.521238            -3.503153
| 44>   H                    : -4.055319            -3.201278            -2.917605
| 45>   H                    : -3.926328            -1.556956            -3.334496
| 46>   H                    : -3.891178            -2.573715            -4.624249
| 47> *
| 48>
| 49> #Run DFT-D3 single point of the particle with dimer basis set
| 50> $new_job
| 51> %base "20-78_DFT_B"
| 52> ! wB97X-D3 def2-TZVP TIGHTSCF CHELPG PMODEL
| 53>
| 54> %scf
| 55> MaxIter 1000
| 56> end
| 57>
| 58> * xyz 0 1
| 59>   C                    : -2.839955            -3.953407            -0.078150
| 60>   O                    : -2.008247            -2.946951            0.371114
| 61>   H                    : -2.187683            -2.219467            -0.178250
| 62>   H                    : -3.058394            -3.772306            -1.120352
| 63>   H                    : -2.431864            -4.948480            0.016022
| 64>   H                    : -3.792097            -3.920621            0.402216
| 65>   C                      -3.572831            -2.518480            -3.619282
| 66>   O                      -2.201665            -2.609266            -3.374965
| 67>   H                      -1.933915            -3.521238            -3.503153
| 68>   H                      -4.055319            -3.201278            -2.917605
| 69>   H                      -3.926328            -1.556956            -3.334496
| 70>   H                      -3.891178            -2.573715            -4.624249
| 71> *
| 72>
| 73>                          ****END OF INPUT****
 Total Charge           Charge          ....    0
 Multiplicity           Mult            ....    1
 Number of Electrons    NEL             ....   36
Dispersion correction           -0.001959373
FINAL SINGLE POINT ENERGY      -231.466179734502
Dispersion correction           -0.000207890
FINAL SINGLE POINT ENERGY      -115.731823487097

CARTESIAN COORDINATES (ANGSTROEM)
---------------------------------
  C     -2.839955   -3.953407   -0.078150
  O     -2.008247   -2.946951    0.371114
  H     -2.187683   -2.219467   -0.178250
  H     -3.058394   -3.772306   -1.120352
  H     -2.431864   -4.948480    0.016022
  H     -3.792097   -3.920621    0.402216
  C     -3.572831   -2.518480   -3.619282
  O     -2.201665   -2.609266   -3.374965
  H     -1.933915   -3.521238   -3.503153
  H     -4.055319   -3.201278   -2.917605
  H     -3.926328   -1.556956   -3.334496
  H     -3.891178   -2.573715   -4.624249

 Multiplicity           Mult            ....    1
 Number of Electrons    NEL             ....   18
 Basis Dimension        Dim             ....  172

ORBITAL ENERGIES
----------------

  NO   OCC          E(Eh)            E(eV)
   0   2.0000     -19.229910      -523.2725
   1   2.0000     -10.303196      -280.3642
   2   2.0000      -1.141972       -31.0746
   3   2.0000      -0.802229       -21.8298
   4   2.0000      -0.611112       -16.6292
   5   2.0000      -0.558451       -15.1962
   6   2.0000      -0.530215       -14.4279
   7   2.0000      -0.425488       -11.5781
   8   2.0000      -0.376553       -10.2465
   9   0.0000       0.087694         2.3863
  10   0.0000       0.132368         3.6019
  11   0.0000       0.155078         4.2199
  12   0.0000       0.170621         4.6428
  13   0.0000       0.195801         5.3280

MULLIKEN ATOMIC CHARGES
-----------------------
   0 C :    0.004103
   1 O :   -0.000136
   2 H :   -0.002230
   3 H :   -0.006704
   4 H :    0.000143
   5 H :   -0.000375
   6 C :   -0.152873
   7 O :   -0.469509
   8 H :    0.314915
   9 H :    0.092932
  10 H :    0.109647
  11 H :    0.110087
Sum of atomic charges:    0.0000000

LOEWDIN ATOMIC CHARGES
----------------------
   0 C :   -0.005372
   1 O :   -0.000397
   2 H :   -0.002191
   3 H :   -0.008964
   4 H :   -0.000042
   5 H :   -0.000081
   6 C :   -0.390570
   7 O :   -0.054950
   8 H :    0.170177
   9 H :    0.100357
  10 H :    0.103599
  11 H :    0.088433

  Mayer bond orders larger than 0.1
B(  6-C ,  7-O ) :   0.9965 B(  6-C ,  9-H ) :   0.9911 B(  6-C , 10-H ) :   0.9772
B(  6-C , 11-H ) :   0.9767 B(  7-O ,  8-H ) :   0.8993

Dispersion correction           -0.000227100
FINAL SINGLE POINT ENERGY      -115.731882751060

DIPOLE MOMENT
-------------
                                X             Y             Z
Electronic contribution:      1.78869      -0.03915       0.19203
Nuclear contribution   :     -2.16191      -0.46929      -0.37597
                        -----------------------------------------
Total Dipole Moment    :     -0.37323      -0.50844      -0.18394
                        -----------------------------------------
Magnitude (a.u.)       :      0.65700
Magnitude (Debye)      :      1.66995

Rotational constants in cm-1:     4.500511     0.847262     0.827092
Rotational constants in MHz : 134921.938377 25400.271703 24795.598439

                             ****ORCA TERMINATED NORMALLY****
TOTAL RUN TIME: 0 days 0 hours 1 minutes 0 seconds 630 msec
