                         Program Version 4.1.2  - RELEASE  -
|  1> #Run DFT-D3 single point of the dimer
|  2> ! wB97X-D3 def2-TZVP TIGHTSCF CHELPG PMODEL PAL8
|  3>
|  4> %base "21-0_DFT_AB"
|  5>
|  6> %scf
|  7> MaxIter 1000
|  8> end
|  9>
| 10> * xyz 0 1
| 11>   C                      -9.555378            -10.803507           -11.046135
| 12>   O                      -10.201272           -9.541897            -10.891227
| 13>   H                      -9.591396            -8.944921            -11.332116
| 14>   H                      -9.162109            -10.902993           -12.087031
| 15>   H                      -8.852526            -11.007908           -10.232011
| 16>   H                      -10.232557           -11.601163           -11.023796
| 17>   C                      -6.197209            -10.043977           -7.076087
| 18>   O                      -7.192169            -9.113181            -7.459103
| 19>   H                      -7.983588            -9.380507            -7.088494
| 20>   H                      -6.571320            -11.022002           -7.330227
| 21>   H                      -5.260879            -9.809619            -7.601295
| 22>   H                      -5.787484            -10.013825           -6.086584
| 23> *
| 24>
| 25> #Run DFT-D3 single point of the molecule with dimer basis set
| 26> $new_job
| 27> %base "21-0_DFT_A"
| 28> ! wB97X-D3 def2-TZVP TIGHTSCF CHELPG PMODEL
| 29>
| 30> %scf
| 31> MaxIter 1000
| 32> end
| 33>
| 34> * xyz 0 1
| 35>   C                      -9.555378            -10.803507           -11.046135
| 36>   O                      -10.201272           -9.541897            -10.891227
| 37>   H                      -9.591396            -8.944921            -11.332116
| 38>   H                      -9.162109            -10.902993           -12.087031
| 39>   H                      -8.852526            -11.007908           -10.232011
| 40>   H                      -10.232557           -11.601163           -11.023796
| 41>   C                    : -6.197209            -10.043977           -7.076087
| 42>   O                    : -7.192169            -9.113181            -7.459103
| 43>   H                    : -7.983588            -9.380507            -7.088494
| 44>   H                    : -6.571320            -11.022002           -7.330227
| 45>   H                    : -5.260879            -9.809619            -7.601295
| 46>   H                    : -5.787484            -10.013825           -6.086584
| 47> *
| 48>
| 49> #Run DFT-D3 single point of the particle with dimer basis set
| 50> $new_job
| 51> %base "21-0_DFT_B"
| 52> ! wB97X-D3 def2-TZVP TIGHTSCF CHELPG PMODEL
| 53>
| 54> %scf
| 55> MaxIter 1000
| 56> end
| 57>
| 58> * xyz 0 1
| 59>   C                    : -9.555378            -10.803507           -11.046135
| 60>   O                    : -10.201272           -9.541897            -10.891227
| 61>   H                    : -9.591396            -8.944921            -11.332116
| 62>   H                    : -9.162109            -10.902993           -12.087031
| 63>   H                    : -8.852526            -11.007908           -10.232011
| 64>   H                    : -10.232557           -11.601163           -11.023796
| 65>   C                      -6.197209            -10.043977           -7.076087
| 66>   O                      -7.192169            -9.113181            -7.459103
| 67>   H                      -7.983588            -9.380507            -7.088494
| 68>   H                      -6.571320            -11.022002           -7.330227
| 69>   H                      -5.260879            -9.809619            -7.601295
| 70>   H                      -5.787484            -10.013825           -6.086584
| 71> *
| 72>
| 73>                          ****END OF INPUT****
 Total Charge           Charge          ....    0
 Multiplicity           Mult            ....    1
 Number of Electrons    NEL             ....   36
Dispersion correction           -0.000904348
FINAL SINGLE POINT ENERGY      -231.460599179618
Dispersion correction           -0.000236253
FINAL SINGLE POINT ENERGY      -115.730875372815

CARTESIAN COORDINATES (ANGSTROEM)
---------------------------------
  C     -9.555378  -10.803507  -11.046135
  O    -10.201272   -9.541897  -10.891227
  H     -9.591396   -8.944921  -11.332116
  H     -9.162109  -10.902993  -12.087031
  H     -8.852526  -11.007908  -10.232011
  H    -10.232557  -11.601163  -11.023796
  C     -6.197209  -10.043977   -7.076087
  O     -7.192169   -9.113181   -7.459103
  H     -7.983588   -9.380507   -7.088494
  H     -6.571320  -11.022002   -7.330227
  H     -5.260879   -9.809619   -7.601295
  H     -5.787484  -10.013825   -6.086584

 Multiplicity           Mult            ....    1
 Number of Electrons    NEL             ....   18
 Basis Dimension        Dim             ....  172

ORBITAL ENERGIES
----------------

  NO   OCC          E(Eh)            E(eV)
   0   2.0000     -19.227407      -523.2043
   1   2.0000     -10.309966      -280.5484
   2   2.0000      -1.146355       -31.1939
   3   2.0000      -0.804373       -21.8881
   4   2.0000      -0.616593       -16.7783
   5   2.0000      -0.558134       -15.1876
   6   2.0000      -0.518590       -14.1116
   7   2.0000      -0.432917       -11.7803
   8   2.0000      -0.376857       -10.2548
   9   0.0000       0.088767         2.4155
  10   0.0000       0.122897         3.3442
  11   0.0000       0.153247         4.1701
  12   0.0000       0.171704         4.6723
  13   0.0000       0.193156         5.2560

MULLIKEN ATOMIC CHARGES
-----------------------
   0 C :    0.000880
   1 O :    0.000029
   2 H :   -0.000064
   3 H :   -0.000042
   4 H :   -0.002494
   5 H :   -0.000089
   6 C :   -0.161759
   7 O :   -0.464018
   8 H :    0.305306
   9 H :    0.102455
  10 H :    0.115335
  11 H :    0.104461
Sum of atomic charges:    0.0000000

LOEWDIN ATOMIC CHARGES
----------------------
   0 C :   -0.000460
   1 O :   -0.000026
   2 H :   -0.000059
   3 H :   -0.000003
   4 H :   -0.000992
   5 H :   -0.000006
   6 C :   -0.381736
   7 O :   -0.051312
   8 H :    0.137394
   9 H :    0.094226
  10 H :    0.112247
  11 H :    0.090728

  Mayer bond orders larger than 0.1
B(  6-C ,  7-O ) :   1.0014 B(  6-C ,  9-H ) :   0.9891 B(  6-C , 10-H ) :   0.9770
B(  6-C , 11-H ) :   0.9659 B(  7-O ,  8-H ) :   0.9112

Dispersion correction           -0.000241853
FINAL SINGLE POINT ENERGY      -115.728805639413

DIPOLE MOMENT
-------------
                                X             Y             Z
Electronic contribution:     -1.28319       1.24195      -0.47557
Nuclear contribution   :      1.18941      -1.77823       0.87694
                        -----------------------------------------
Total Dipole Moment    :     -0.09378      -0.53628       0.40137
                        -----------------------------------------
Magnitude (a.u.)       :      0.67638
Magnitude (Debye)      :      1.71922

Rotational constants in cm-1:     4.550927     0.831128     0.799554
Rotational constants in MHz : 136433.366307 24916.576062 23970.016192

                             ****ORCA TERMINATED NORMALLY****
TOTAL RUN TIME: 0 days 0 hours 0 minutes 59 seconds 202 msec
