                         Program Version 4.1.2  - RELEASE  -
|  1> #Run DFT-D3 single point of the dimer
|  2> ! wB97X-D3 def2-TZVP TIGHTSCF CHELPG PMODEL PAL8
|  3>
|  4> %base "10-65_DFT_AB"
|  5>
|  6> %scf
|  7> MaxIter 1000
|  8> end
|  9>
| 10> * xyz 0 1
| 11>   C                      6.480167             4.850157             8.017725
| 12>   O                      6.846940             3.890680             7.044795
| 13>   H                      7.195709             4.304133             6.297054
| 14>   H                      7.306813             5.169564             8.669647
| 15>   H                      6.202793             5.826223             7.485602
| 16>   H                      5.554086             4.491351             8.572135
| 17>   C                      3.882099             2.184451             9.631789
| 18>   O                      3.000402             1.722886             10.616465
| 19>   H                      2.309864             1.192647             10.191350
| 20>   H                      3.353727             2.811146             8.937022
| 21>   H                      4.641639             2.952712             9.894458
| 22>   H                      4.327532             1.397473             9.044047
| 23> *
| 24>
| 25> #Run DFT-D3 single point of the molecule with dimer basis set
| 26> $new_job
| 27> %base "10-65_DFT_A"
| 28> ! wB97X-D3 def2-TZVP TIGHTSCF CHELPG PMODEL
| 29>
| 30> %scf
| 31> MaxIter 1000
| 32> end
| 33>
| 34> * xyz 0 1
| 35>   C                      6.480167             4.850157             8.017725
| 36>   O                      6.846940             3.890680             7.044795
| 37>   H                      7.195709             4.304133             6.297054
| 38>   H                      7.306813             5.169564             8.669647
| 39>   H                      6.202793             5.826223             7.485602
| 40>   H                      5.554086             4.491351             8.572135
| 41>   C                    : 3.882099             2.184451             9.631789
| 42>   O                    : 3.000402             1.722886             10.616465
| 43>   H                    : 2.309864             1.192647             10.191350
| 44>   H                    : 3.353727             2.811146             8.937022
| 45>   H                    : 4.641639             2.952712             9.894458
| 46>   H                    : 4.327532             1.397473             9.044047
| 47> *
| 48>
| 49> #Run DFT-D3 single point of the particle with dimer basis set
| 50> $new_job
| 51> %base "10-65_DFT_B"
| 52> ! wB97X-D3 def2-TZVP TIGHTSCF CHELPG PMODEL
| 53>
| 54> %scf
| 55> MaxIter 1000
| 56> end
| 57>
| 58> * xyz 0 1
| 59>   C                    : 6.480167             4.850157             8.017725
| 60>   O                    : 6.846940             3.890680             7.044795
| 61>   H                    : 7.195709             4.304133             6.297054
| 62>   H                    : 7.306813             5.169564             8.669647
| 63>   H                    : 6.202793             5.826223             7.485602
| 64>   H                    : 5.554086             4.491351             8.572135
| 65>   C                      3.882099             2.184451             9.631789
| 66>   O                      3.000402             1.722886             10.616465
| 67>   H                      2.309864             1.192647             10.191350
| 68>   H                      3.353727             2.811146             8.937022
| 69>   H                      4.641639             2.952712             9.894458
| 70>   H                      4.327532             1.397473             9.044047
| 71> *
| 72>
| 73>                          ****END OF INPUT****
 Total Charge           Charge          ....    0
 Multiplicity           Mult            ....    1
 Number of Electrons    NEL             ....   36
Dispersion correction           -0.001351625
FINAL SINGLE POINT ENERGY      -231.458955921896
Dispersion correction           -0.000255562
FINAL SINGLE POINT ENERGY      -115.730561934871

CARTESIAN COORDINATES (ANGSTROEM)
---------------------------------
  C      6.480167    4.850157    8.017725
  O      6.846940    3.890680    7.044795
  H      7.195709    4.304133    6.297054
  H      7.306813    5.169564    8.669647
  H      6.202793    5.826223    7.485602
  H      5.554086    4.491351    8.572135
  C      3.882099    2.184451    9.631789
  O      3.000402    1.722886   10.616465
  H      2.309864    1.192647   10.191350
  H      3.353727    2.811146    8.937022
  H      4.641639    2.952712    9.894458
  H      4.327532    1.397473    9.044047

 Multiplicity           Mult            ....    1
 Number of Electrons    NEL             ....   18
 Basis Dimension        Dim             ....  172

ORBITAL ENERGIES
----------------

  NO   OCC          E(Eh)            E(eV)
   0   2.0000     -19.232558      -523.3445
   1   2.0000     -10.310180      -280.5543
   2   2.0000      -1.139242       -31.0004
   3   2.0000      -0.798898       -21.7391
   4   2.0000      -0.615324       -16.7438
   5   2.0000      -0.550320       -14.9750
   6   2.0000      -0.525541       -14.3007
   7   2.0000      -0.426023       -11.5927
   8   2.0000      -0.372344       -10.1320
   9   0.0000       0.082924         2.2565
  10   0.0000       0.115296         3.1374
  11   0.0000       0.146189         3.9780
  12   0.0000       0.164857         4.4860
  13   0.0000       0.188576         5.1314

MULLIKEN ATOMIC CHARGES
-----------------------
   0 C :    0.001751
   1 O :   -0.000006
   2 H :    0.000000
   3 H :   -0.000080
   4 H :   -0.000111
   5 H :   -0.004146
   6 C :   -0.167695
   7 O :   -0.475185
   8 H :    0.321384
   9 H :    0.097825
  10 H :    0.124584
  11 H :    0.101680
Sum of atomic charges:   -0.0000000

LOEWDIN ATOMIC CHARGES
----------------------
   0 C :   -0.002158
   1 O :   -0.000040
   2 H :   -0.000002
   3 H :   -0.000028
   4 H :   -0.000008
   5 H :   -0.005387
   6 C :   -0.404200
   7 O :   -0.069732
   8 H :    0.178959
   9 H :    0.092127
  10 H :    0.118424
  11 H :    0.092046

  Mayer bond orders larger than 0.1
B(  6-C ,  7-O ) :   1.0021 B(  6-C ,  9-H ) :   0.9854 B(  6-C , 10-H ) :   0.9683
B(  6-C , 11-H ) :   0.9737 B(  7-O ,  8-H ) :   0.8919

Dispersion correction           -0.000240853
FINAL SINGLE POINT ENERGY      -115.727790402398

DIPOLE MOMENT
-------------
                                X             Y             Z
Electronic contribution:     -1.02145      -0.67362       1.53850
Nuclear contribution   :      0.91146       0.54685      -2.21504
                        -----------------------------------------
Total Dipole Moment    :     -0.10998      -0.12677      -0.67654
                        -----------------------------------------
Magnitude (a.u.)       :      0.69705
Magnitude (Debye)      :      1.77175

Rotational constants in cm-1:     4.541548     0.830997     0.800525
Rotational constants in MHz : 136152.176001 24912.653408 23999.137168

                             ****ORCA TERMINATED NORMALLY****
TOTAL RUN TIME: 0 days 0 hours 1 minutes 4 seconds 990 msec
