                         Program Version 4.1.2  - RELEASE  -
|  1> #Run DFT-D3 single point of the dimer
|  2> ! wB97X-D3 def2-TZVP TIGHTSCF CHELPG PMODEL PAL8
|  3>
|  4> %base "9-169_DFT_AB"
|  5>
|  6> %scf
|  7> MaxIter 1000
|  8> end
|  9>
| 10> * xyz 0 1
| 11>   C                      10.677897            9.797862             9.342394
| 12>   O                      9.896940             9.462285             10.426199
| 13>   H                      9.168333             8.870181             10.291946
| 14>   H                      10.150146            10.491683            8.673961
| 15>   H                      11.547956            10.325346            9.611943
| 16>   H                      11.000104            8.933296             8.888553
| 17>   C                      6.560665             8.212266             10.896458
| 18>   O                      7.783011             7.625033             10.420270
| 19>   H                      7.846205             6.659456             10.612985
| 20>   H                      6.405019             9.289219             10.590854
| 21>   H                      5.728525             7.569283             10.618399
| 22>   H                      6.543258             8.373874             11.963298
| 23> *
| 24>
| 25> #Run DFT-D3 single point of the molecule with dimer basis set
| 26> $new_job
| 27> %base "9-169_DFT_A"
| 28> ! wB97X-D3 def2-TZVP TIGHTSCF CHELPG PMODEL
| 29>
| 30> %scf
| 31> MaxIter 1000
| 32> end
| 33>
| 34> * xyz 0 1
| 35>   C                      10.677897            9.797862             9.342394
| 36>   O                      9.896940             9.462285             10.426199
| 37>   H                      9.168333             8.870181             10.291946
| 38>   H                      10.150146            10.491683            8.673961
| 39>   H                      11.547956            10.325346            9.611943
| 40>   H                      11.000104            8.933296             8.888553
| 41>   C                    : 6.560665             8.212266             10.896458
| 42>   O                    : 7.783011             7.625033             10.420270
| 43>   H                    : 7.846205             6.659456             10.612985
| 44>   H                    : 6.405019             9.289219             10.590854
| 45>   H                    : 5.728525             7.569283             10.618399
| 46>   H                    : 6.543258             8.373874             11.963298
| 47> *
| 48>
| 49> #Run DFT-D3 single point of the particle with dimer basis set
| 50> $new_job
| 51> %base "9-169_DFT_B"
| 52> ! wB97X-D3 def2-TZVP TIGHTSCF CHELPG PMODEL
| 53>
| 54> %scf
| 55> MaxIter 1000
| 56> end
| 57>
| 58> * xyz 0 1
| 59>   C                    : 10.677897            9.797862             9.342394
| 60>   O                    : 9.896940             9.462285             10.426199
| 61>   H                    : 9.168333             8.870181             10.291946
| 62>   H                    : 10.150146            10.491683            8.673961
| 63>   H                    : 11.547956            10.325346            9.611943
| 64>   H                    : 11.000104            8.933296             8.888553
| 65>   C                      6.560665             8.212266             10.896458
| 66>   O                      7.783011             7.625033             10.420270
| 67>   H                      7.846205             6.659456             10.612985
| 68>   H                      6.405019             9.289219             10.590854
| 69>   H                      5.728525             7.569283             10.618399
| 70>   H                      6.543258             8.373874             11.963298
| 71> *
| 72>
| 73>                          ****END OF INPUT****
 Total Charge           Charge          ....    0
 Multiplicity           Mult            ....    1
 Number of Electrons    NEL             ....   36
Dispersion correction           -0.001597729
FINAL SINGLE POINT ENERGY      -231.466434430493
Dispersion correction           -0.000231066
FINAL SINGLE POINT ENERGY      -115.728258429824

CARTESIAN COORDINATES (ANGSTROEM)
---------------------------------
  C     10.677897    9.797862    9.342394
  O      9.896940    9.462285   10.426199
  H      9.168333    8.870181   10.291946
  H     10.150146   10.491683    8.673961
  H     11.547956   10.325346    9.611943
  H     11.000104    8.933296    8.888553
  C      6.560665    8.212266   10.896458
  O      7.783011    7.625033   10.420270
  H      7.846205    6.659456   10.612985
  H      6.405019    9.289219   10.590854
  H      5.728525    7.569283   10.618399
  H      6.543258    8.373874   11.963298

 Multiplicity           Mult            ....    1
 Number of Electrons    NEL             ....   18
 Basis Dimension        Dim             ....  172

ORBITAL ENERGIES
----------------

  NO   OCC          E(Eh)            E(eV)
   0   2.0000     -19.231965      -523.3284
   1   2.0000     -10.317509      -280.7537
   2   2.0000      -1.121622       -30.5209
   3   2.0000      -0.796777       -21.6814
   4   2.0000      -0.604879       -16.4596
   5   2.0000      -0.548088       -14.9142
   6   2.0000      -0.516604       -14.0575
   7   2.0000      -0.425697       -11.5838
   8   2.0000      -0.372519       -10.1368
   9   0.0000       0.099462         2.7065
  10   0.0000       0.120580         3.2811
  11   0.0000       0.144299         3.9266
  12   0.0000       0.190388         5.1807
  13   0.0000       0.204096         5.5537

MULLIKEN ATOMIC CHARGES
-----------------------
   0 C :   -0.000231
   1 O :   -0.001738
   2 H :   -0.003697
   3 H :   -0.000099
   4 H :   -0.000087
   5 H :   -0.000526
   6 C :   -0.163206
   7 O :   -0.492401
   8 H :    0.320609
   9 H :    0.122209
  10 H :    0.111554
  11 H :    0.107610
Sum of atomic charges:    0.0000000

LOEWDIN ATOMIC CHARGES
----------------------
   0 C :   -0.001426
   1 O :   -0.007240
   2 H :   -0.048987
   3 H :   -0.000028
   4 H :   -0.000026
   5 H :   -0.000177
   6 C :   -0.371263
   7 O :   -0.061080
   8 H :    0.182368
   9 H :    0.118715
  10 H :    0.097541
  11 H :    0.091603

  Mayer bond orders larger than 0.1
B(  6-C ,  7-O ) :   0.9842 B(  6-C ,  9-H ) :   0.9734 B(  6-C , 10-H ) :   0.9763
B(  6-C , 11-H ) :   0.9720 B(  7-O ,  8-H ) :   0.8873

Dispersion correction           -0.000270903
FINAL SINGLE POINT ENERGY      -115.729289736281

DIPOLE MOMENT
-------------
                                X             Y             Z
Electronic contribution:      1.56695      -0.67520      -0.71133
Nuclear contribution   :     -2.05156       0.31139       1.05243
                        -----------------------------------------
Total Dipole Moment    :     -0.48461      -0.36381       0.34110
                        -----------------------------------------
Magnitude (a.u.)       :      0.69538
Magnitude (Debye)      :      1.76752

Rotational constants in cm-1:     4.386791     0.797282     0.763632
Rotational constants in MHz : 131512.673831 23901.910441 22893.108311

                             ****ORCA TERMINATED NORMALLY****
TOTAL RUN TIME: 0 days 0 hours 0 minutes 46 seconds 416 msec
