                         Program Version 4.1.2  - RELEASE  -
|  1> #Run DFT-D3 single point of the dimer
|  2> ! wB97X-D3 def2-TZVP TIGHTSCF CHELPG PMODEL PAL8
|  3>
|  4> %base "7-79_DFT_AB"
|  5>
|  6> %scf
|  7> MaxIter 1000
|  8> end
|  9>
| 10> * xyz 0 1
| 11>   C                      7.285926             0.821066             2.316241
| 12>   O                      7.532912             0.471736             1.007627
| 13>   H                      8.045949             -0.406475            0.930814
| 14>   H                      7.486048             -0.087081            3.004934
| 15>   H                      7.841240             1.695538             2.765298
| 16>   H                      6.188296             0.937388             2.320612
| 17>   C                      9.789159             1.336026             5.816755
| 18>   O                      8.851170             0.420211             6.445269
| 19>   H                      9.305486             -0.407004            6.583768
| 20>   H                      10.574013            1.653443             6.509549
| 21>   H                      10.169795            1.047420             4.861731
| 22>   H                      9.221420             2.251812             5.505735
| 23> *
| 24>
| 25> #Run DFT-D3 single point of the molecule with dimer basis set
| 26> $new_job
| 27> %base "7-79_DFT_A"
| 28> ! wB97X-D3 def2-TZVP TIGHTSCF CHELPG PMODEL
| 29>
| 30> %scf
| 31> MaxIter 1000
| 32> end
| 33>
| 34> * xyz 0 1
| 35>   C                      7.285926             0.821066             2.316241
| 36>   O                      7.532912             0.471736             1.007627
| 37>   H                      8.045949             -0.406475            0.930814
| 38>   H                      7.486048             -0.087081            3.004934
| 39>   H                      7.841240             1.695538             2.765298
| 40>   H                      6.188296             0.937388             2.320612
| 41>   C                    : 9.789159             1.336026             5.816755
| 42>   O                    : 8.851170             0.420211             6.445269
| 43>   H                    : 9.305486             -0.407004            6.583768
| 44>   H                    : 10.574013            1.653443             6.509549
| 45>   H                    : 10.169795            1.047420             4.861731
| 46>   H                    : 9.221420             2.251812             5.505735
| 47> *
| 48>
| 49> #Run DFT-D3 single point of the particle with dimer basis set
| 50> $new_job
| 51> %base "7-79_DFT_B"
| 52> ! wB97X-D3 def2-TZVP TIGHTSCF CHELPG PMODEL
| 53>
| 54> %scf
| 55> MaxIter 1000
| 56> end
| 57>
| 58> * xyz 0 1
| 59>   C                    : 7.285926             0.821066             2.316241
| 60>   O                    : 7.532912             0.471736             1.007627
| 61>   H                    : 8.045949             -0.406475            0.930814
| 62>   H                    : 7.486048             -0.087081            3.004934
| 63>   H                    : 7.841240             1.695538             2.765298
| 64>   H                    : 6.188296             0.937388             2.320612
| 65>   C                      9.789159             1.336026             5.816755
| 66>   O                      8.851170             0.420211             6.445269
| 67>   H                      9.305486             -0.407004            6.583768
| 68>   H                      10.574013            1.653443             6.509549
| 69>   H                      10.169795            1.047420             4.861731
| 70>   H                      9.221420             2.251812             5.505735
| 71> *
| 72>
| 73>                          ****END OF INPUT****
 Total Charge           Charge          ....    0
 Multiplicity           Mult            ....    1
 Number of Electrons    NEL             ....   36
Dispersion correction           -0.001301537
FINAL SINGLE POINT ENERGY      -231.457029966750
Dispersion correction           -0.000256815
FINAL SINGLE POINT ENERGY      -115.723471593836

CARTESIAN COORDINATES (ANGSTROEM)
---------------------------------
  C      7.285926    0.821066    2.316241
  O      7.532912    0.471736    1.007627
  H      8.045949   -0.406475    0.930814
  H      7.486048   -0.087081    3.004934
  H      7.841240    1.695538    2.765298
  H      6.188296    0.937388    2.320612
  C      9.789159    1.336026    5.816755
  O      8.851170    0.420211    6.445269
  H      9.305486   -0.407004    6.583768
  H     10.574013    1.653443    6.509549
  H     10.169795    1.047420    4.861731
  H      9.221420    2.251812    5.505735

 Multiplicity           Mult            ....    1
 Number of Electrons    NEL             ....   18
 Basis Dimension        Dim             ....  172

ORBITAL ENERGIES
----------------

  NO   OCC          E(Eh)            E(eV)
   0   2.0000     -19.232152      -523.3334
   1   2.0000     -10.316312      -280.7211
   2   2.0000      -1.126555       -30.6551
   3   2.0000      -0.799326       -21.7508
   4   2.0000      -0.603912       -16.4333
   5   2.0000      -0.547554       -14.8997
   6   2.0000      -0.513674       -13.9778
   7   2.0000      -0.431729       -11.7479
   8   2.0000      -0.380493       -10.3538
   9   0.0000       0.087005         2.3675
  10   0.0000       0.121530         3.3070
  11   0.0000       0.146542         3.9876
  12   0.0000       0.169567         4.6142
  13   0.0000       0.195798         5.3279

MULLIKEN ATOMIC CHARGES
-----------------------
   0 C :    0.001239
   1 O :   -0.000002
   2 H :   -0.000007
   3 H :   -0.001910
   4 H :   -0.000850
   5 H :   -0.000031
   6 C :   -0.175637
   7 O :   -0.478880
   8 H :    0.311717
   9 H :    0.115555
  10 H :    0.109660
  11 H :    0.119146
Sum of atomic charges:    0.0000000

LOEWDIN ATOMIC CHARGES
----------------------
   0 C :   -0.000605
   1 O :   -0.000010
   2 H :   -0.000003
   3 H :   -0.000870
   4 H :   -0.000602
   5 H :   -0.000002
   6 C :   -0.364228
   7 O :   -0.099015
   8 H :    0.160861
   9 H :    0.097739
  10 H :    0.089909
  11 H :    0.116826

  Mayer bond orders larger than 0.1
B(  6-C ,  7-O ) :   0.9948 B(  6-C ,  9-H ) :   0.9730 B(  6-C , 10-H ) :   0.9701
B(  6-C , 11-H ) :   0.9758 B(  7-O ,  8-H ) :   0.9027

Dispersion correction           -0.000271892
FINAL SINGLE POINT ENERGY      -115.732656163249

DIPOLE MOMENT
-------------
                                X             Y             Z
Electronic contribution:     -1.17052      -1.18788       0.82171
Nuclear contribution   :      1.84414       1.05481      -1.01422
                        -----------------------------------------
Total Dipole Moment    :      0.67362      -0.13307      -0.19251
                        -----------------------------------------
Magnitude (a.u.)       :      0.71312
Magnitude (Debye)      :      1.81260

Rotational constants in cm-1:     4.371958     0.785680     0.765094
Rotational constants in MHz : 131068.016168 23554.105431 22936.932576

                             ****ORCA TERMINATED NORMALLY****
TOTAL RUN TIME: 0 days 0 hours 1 minutes 0 seconds 589 msec
