                         Program Version 4.1.2  - RELEASE  -
|  1> #Run DFT-D3 single point of the dimer
|  2> ! wB97X-D3 def2-TZVP TIGHTSCF CHELPG PMODEL PAL8
|  3>
|  4> %base "17-145_DFT_AB"
|  5>
|  6> %scf
|  7> MaxIter 1000
|  8> end
|  9>
| 10> * xyz 0 1
| 11>   C                      4.177562             6.795846             -10.094045
| 12>   O                      3.736594             8.017528             -10.679404
| 13>   H                      3.060823             8.019578             -11.351155
| 14>   H                      4.310961             5.989935             -10.851128
| 15>   H                      5.142480             6.919224             -9.525901
| 16>   H                      3.517130             6.422023             -9.324174
| 17>   C                      7.135451             9.002138             -10.765411
| 18>   O                      6.179754             9.871881             -11.324969
| 19>   H                      5.275513             9.533376             -11.160210
| 20>   H                      6.678361             8.002015             -10.682995
| 21>   H                      7.978240             8.747599             -11.462410
| 22>   H                      7.559688             9.275398             -9.795820
| 23> *
| 24>
| 25> #Run DFT-D3 single point of the molecule with dimer basis set
| 26> $new_job
| 27> %base "17-145_DFT_A"
| 28> ! wB97X-D3 def2-TZVP TIGHTSCF CHELPG PMODEL
| 29>
| 30> %scf
| 31> MaxIter 1000
| 32> end
| 33>
| 34> * xyz 0 1
| 35>   C                      4.177562             6.795846             -10.094045
| 36>   O                      3.736594             8.017528             -10.679404
| 37>   H                      3.060823             8.019578             -11.351155
| 38>   H                      4.310961             5.989935             -10.851128
| 39>   H                      5.142480             6.919224             -9.525901
| 40>   H                      3.517130             6.422023             -9.324174
| 41>   C                    : 7.135451             9.002138             -10.765411
| 42>   O                    : 6.179754             9.871881             -11.324969
| 43>   H                    : 5.275513             9.533376             -11.160210
| 44>   H                    : 6.678361             8.002015             -10.682995
| 45>   H                    : 7.978240             8.747599             -11.462410
| 46>   H                    : 7.559688             9.275398             -9.795820
| 47> *
| 48>
| 49> #Run DFT-D3 single point of the particle with dimer basis set
| 50> $new_job
| 51> %base "17-145_DFT_B"
| 52> ! wB97X-D3 def2-TZVP TIGHTSCF CHELPG PMODEL
| 53>
| 54> %scf
| 55> MaxIter 1000
| 56> end
| 57>
| 58> * xyz 0 1
| 59>   C                    : 4.177562             6.795846             -10.094045
| 60>   O                    : 3.736594             8.017528             -10.679404
| 61>   H                    : 3.060823             8.019578             -11.351155
| 62>   H                    : 4.310961             5.989935             -10.851128
| 63>   H                    : 5.142480             6.919224             -9.525901
| 64>   H                    : 3.517130             6.422023             -9.324174
| 65>   C                      7.135451             9.002138             -10.765411
| 66>   O                      6.179754             9.871881             -11.324969
| 67>   H                      5.275513             9.533376             -11.160210
| 68>   H                      6.678361             8.002015             -10.682995
| 69>   H                      7.978240             8.747599             -11.462410
| 70>   H                      7.559688             9.275398             -9.795820
| 71> *
| 72>
| 73>                          ****END OF INPUT****
 Total Charge           Charge          ....    0
 Multiplicity           Mult            ....    1
 Number of Electrons    NEL             ....   36
Dispersion correction           -0.002150006
FINAL SINGLE POINT ENERGY      -231.469426579526
Dispersion correction           -0.000288900
FINAL SINGLE POINT ENERGY      -115.730563844979

CARTESIAN COORDINATES (ANGSTROEM)
---------------------------------
  C      4.177562    6.795846  -10.094045
  O      3.736594    8.017528  -10.679404
  H      3.060823    8.019578  -11.351155
  H      4.310961    5.989935  -10.851128
  H      5.142480    6.919224   -9.525901
  H      3.517130    6.422023   -9.324174
  C      7.135451    9.002138  -10.765411
  O      6.179754    9.871881  -11.324969
  H      5.275513    9.533376  -11.160210
  H      6.678361    8.002015  -10.682995
  H      7.978240    8.747599  -11.462410
  H      7.559688    9.275398   -9.795820

 Multiplicity           Mult            ....    1
 Number of Electrons    NEL             ....   18
 Basis Dimension        Dim             ....  172

ORBITAL ENERGIES
----------------

  NO   OCC          E(Eh)            E(eV)
   0   2.0000     -19.233879      -523.3805
   1   2.0000     -10.317097      -280.7425
   2   2.0000      -1.134487       -30.8709
   3   2.0000      -0.793061       -21.5803
   4   2.0000      -0.612471       -16.6662
   5   2.0000      -0.544306       -14.8113
   6   2.0000      -0.525401       -14.2969
   7   2.0000      -0.419770       -11.4225
   8   2.0000      -0.377514       -10.2727
   9   0.0000       0.067636         1.8405
  10   0.0000       0.129138         3.5140
  11   0.0000       0.145146         3.9496
  12   0.0000       0.174957         4.7608
  13   0.0000       0.181623         4.9422

MULLIKEN ATOMIC CHARGES
-----------------------
   0 C :    0.002419
   1 O :   -0.002502
   2 H :   -0.000362
   3 H :   -0.000640
   4 H :   -0.001262
   5 H :    0.000073
   6 C :   -0.153449
   7 O :   -0.475400
   8 H :    0.323540
   9 H :    0.092277
  10 H :    0.110300
  11 H :    0.105007
Sum of atomic charges:   -0.0000000

LOEWDIN ATOMIC CHARGES
----------------------
   0 C :   -0.009003
   1 O :   -0.009888
   2 H :   -0.000982
   3 H :   -0.000284
   4 H :   -0.006299
   5 H :   -0.000060
   6 C :   -0.393124
   7 O :   -0.075433
   8 H :    0.186149
   9 H :    0.104355
  10 H :    0.109271
  11 H :    0.095298

  Mayer bond orders larger than 0.1
B(  6-C ,  7-O ) :   1.0049 B(  6-C ,  9-H ) :   0.9891 B(  6-C , 10-H ) :   0.9698
B(  6-C , 11-H ) :   0.9712 B(  7-O ,  8-H ) :   0.8982

Dispersion correction           -0.000261420
FINAL SINGLE POINT ENERGY      -115.731004984036

DIPOLE MOMENT
-------------
                                X             Y             Z
Electronic contribution:     -1.14537       1.40507      -0.69878
Nuclear contribution   :      0.92305      -1.99224       1.01173
                        -----------------------------------------
Total Dipole Moment    :     -0.22232      -0.58717       0.31295
                        -----------------------------------------
Magnitude (a.u.)       :      0.70152
Magnitude (Debye)      :      1.78313

Rotational constants in cm-1:     4.341756     0.817115     0.796886
Rotational constants in MHz : 130162.574808 24496.505022 23890.055636

                             ****ORCA TERMINATED NORMALLY****
TOTAL RUN TIME: 0 days 0 hours 1 minutes 12 seconds 800 msec
