                         Program Version 4.1.2  - RELEASE  -
|  1> #Run DFT-D3 single point of the dimer
|  2> ! wB97X-D3 def2-TZVP TIGHTSCF CHELPG PMODEL PAL8
|  3>
|  4> %base "5-180_DFT_AB"
|  5>
|  6> %scf
|  7> MaxIter 1000
|  8> end
|  9>
| 10> * xyz 0 1
| 11>   C                      -7.955104            7.258988             -0.000909
| 12>   O                      -6.999402            6.220627             -0.233799
| 13>   H                      -7.240570            5.795469             -1.073477
| 14>   H                      -8.423059            7.641103             -0.925569
| 15>   H                      -8.745755            6.813650             0.565362
| 16>   H                      -7.638297            8.141113             0.464087
| 17>   C                      -5.366671            8.115586             -2.140902
| 18>   O                      -4.499246            7.076920             -1.602911
| 19>   H                      -5.109397            6.560541             -1.036385
| 20>   H                      -5.560113            8.770428             -1.376646
| 21>   H                      -4.820273            8.763436             -2.871376
| 22>   H                      -6.320221            7.728948             -2.542208
| 23> *
| 24>
| 25> #Run DFT-D3 single point of the molecule with dimer basis set
| 26> $new_job
| 27> %base "5-180_DFT_A"
| 28> ! wB97X-D3 def2-TZVP TIGHTSCF CHELPG PMODEL
| 29>
| 30> %scf
| 31> MaxIter 1000
| 32> end
| 33>
| 34> * xyz 0 1
| 35>   C                      -7.955104            7.258988             -0.000909
| 36>   O                      -6.999402            6.220627             -0.233799
| 37>   H                      -7.240570            5.795469             -1.073477
| 38>   H                      -8.423059            7.641103             -0.925569
| 39>   H                      -8.745755            6.813650             0.565362
| 40>   H                      -7.638297            8.141113             0.464087
| 41>   C                    : -5.366671            8.115586             -2.140902
| 42>   O                    : -4.499246            7.076920             -1.602911
| 43>   H                    : -5.109397            6.560541             -1.036385
| 44>   H                    : -5.560113            8.770428             -1.376646
| 45>   H                    : -4.820273            8.763436             -2.871376
| 46>   H                    : -6.320221            7.728948             -2.542208
| 47> *
| 48>
| 49> #Run DFT-D3 single point of the particle with dimer basis set
| 50> $new_job
| 51> %base "5-180_DFT_B"
| 52> ! wB97X-D3 def2-TZVP TIGHTSCF CHELPG PMODEL
| 53>
| 54> %scf
| 55> MaxIter 1000
| 56> end
| 57>
| 58> * xyz 0 1
| 59>   C                    : -7.955104            7.258988             -0.000909
| 60>   O                    : -6.999402            6.220627             -0.233799
| 61>   H                    : -7.240570            5.795469             -1.073477
| 62>   H                    : -8.423059            7.641103             -0.925569
| 63>   H                    : -8.745755            6.813650             0.565362
| 64>   H                    : -7.638297            8.141113             0.464087
| 65>   C                      -5.366671            8.115586             -2.140902
| 66>   O                      -4.499246            7.076920             -1.602911
| 67>   H                      -5.109397            6.560541             -1.036385
| 68>   H                      -5.560113            8.770428             -1.376646
| 69>   H                      -4.820273            8.763436             -2.871376
| 70>   H                      -6.320221            7.728948             -2.542208
| 71> *
| 72>
| 73>                          ****END OF INPUT****
 Total Charge           Charge          ....    0
 Multiplicity           Mult            ....    1
 Number of Electrons    NEL             ....   36
Dispersion correction           -0.002474115
FINAL SINGLE POINT ENERGY      -231.465881658347
Dispersion correction           -0.000243522
FINAL SINGLE POINT ENERGY      -115.730211155763

CARTESIAN COORDINATES (ANGSTROEM)
---------------------------------
  C     -7.955104    7.258988   -0.000909
  O     -6.999402    6.220627   -0.233799
  H     -7.240570    5.795469   -1.073477
  H     -8.423059    7.641103   -0.925569
  H     -8.745755    6.813650    0.565362
  H     -7.638297    8.141113    0.464087
  C     -5.366671    8.115586   -2.140902
  O     -4.499246    7.076920   -1.602911
  H     -5.109397    6.560541   -1.036385
  H     -5.560113    8.770428   -1.376646
  H     -4.820273    8.763436   -2.871376
  H     -6.320221    7.728948   -2.542208

 Multiplicity           Mult            ....    1
 Number of Electrons    NEL             ....   18
 Basis Dimension        Dim             ....  172

ORBITAL ENERGIES
----------------

  NO   OCC          E(Eh)            E(eV)
   0   2.0000     -19.232856      -523.3526
   1   2.0000     -10.312793      -280.6254
   2   2.0000      -1.123109       -30.5614
   3   2.0000      -0.797796       -21.7091
   4   2.0000      -0.599509       -16.3135
   5   2.0000      -0.544985       -14.8298
   6   2.0000      -0.519139       -14.1265
   7   2.0000      -0.441265       -12.0074
   8   2.0000      -0.374790       -10.1985
   9   0.0000       0.071017         1.9325
  10   0.0000       0.126792         3.4502
  11   0.0000       0.151352         4.1185
  12   0.0000       0.161670         4.3993
  13   0.0000       0.192997         5.2517

MULLIKEN ATOMIC CHARGES
-----------------------
   0 C :    0.000936
   1 O :   -0.003688
   2 H :   -0.001211
   3 H :   -0.001154
   4 H :   -0.000007
   5 H :   -0.000421
   6 C :   -0.187217
   7 O :   -0.473728
   8 H :    0.314120
   9 H :    0.120880
  10 H :    0.124543
  11 H :    0.106946
Sum of atomic charges:   -0.0000000

LOEWDIN ATOMIC CHARGES
----------------------
   0 C :   -0.009150
   1 O :   -0.015188
   2 H :   -0.003799
   3 H :   -0.001924
   4 H :   -0.000060
   5 H :   -0.001010
   6 C :   -0.348245
   7 O :   -0.105965
   8 H :    0.184058
   9 H :    0.083682
  10 H :    0.115481
  11 H :    0.102121

  Mayer bond orders larger than 0.1
B(  6-C ,  7-O ) :   0.9892 B(  6-C ,  9-H ) :   0.9835 B(  6-C , 10-H ) :   0.9705
B(  6-C , 11-H ) :   0.9746 B(  7-O ,  8-H ) :   0.9061

Dispersion correction           -0.000236784
FINAL SINGLE POINT ENERGY      -115.728951561426

DIPOLE MOMENT
-------------
                                X             Y             Z
Electronic contribution:      1.17565      -1.26902       0.54850
Nuclear contribution   :     -1.90034       1.41478      -0.40001
                        -----------------------------------------
Total Dipole Moment    :     -0.72469       0.14576       0.14849
                        -----------------------------------------
Magnitude (a.u.)       :      0.75397
Magnitude (Debye)      :      1.91643

Rotational constants in cm-1:     4.282542     0.804199     0.764777
Rotational constants in MHz : 128387.383763 24109.264938 22927.435322

                             ****ORCA TERMINATED NORMALLY****
TOTAL RUN TIME: 0 days 0 hours 0 minutes 57 seconds 142 msec
