                         Program Version 4.1.2  - RELEASE  -
|  1> #Run DFT-D3 single point of the dimer
|  2> ! wB97X-D3 def2-TZVP TIGHTSCF CHELPG PMODEL PAL8
|  3>
|  4> %base "10-140_DFT_AB"
|  5>
|  6> %scf
|  7> MaxIter 1000
|  8> end
|  9>
| 10> * xyz 0 1
| 11>   C                      -3.729851            3.038293             4.185323
| 12>   O                      -3.523052            2.471416             5.433180
| 13>   H                      -4.135422            2.762021             6.113348
| 14>   H                      -4.740345            3.461552             4.070275
| 15>   H                      -3.093136            3.884884             4.062776
| 16>   H                      -3.567683            2.320354             3.352861
| 17>   C                      -6.367076            7.219084             4.384384
| 18>   O                      -6.531146            5.884104             4.062090
| 19>   H                      -7.046276            5.471730             4.776969
| 20>   H                      -5.481634            7.619671             3.840341
| 21>   H                      -7.226270            7.889155             4.174136
| 22>   H                      -6.196221            7.273434             5.470295
| 23> *
| 24>
| 25> #Run DFT-D3 single point of the molecule with dimer basis set
| 26> $new_job
| 27> %base "10-140_DFT_A"
| 28> ! wB97X-D3 def2-TZVP TIGHTSCF CHELPG PMODEL
| 29>
| 30> %scf
| 31> MaxIter 1000
| 32> end
| 33>
| 34> * xyz 0 1
| 35>   C                      -3.729851            3.038293             4.185323
| 36>   O                      -3.523052            2.471416             5.433180
| 37>   H                      -4.135422            2.762021             6.113348
| 38>   H                      -4.740345            3.461552             4.070275
| 39>   H                      -3.093136            3.884884             4.062776
| 40>   H                      -3.567683            2.320354             3.352861
| 41>   C                    : -6.367076            7.219084             4.384384
| 42>   O                    : -6.531146            5.884104             4.062090
| 43>   H                    : -7.046276            5.471730             4.776969
| 44>   H                    : -5.481634            7.619671             3.840341
| 45>   H                    : -7.226270            7.889155             4.174136
| 46>   H                    : -6.196221            7.273434             5.470295
| 47> *
| 48>
| 49> #Run DFT-D3 single point of the particle with dimer basis set
| 50> $new_job
| 51> %base "10-140_DFT_B"
| 52> ! wB97X-D3 def2-TZVP TIGHTSCF CHELPG PMODEL
| 53>
| 54> %scf
| 55> MaxIter 1000
| 56> end
| 57>
| 58> * xyz 0 1
| 59>   C                    : -3.729851            3.038293             4.185323
| 60>   O                    : -3.523052            2.471416             5.433180
| 61>   H                    : -4.135422            2.762021             6.113348
| 62>   H                    : -4.740345            3.461552             4.070275
| 63>   H                    : -3.093136            3.884884             4.062776
| 64>   H                    : -3.567683            2.320354             3.352861
| 65>   C                      -6.367076            7.219084             4.384384
| 66>   O                      -6.531146            5.884104             4.062090
| 67>   H                      -7.046276            5.471730             4.776969
| 68>   H                      -5.481634            7.619671             3.840341
| 69>   H                      -7.226270            7.889155             4.174136
| 70>   H                      -6.196221            7.273434             5.470295
| 71> *
| 72>
| 73>                          ****END OF INPUT****
 Total Charge           Charge          ....    0
 Multiplicity           Mult            ....    1
 Number of Electrons    NEL             ....   36
Dispersion correction           -0.001137837
FINAL SINGLE POINT ENERGY      -231.468563452122
Dispersion correction           -0.000246681
FINAL SINGLE POINT ENERGY      -115.733198161910

CARTESIAN COORDINATES (ANGSTROEM)
---------------------------------
  C     -3.729851    3.038293    4.185323
  O     -3.523052    2.471416    5.433180
  H     -4.135422    2.762021    6.113348
  H     -4.740345    3.461552    4.070275
  H     -3.093136    3.884884    4.062776
  H     -3.567683    2.320354    3.352861
  C     -6.367076    7.219084    4.384384
  O     -6.531146    5.884104    4.062090
  H     -7.046276    5.471730    4.776969
  H     -5.481634    7.619671    3.840341
  H     -7.226270    7.889155    4.174136
  H     -6.196221    7.273434    5.470295

 Multiplicity           Mult            ....    1
 Number of Electrons    NEL             ....   18
 Basis Dimension        Dim             ....  172

ORBITAL ENERGIES
----------------

  NO   OCC          E(Eh)            E(eV)
   0   2.0000     -19.232788      -523.3508
   1   2.0000     -10.314990      -280.6852
   2   2.0000      -1.145728       -31.1768
   3   2.0000      -0.789252       -21.4766
   4   2.0000      -0.617520       -16.8036
   5   2.0000      -0.542070       -14.7505
   6   2.0000      -0.530785       -14.4434
   7   2.0000      -0.431393       -11.7388
   8   2.0000      -0.371136       -10.0991
   9   0.0000       0.090196         2.4544
  10   0.0000       0.118540         3.2256
  11   0.0000       0.153762         4.1841
  12   0.0000       0.169632         4.6159
  13   0.0000       0.194047         5.2803

MULLIKEN ATOMIC CHARGES
-----------------------
   0 C :    0.000900
   1 O :    0.000111
   2 H :   -0.000135
   3 H :   -0.005736
   4 H :   -0.000263
   5 H :   -0.000273
   6 C :   -0.160011
   7 O :   -0.461223
   8 H :    0.319134
   9 H :    0.116060
  10 H :    0.095701
  11 H :    0.095734
Sum of atomic charges:    0.0000000

LOEWDIN ATOMIC CHARGES
----------------------
   0 C :   -0.002201
   1 O :   -0.000024
   2 H :   -0.000053
   3 H :   -0.004786
   4 H :   -0.000169
   5 H :   -0.000024
   6 C :   -0.416691
   7 O :   -0.055968
   8 H :    0.180597
   9 H :    0.111101
  10 H :    0.093540
  11 H :    0.094678

  Mayer bond orders larger than 0.1
B(  6-C ,  7-O ) :   1.0044 B(  6-C ,  9-H ) :   0.9751 B(  6-C , 10-H ) :   0.9618
B(  6-C , 11-H ) :   0.9906 B(  7-O ,  8-H ) :   0.8941

Dispersion correction           -0.000232913
FINAL SINGLE POINT ENERGY      -115.734375394309

DIPOLE MOMENT
-------------
                                X             Y             Z
Electronic contribution:     -0.16952      -1.74608      -0.61189
Nuclear contribution   :     -0.08894       1.98146       1.19512
                        -----------------------------------------
Total Dipole Moment    :     -0.25846       0.23538       0.58322
                        -----------------------------------------
Magnitude (a.u.)       :      0.67996
Magnitude (Debye)      :      1.72833

Rotational constants in cm-1:     4.203040     0.861652     0.823960
Rotational constants in MHz : 126003.971855 25831.690170 24701.705421

                             ****ORCA TERMINATED NORMALLY****
TOTAL RUN TIME: 0 days 0 hours 1 minutes 0 seconds 977 msec
