                         Program Version 4.1.2  - RELEASE  -
|  1> #Run DFT-D3 single point of the dimer
|  2> ! wB97X-D3 def2-TZVP TIGHTSCF CHELPG PMODEL PAL8
|  3>
|  4> %base "3-23_DFT_AB"
|  5>
|  6> %scf
|  7> MaxIter 1000
|  8> end
|  9>
| 10> * xyz 0 1
| 11>   C                      -1.479890            -2.782146            -10.347695
| 12>   O                      -2.119262            -3.328411            -11.446586
| 13>   H                      -1.445049            -3.506653            -12.123038
| 14>   H                      -2.045989            -2.790401            -9.457301
| 15>   H                      -0.487859            -3.274771            -10.077993
| 16>   H                      -1.208709            -1.733125            -10.415487
| 17>   C                      2.034985             -2.744475            -5.817266
| 18>   O                      2.736555             -2.909609            -4.626492
| 19>   H                      2.092520             -3.008004            -3.924737
| 20>   H                      2.544298             -3.003204            -6.733796
| 21>   H                      1.109340             -3.362636            -5.890541
| 22>   H                      1.652417             -1.735797            -6.016755
| 23> *
| 24>
| 25> #Run DFT-D3 single point of the molecule with dimer basis set
| 26> $new_job
| 27> %base "3-23_DFT_A"
| 28> ! wB97X-D3 def2-TZVP TIGHTSCF CHELPG PMODEL
| 29>
| 30> %scf
| 31> MaxIter 1000
| 32> end
| 33>
| 34> * xyz 0 1
| 35>   C                      -1.479890            -2.782146            -10.347695
| 36>   O                      -2.119262            -3.328411            -11.446586
| 37>   H                      -1.445049            -3.506653            -12.123038
| 38>   H                      -2.045989            -2.790401            -9.457301
| 39>   H                      -0.487859            -3.274771            -10.077993
| 40>   H                      -1.208709            -1.733125            -10.415487
| 41>   C                    : 2.034985             -2.744475            -5.817266
| 42>   O                    : 2.736555             -2.909609            -4.626492
| 43>   H                    : 2.092520             -3.008004            -3.924737
| 44>   H                    : 2.544298             -3.003204            -6.733796
| 45>   H                    : 1.109340             -3.362636            -5.890541
| 46>   H                    : 1.652417             -1.735797            -6.016755
| 47> *
| 48>
| 49> #Run DFT-D3 single point of the particle with dimer basis set
| 50> $new_job
| 51> %base "3-23_DFT_B"
| 52> ! wB97X-D3 def2-TZVP TIGHTSCF CHELPG PMODEL
| 53>
| 54> %scf
| 55> MaxIter 1000
| 56> end
| 57>
| 58> * xyz 0 1
| 59>   C                    : -1.479890            -2.782146            -10.347695
| 60>   O                    : -2.119262            -3.328411            -11.446586
| 61>   H                    : -1.445049            -3.506653            -12.123038
| 62>   H                    : -2.045989            -2.790401            -9.457301
| 63>   H                    : -0.487859            -3.274771            -10.077993
| 64>   H                    : -1.208709            -1.733125            -10.415487
| 65>   C                      2.034985             -2.744475            -5.817266
| 66>   O                      2.736555             -2.909609            -4.626492
| 67>   H                      2.092520             -3.008004            -3.924737
| 68>   H                      2.544298             -3.003204            -6.733796
| 69>   H                      1.109340             -3.362636            -5.890541
| 70>   H                      1.652417             -1.735797            -6.016755
| 71> *
| 72>
| 73>                          ****END OF INPUT****
 Total Charge           Charge          ....    0
 Multiplicity           Mult            ....    1
 Number of Electrons    NEL             ....   36
Dispersion correction           -0.000643271
FINAL SINGLE POINT ENERGY      -231.463356472758
Dispersion correction           -0.000252274
FINAL SINGLE POINT ENERGY      -115.731279146694

CARTESIAN COORDINATES (ANGSTROEM)
---------------------------------
  C     -1.479890   -2.782146  -10.347695
  O     -2.119262   -3.328411  -11.446586
  H     -1.445049   -3.506653  -12.123038
  H     -2.045989   -2.790401   -9.457301
  H     -0.487859   -3.274771  -10.077993
  H     -1.208709   -1.733125  -10.415487
  C      2.034985   -2.744475   -5.817266
  O      2.736555   -2.909609   -4.626492
  H      2.092520   -3.008004   -3.924737
  H      2.544298   -3.003204   -6.733796
  H      1.109340   -3.362636   -5.890541
  H      1.652417   -1.735797   -6.016755

 Multiplicity           Mult            ....    1
 Number of Electrons    NEL             ....   18
 Basis Dimension        Dim             ....  172

ORBITAL ENERGIES
----------------

  NO   OCC          E(Eh)            E(eV)
   0   2.0000     -19.236203      -523.4437
   1   2.0000     -10.312754      -280.6243
   2   2.0000      -1.146670       -31.2025
   3   2.0000      -0.798064       -21.7164
   4   2.0000      -0.620833       -16.8937
   5   2.0000      -0.536863       -14.6088
   6   2.0000      -0.533923       -14.5288
   7   2.0000      -0.431650       -11.7458
   8   2.0000      -0.374600       -10.1934
   9   0.0000       0.082556         2.2465
  10   0.0000       0.114850         3.1252
  11   0.0000       0.139878         3.8063
  12   0.0000       0.166835         4.5398
  13   0.0000       0.194687         5.2977

MULLIKEN ATOMIC CHARGES
-----------------------
   0 C :    0.000021
   1 O :   -0.000000
   2 H :   -0.000000
   3 H :   -0.000015
   4 H :   -0.000031
   5 H :   -0.000002
   6 C :   -0.167536
   7 O :   -0.462912
   8 H :    0.320773
   9 H :    0.120566
  10 H :    0.094916
  11 H :    0.094220
Sum of atomic charges:    0.0000000

LOEWDIN ATOMIC CHARGES
----------------------
   0 C :   -0.000013
   1 O :   -0.000001
   2 H :   -0.000000
   3 H :   -0.000005
   4 H :   -0.000019
   5 H :   -0.000001
   6 C :   -0.414299
   7 O :   -0.053575
   8 H :    0.174014
   9 H :    0.103939
  10 H :    0.097609
  11 H :    0.092351

  Mayer bond orders larger than 0.1
B(  6-C ,  7-O ) :   1.0135 B(  6-C ,  9-H ) :   0.9732 B(  6-C , 10-H ) :   0.9829
B(  6-C , 11-H ) :   0.9728 B(  7-O ,  8-H ) :   0.8961

Dispersion correction           -0.000255301
FINAL SINGLE POINT ENERGY      -115.731997681035

DIPOLE MOMENT
-------------
                                X             Y             Z
Electronic contribution:      1.23866      -0.21775       1.63570
Nuclear contribution   :     -1.91705       0.20022      -1.64602
                        -----------------------------------------
Total Dipole Moment    :     -0.67839      -0.01753      -0.01032
                        -----------------------------------------
Magnitude (a.u.)       :      0.67870
Magnitude (Debye)      :      1.72512

Rotational constants in cm-1:     4.535094     0.832740     0.803423
Rotational constants in MHz : 135958.691236 24964.907359 24086.009252

                             ****ORCA TERMINATED NORMALLY****
TOTAL RUN TIME: 0 days 0 hours 6 minutes 17 seconds 12 msec
