                         Program Version 4.1.2  - RELEASE  -
|  1> #Run DFT-D3 single point of the dimer
|  2> ! wB97X-D3 def2-TZVP TIGHTSCF CHELPG PMODEL PAL8
|  3>
|  4> %base "13-208_DFT_AB"
|  5>
|  6> %scf
|  7> MaxIter 1000
|  8> end
|  9>
| 10> * xyz 0 1
| 11>   C                      5.160119             -4.518508            -1.480591
| 12>   O                      6.307349             -3.679778            -1.437952
| 13>   H                      6.918061             -4.117089            -2.025001
| 14>   H                      4.300942             -3.910907            -1.216338
| 15>   H                      4.971459             -5.059759            -2.422785
| 16>   H                      5.262418             -5.328838            -0.725788
| 17>   C                      6.434356             -0.699909            0.170540
| 18>   O                      5.365112             -0.900718            -0.728874
| 19>   H                      5.747872             -1.539752            -1.360051
| 20>   H                      7.251423             -0.122090            -0.272129
| 21>   H                      6.045687             -0.224587            1.058624
| 22>   H                      6.784626             -1.682548            0.522621
| 23> *
| 24>
| 25> #Run DFT-D3 single point of the molecule with dimer basis set
| 26> $new_job
| 27> %base "13-208_DFT_A"
| 28> ! wB97X-D3 def2-TZVP TIGHTSCF CHELPG PMODEL
| 29>
| 30> %scf
| 31> MaxIter 1000
| 32> end
| 33>
| 34> * xyz 0 1
| 35>   C                      5.160119             -4.518508            -1.480591
| 36>   O                      6.307349             -3.679778            -1.437952
| 37>   H                      6.918061             -4.117089            -2.025001
| 38>   H                      4.300942             -3.910907            -1.216338
| 39>   H                      4.971459             -5.059759            -2.422785
| 40>   H                      5.262418             -5.328838            -0.725788
| 41>   C                    : 6.434356             -0.699909            0.170540
| 42>   O                    : 5.365112             -0.900718            -0.728874
| 43>   H                    : 5.747872             -1.539752            -1.360051
| 44>   H                    : 7.251423             -0.122090            -0.272129
| 45>   H                    : 6.045687             -0.224587            1.058624
| 46>   H                    : 6.784626             -1.682548            0.522621
| 47> *
| 48>
| 49> #Run DFT-D3 single point of the particle with dimer basis set
| 50> $new_job
| 51> %base "13-208_DFT_B"
| 52> ! wB97X-D3 def2-TZVP TIGHTSCF CHELPG PMODEL
| 53>
| 54> %scf
| 55> MaxIter 1000
| 56> end
| 57>
| 58> * xyz 0 1
| 59>   C                    : 5.160119             -4.518508            -1.480591
| 60>   O                    : 6.307349             -3.679778            -1.437952
| 61>   H                    : 6.918061             -4.117089            -2.025001
| 62>   H                    : 4.300942             -3.910907            -1.216338
| 63>   H                    : 4.971459             -5.059759            -2.422785
| 64>   H                    : 5.262418             -5.328838            -0.725788
| 65>   C                      6.434356             -0.699909            0.170540
| 66>   O                      5.365112             -0.900718            -0.728874
| 67>   H                      5.747872             -1.539752            -1.360051
| 68>   H                      7.251423             -0.122090            -0.272129
| 69>   H                      6.045687             -0.224587            1.058624
| 70>   H                      6.784626             -1.682548            0.522621
| 71> *
| 72>
| 73>                          ****END OF INPUT****
 Total Charge           Charge          ....    0
 Multiplicity           Mult            ....    1
 Number of Electrons    NEL             ....   36
Dispersion correction           -0.001875527
FINAL SINGLE POINT ENERGY      -231.477653289306
Dispersion correction           -0.000241773
FINAL SINGLE POINT ENERGY      -115.734838962222

CARTESIAN COORDINATES (ANGSTROEM)
---------------------------------
  C      5.160119   -4.518508   -1.480591
  O      6.307349   -3.679778   -1.437952
  H      6.918061   -4.117089   -2.025001
  H      4.300942   -3.910907   -1.216338
  H      4.971459   -5.059759   -2.422785
  H      5.262418   -5.328838   -0.725788
  C      6.434356   -0.699909    0.170540
  O      5.365112   -0.900718   -0.728874
  H      5.747872   -1.539752   -1.360051
  H      7.251423   -0.122090   -0.272129
  H      6.045687   -0.224587    1.058624
  H      6.784626   -1.682548    0.522621

 Multiplicity           Mult            ....    1
 Number of Electrons    NEL             ....   18
 Basis Dimension        Dim             ....  172

ORBITAL ENERGIES
----------------

  NO   OCC          E(Eh)            E(eV)
   0   2.0000     -19.233171      -523.3612
   1   2.0000     -10.311935      -280.6020
   2   2.0000      -1.138380       -30.9769
   3   2.0000      -0.791546       -21.5391
   4   2.0000      -0.607330       -16.5263
   5   2.0000      -0.549412       -14.9503
   6   2.0000      -0.525174       -14.2907
   7   2.0000      -0.437159       -11.8957
   8   2.0000      -0.375064       -10.2060
   9   0.0000       0.071906         1.9567
  10   0.0000       0.131020         3.5652
  11   0.0000       0.155361         4.2276
  12   0.0000       0.167770         4.5652
  13   0.0000       0.184735         5.0269

MULLIKEN ATOMIC CHARGES
-----------------------
   0 C :   -0.001366
   1 O :   -0.003093
   2 H :   -0.000193
   3 H :   -0.003823
   4 H :   -0.000006
   5 H :   -0.000020
   6 C :   -0.168580
   7 O :   -0.457606
   8 H :    0.315002
   9 H :    0.106214
  10 H :    0.117376
  11 H :    0.096094
Sum of atomic charges:   -0.0000000

LOEWDIN ATOMIC CHARGES
----------------------
   0 C :   -0.004197
   1 O :   -0.010868
   2 H :   -0.000521
   3 H :   -0.002466
   4 H :   -0.000044
   5 H :   -0.000046
   6 C :   -0.389182
   7 O :   -0.072008
   8 H :    0.183199
   9 H :    0.095328
  10 H :    0.105055
  11 H :    0.095751

  Mayer bond orders larger than 0.1
B(  6-C ,  7-O ) :   1.0041 B(  6-C ,  9-H ) :   0.9745 B(  6-C , 10-H ) :   0.9751
B(  6-C , 11-H ) :   0.9813 B(  7-O ,  8-H ) :   0.9037

Dispersion correction           -0.000217383
FINAL SINGLE POINT ENERGY      -115.735383787462

DIPOLE MOMENT
-------------
                                X             Y             Z
Electronic contribution:     -1.43771      -0.04996      -1.09410
Nuclear contribution   :      2.07117      -0.25581       1.07775
                        -----------------------------------------
Total Dipole Moment    :      0.63346      -0.30577      -0.01635
                        -----------------------------------------
Magnitude (a.u.)       :      0.70359
Magnitude (Debye)      :      1.78838

Rotational constants in cm-1:     4.180320     0.842694     0.815318
Rotational constants in MHz : 125322.845311 25263.328122 24442.608645

                             ****ORCA TERMINATED NORMALLY****
TOTAL RUN TIME: 0 days 0 hours 1 minutes 1 seconds 721 msec
