                         Program Version 4.1.2  - RELEASE  -
|  1> #Run DFT-D3 single point of the dimer
|  2> ! wB97X-D3 def2-TZVP TIGHTSCF CHELPG PMODEL PAL8
|  3>
|  4> %base "10-147_DFT_AB"
|  5>
|  6> %scf
|  7> MaxIter 1000
|  8> end
|  9>
| 10> * xyz 0 1
| 11>   C                      -2.728455            -8.294067            -3.970005
| 12>   O                      -1.346350            -8.753726            -4.049427
| 13>   H                      -1.341560            -9.587864            -3.613665
| 14>   H                      -3.399248            -9.087153            -4.171375
| 15>   H                      -2.930991            -7.956123            -2.995674
| 16>   H                      -2.988727            -7.505298            -4.671363
| 17>   C                      1.399449             -3.664081            -2.969672
| 18>   O                      0.705030             -4.800889            -3.411069
| 19>   H                      1.369790             -5.476157            -3.502879
| 20>   H                      1.257249             -2.786384            -3.541360
| 21>   H                      1.256852             -3.331110            -1.938535
| 22>   H                      2.496382             -3.861510            -3.022179
| 23> *
| 24>
| 25> #Run DFT-D3 single point of the molecule with dimer basis set
| 26> $new_job
| 27> %base "10-147_DFT_A"
| 28> ! wB97X-D3 def2-TZVP TIGHTSCF CHELPG PMODEL
| 29>
| 30> %scf
| 31> MaxIter 1000
| 32> end
| 33>
| 34> * xyz 0 1
| 35>   C                      -2.728455            -8.294067            -3.970005
| 36>   O                      -1.346350            -8.753726            -4.049427
| 37>   H                      -1.341560            -9.587864            -3.613665
| 38>   H                      -3.399248            -9.087153            -4.171375
| 39>   H                      -2.930991            -7.956123            -2.995674
| 40>   H                      -2.988727            -7.505298            -4.671363
| 41>   C                    : 1.399449             -3.664081            -2.969672
| 42>   O                    : 0.705030             -4.800889            -3.411069
| 43>   H                    : 1.369790             -5.476157            -3.502879
| 44>   H                    : 1.257249             -2.786384            -3.541360
| 45>   H                    : 1.256852             -3.331110            -1.938535
| 46>   H                    : 2.496382             -3.861510            -3.022179
| 47> *
| 48>
| 49> #Run DFT-D3 single point of the particle with dimer basis set
| 50> $new_job
| 51> %base "10-147_DFT_B"
| 52> ! wB97X-D3 def2-TZVP TIGHTSCF CHELPG PMODEL
| 53>
| 54> %scf
| 55> MaxIter 1000
| 56> end
| 57>
| 58> * xyz 0 1
| 59>   C                    : -2.728455            -8.294067            -3.970005
| 60>   O                    : -1.346350            -8.753726            -4.049427
| 61>   H                    : -1.341560            -9.587864            -3.613665
| 62>   H                    : -3.399248            -9.087153            -4.171375
| 63>   H                    : -2.930991            -7.956123            -2.995674
| 64>   H                    : -2.988727            -7.505298            -4.671363
| 65>   C                      1.399449             -3.664081            -2.969672
| 66>   O                      0.705030             -4.800889            -3.411069
| 67>   H                      1.369790             -5.476157            -3.502879
| 68>   H                      1.257249             -2.786384            -3.541360
| 69>   H                      1.256852             -3.331110            -1.938535
| 70>   H                      2.496382             -3.861510            -3.022179
| 71> *
| 72>
| 73>                          ****END OF INPUT****
 Total Charge           Charge          ....    0
 Multiplicity           Mult            ....    1
 Number of Electrons    NEL             ....   36
Dispersion correction           -0.000678612
FINAL SINGLE POINT ENERGY      -231.462061961233
Dispersion correction           -0.000236137
FINAL SINGLE POINT ENERGY      -115.731540033874

CARTESIAN COORDINATES (ANGSTROEM)
---------------------------------
  C     -2.728455   -8.294067   -3.970005
  O     -1.346350   -8.753726   -4.049427
  H     -1.341560   -9.587864   -3.613665
  H     -3.399248   -9.087153   -4.171375
  H     -2.930991   -7.956123   -2.995674
  H     -2.988727   -7.505298   -4.671363
  C      1.399449   -3.664081   -2.969672
  O      0.705030   -4.800889   -3.411069
  H      1.369790   -5.476157   -3.502879
  H      1.257249   -2.786384   -3.541360
  H      1.256852   -3.331110   -1.938535
  H      2.496382   -3.861510   -3.022179

 Multiplicity           Mult            ....    1
 Number of Electrons    NEL             ....   18
 Basis Dimension        Dim             ....  172

ORBITAL ENERGIES
----------------

  NO   OCC          E(Eh)            E(eV)
   0   2.0000     -19.234333      -523.3928
   1   2.0000     -10.311410      -280.5877
   2   2.0000      -1.145228       -31.1632
   3   2.0000      -0.799066       -21.7437
   4   2.0000      -0.617684       -16.8080
   5   2.0000      -0.539684       -14.6855
   6   2.0000      -0.536329       -14.5943
   7   2.0000      -0.431308       -11.7365
   8   2.0000      -0.377258       -10.2657
   9   0.0000       0.091091         2.4787
  10   0.0000       0.111937         3.0460
  11   0.0000       0.151414         4.1202
  12   0.0000       0.169812         4.6208
  13   0.0000       0.199698         5.4341

MULLIKEN ATOMIC CHARGES
-----------------------
   0 C :   -0.000469
   1 O :    0.000044
   2 H :    0.000002
   3 H :   -0.000016
   4 H :    0.000042
   5 H :    0.000016
   6 C :   -0.177778
   7 O :   -0.460712
   8 H :    0.321144
   9 H :    0.117227
  10 H :    0.102944
  11 H :    0.097557
Sum of atomic charges:    0.0000000

LOEWDIN ATOMIC CHARGES
----------------------
   0 C :   -0.000182
   1 O :   -0.000023
   2 H :   -0.000002
   3 H :   -0.000009
   4 H :   -0.000015
   5 H :   -0.000020
   6 C :   -0.398188
   7 O :   -0.061937
   8 H :    0.170305
   9 H :    0.092511
  10 H :    0.096227
  11 H :    0.101334

  Mayer bond orders larger than 0.1
B(  6-C ,  7-O ) :   1.0212 B(  6-C ,  9-H ) :   0.9747 B(  6-C , 10-H ) :   0.9705
B(  6-C , 11-H ) :   0.9956 B(  7-O ,  8-H ) :   0.9002

Dispersion correction           -0.000248981
FINAL SINGLE POINT ENERGY      -115.730281691500

DIPOLE MOMENT
-------------
                                X             Y             Z
Electronic contribution:     -1.22815      -1.46003      -0.62311
Nuclear contribution   :      1.93741       1.46693       0.72032
                        -----------------------------------------
Total Dipole Moment    :      0.70925       0.00690       0.09721
                        -----------------------------------------
Magnitude (a.u.)       :      0.71592
Magnitude (Debye)      :      1.81972

Rotational constants in cm-1:     4.512383     0.834369     0.800841
Rotational constants in MHz : 135277.840856 25013.738918 24008.615915

                             ****ORCA TERMINATED NORMALLY****
TOTAL RUN TIME: 0 days 0 hours 1 minutes 3 seconds 408 msec
