                         Program Version 4.1.2  - RELEASE  -
|  1> #Run DFT-D3 single point of the dimer
|  2> ! wB97X-D3 def2-TZVP TIGHTSCF CHELPG PMODEL PAL8
|  3>
|  4> %base "7-83_DFT_AB"
|  5>
|  6> %scf
|  7> MaxIter 1000
|  8> end
|  9>
| 10> * xyz 0 1
| 11>   C                      3.021370             9.219144             -8.876034
| 12>   O                      2.988232             10.333611            -8.053201
| 13>   H                      3.566255             11.030090            -8.396873
| 14>   H                      2.927108             8.298902             -8.306554
| 15>   H                      2.081663             9.364225             -9.548580
| 16>   H                      3.885532             9.146176             -9.495416
| 17>   C                      -0.189572            8.822478             -7.523880
| 18>   O                      0.494514             9.756520             -6.564445
| 19>   H                      1.487266             9.819291             -6.855845
| 20>   H                      0.109703             7.798659             -7.295685
| 21>   H                      -1.311215            8.829156             -7.447781
| 22>   H                      -0.018459            8.922544             -8.593016
| 23> *
| 24>
| 25> #Run DFT-D3 single point of the molecule with dimer basis set
| 26> $new_job
| 27> %base "7-83_DFT_A"
| 28> ! wB97X-D3 def2-TZVP TIGHTSCF CHELPG PMODEL
| 29>
| 30> %scf
| 31> MaxIter 1000
| 32> end
| 33>
| 34> * xyz 0 1
| 35>   C                      3.021370             9.219144             -8.876034
| 36>   O                      2.988232             10.333611            -8.053201
| 37>   H                      3.566255             11.030090            -8.396873
| 38>   H                      2.927108             8.298902             -8.306554
| 39>   H                      2.081663             9.364225             -9.548580
| 40>   H                      3.885532             9.146176             -9.495416
| 41>   C                    : -0.189572            8.822478             -7.523880
| 42>   O                    : 0.494514             9.756520             -6.564445
| 43>   H                    : 1.487266             9.819291             -6.855845
| 44>   H                    : 0.109703             7.798659             -7.295685
| 45>   H                    : -1.311215            8.829156             -7.447781
| 46>   H                    : -0.018459            8.922544             -8.593016
| 47> *
| 48>
| 49> #Run DFT-D3 single point of the particle with dimer basis set
| 50> $new_job
| 51> %base "7-83_DFT_B"
| 52> ! wB97X-D3 def2-TZVP TIGHTSCF CHELPG PMODEL
| 53>
| 54> %scf
| 55> MaxIter 1000
| 56> end
| 57>
| 58> * xyz 0 1
| 59>   C                    : 3.021370             9.219144             -8.876034
| 60>   O                    : 2.988232             10.333611            -8.053201
| 61>   H                    : 3.566255             11.030090            -8.396873
| 62>   H                    : 2.927108             8.298902             -8.306554
| 63>   H                    : 2.081663             9.364225             -9.548580
| 64>   H                    : 3.885532             9.146176             -9.495416
| 65>   C                      -0.189572            8.822478             -7.523880
| 66>   O                      0.494514             9.756520             -6.564445
| 67>   H                      1.487266             9.819291             -6.855845
| 68>   H                      0.109703             7.798659             -7.295685
| 69>   H                      -1.311215            8.829156             -7.447781
| 70>   H                      -0.018459            8.922544             -8.593016
| 71> *
| 72>
| 73>                          ****END OF INPUT****
 Total Charge           Charge          ....    0
 Multiplicity           Mult            ....    1
 Number of Electrons    NEL             ....   36
Dispersion correction           -0.002322048
FINAL SINGLE POINT ENERGY      -231.458514301494
Dispersion correction           -0.000235639
FINAL SINGLE POINT ENERGY      -115.730333733313

CARTESIAN COORDINATES (ANGSTROEM)
---------------------------------
  C      3.021370    9.219144   -8.876034
  O      2.988232   10.333611   -8.053201
  H      3.566255   11.030090   -8.396873
  H      2.927108    8.298902   -8.306554
  H      2.081663    9.364225   -9.548580
  H      3.885532    9.146176   -9.495416
  C     -0.189572    8.822478   -7.523880
  O      0.494514    9.756520   -6.564445
  H      1.487266    9.819291   -6.855845
  H      0.109703    7.798659   -7.295685
  H     -1.311215    8.829156   -7.447781
  H     -0.018459    8.922544   -8.593016

 Multiplicity           Mult            ....    1
 Number of Electrons    NEL             ....   18
 Basis Dimension        Dim             ....  172

ORBITAL ENERGIES
----------------

  NO   OCC          E(Eh)            E(eV)
   0   2.0000     -19.242453      -523.6138
   1   2.0000     -10.323156      -280.9074
   2   2.0000      -1.100046       -29.9338
   3   2.0000      -0.796205       -21.6658
   4   2.0000      -0.588777       -16.0214
   5   2.0000      -0.529112       -14.3979
   6   2.0000      -0.511499       -13.9186
   7   2.0000      -0.439141       -11.9496
   8   2.0000      -0.376699       -10.2505
   9   0.0000       0.067254         1.8301
  10   0.0000       0.128710         3.5024
  11   0.0000       0.139603         3.7988
  12   0.0000       0.167369         4.5543
  13   0.0000       0.181173         4.9300

MULLIKEN ATOMIC CHARGES
-----------------------
   0 C :   -0.006136
   1 O :   -0.001998
   2 H :   -0.000249
   3 H :   -0.000281
   4 H :    0.000821
   5 H :   -0.000190
   6 C :   -0.208205
   7 O :   -0.478146
   8 H :    0.320633
   9 H :    0.118933
  10 H :    0.135100
  11 H :    0.119718
Sum of atomic charges:   -0.0000000

LOEWDIN ATOMIC CHARGES
----------------------
   0 C :   -0.013662
   1 O :   -0.018589
   2 H :   -0.000844
   3 H :   -0.001840
   4 H :   -0.004306
   5 H :   -0.000169
   6 C :   -0.339167
   7 O :   -0.151915
   8 H :    0.217991
   9 H :    0.097709
  10 H :    0.116076
  11 H :    0.098718

  Mayer bond orders larger than 0.1
B(  6-C ,  7-O ) :   0.9907 B(  6-C ,  9-H ) :   0.9829 B(  6-C , 10-H ) :   0.9707
B(  6-C , 11-H ) :   0.9644 B(  7-O ,  8-H ) :   0.8939

Dispersion correction           -0.000316925
FINAL SINGLE POINT ENERGY      -115.722104368616

DIPOLE MOMENT
-------------
                                X             Y             Z
Electronic contribution:      0.72809       1.30623       1.27567
Nuclear contribution   :     -0.43613      -1.67791      -1.87001
                        -----------------------------------------
Total Dipole Moment    :      0.29195      -0.37168      -0.59434
                        -----------------------------------------
Magnitude (a.u.)       :      0.75935
Magnitude (Debye)      :      1.93012

Rotational constants in cm-1:     4.290081     0.735919     0.706983
Rotational constants in MHz : 128613.386885 22062.286990 21194.810906

                             ****ORCA TERMINATED NORMALLY****
TOTAL RUN TIME: 0 days 0 hours 1 minutes 0 seconds 153 msec
