                         Program Version 4.1.2  - RELEASE  -
|  1> #Run DFT-D3 single point of the dimer
|  2> ! wB97X-D3 def2-TZVP TIGHTSCF CHELPG PMODEL PAL8
|  3>
|  4> %base "6-195_DFT_AB"
|  5>
|  6> %scf
|  7> MaxIter 1000
|  8> end
|  9>
| 10> * xyz 0 1
| 11>   C                      7.712186             -6.551031            7.430713
| 12>   O                      6.356131             -6.462621            7.029702
| 13>   H                      6.229425             -6.355896            6.039159
| 14>   H                      7.888485             -6.577326            8.505830
| 15>   H                      8.158836             -7.446520            7.052474
| 16>   H                      8.295175             -5.696844            7.093777
| 17>   C                      5.345835             -5.496980            10.131205
| 18>   O                      4.489622             -6.041958            9.117409
| 19>   H                      5.107373             -5.994451            8.335632
| 20>   H                      6.241814             -6.084614            10.236029
| 21>   H                      5.692882             -4.544201            9.687126
| 22>   H                      4.908284             -5.200487            11.125695
| 23> *
| 24>
| 25> #Run DFT-D3 single point of the molecule with dimer basis set
| 26> $new_job
| 27> %base "6-195_DFT_A"
| 28> ! wB97X-D3 def2-TZVP TIGHTSCF CHELPG PMODEL
| 29>
| 30> %scf
| 31> MaxIter 1000
| 32> end
| 33>
| 34> * xyz 0 1
| 35>   C                      7.712186             -6.551031            7.430713
| 36>   O                      6.356131             -6.462621            7.029702
| 37>   H                      6.229425             -6.355896            6.039159
| 38>   H                      7.888485             -6.577326            8.505830
| 39>   H                      8.158836             -7.446520            7.052474
| 40>   H                      8.295175             -5.696844            7.093777
| 41>   C                    : 5.345835             -5.496980            10.131205
| 42>   O                    : 4.489622             -6.041958            9.117409
| 43>   H                    : 5.107373             -5.994451            8.335632
| 44>   H                    : 6.241814             -6.084614            10.236029
| 45>   H                    : 5.692882             -4.544201            9.687126
| 46>   H                    : 4.908284             -5.200487            11.125695
| 47> *
| 48>
| 49> #Run DFT-D3 single point of the particle with dimer basis set
| 50> $new_job
| 51> %base "6-195_DFT_B"
| 52> ! wB97X-D3 def2-TZVP TIGHTSCF CHELPG PMODEL
| 53>
| 54> %scf
| 55> MaxIter 1000
| 56> end
| 57>
| 58> * xyz 0 1
| 59>   C                    : 7.712186             -6.551031            7.430713
| 60>   O                    : 6.356131             -6.462621            7.029702
| 61>   H                    : 6.229425             -6.355896            6.039159
| 62>   H                    : 7.888485             -6.577326            8.505830
| 63>   H                    : 8.158836             -7.446520            7.052474
| 64>   H                    : 8.295175             -5.696844            7.093777
| 65>   C                      5.345835             -5.496980            10.131205
| 66>   O                      4.489622             -6.041958            9.117409
| 67>   H                      5.107373             -5.994451            8.335632
| 68>   H                      6.241814             -6.084614            10.236029
| 69>   H                      5.692882             -4.544201            9.687126
| 70>   H                      4.908284             -5.200487            11.125695
| 71> *
| 72>
| 73>                          ****END OF INPUT****
 Total Charge           Charge          ....    0
 Multiplicity           Mult            ....    1
 Number of Electrons    NEL             ....   36
Dispersion correction           -0.002133197
FINAL SINGLE POINT ENERGY      -231.465771254640
Dispersion correction           -0.000259722
FINAL SINGLE POINT ENERGY      -115.731463471271

CARTESIAN COORDINATES (ANGSTROEM)
---------------------------------
  C      7.712186   -6.551031    7.430713
  O      6.356131   -6.462621    7.029702
  H      6.229425   -6.355896    6.039159
  H      7.888485   -6.577326    8.505830
  H      8.158836   -7.446520    7.052474
  H      8.295175   -5.696844    7.093777
  C      5.345835   -5.496980   10.131205
  O      4.489622   -6.041958    9.117409
  H      5.107373   -5.994451    8.335632
  H      6.241814   -6.084614   10.236029
  H      5.692882   -4.544201    9.687126
  H      4.908284   -5.200487   11.125695

 Multiplicity           Mult            ....    1
 Number of Electrons    NEL             ....   18
 Basis Dimension        Dim             ....  172

ORBITAL ENERGIES
----------------

  NO   OCC          E(Eh)            E(eV)
   0   2.0000     -19.235855      -523.4342
   1   2.0000     -10.318765      -280.7879
   2   2.0000      -1.129810       -30.7437
   3   2.0000      -0.788205       -21.4481
   4   2.0000      -0.601823       -16.3764
   5   2.0000      -0.541058       -14.7229
   6   2.0000      -0.527424       -14.3519
   7   2.0000      -0.437990       -11.9183
   8   2.0000      -0.370320       -10.0769
   9   0.0000       0.065951         1.7946
  10   0.0000       0.131915         3.5896
  11   0.0000       0.139470         3.7952
  12   0.0000       0.171335         4.6623
  13   0.0000       0.184816         5.0291

MULLIKEN ATOMIC CHARGES
-----------------------
   0 C :   -0.001447
   1 O :   -0.004281
   2 H :   -0.000421
   3 H :   -0.000661
   4 H :    0.000093
   5 H :   -0.000101
   6 C :   -0.188998
   7 O :   -0.461375
   8 H :    0.318065
   9 H :    0.110423
  10 H :    0.099664
  11 H :    0.129039
Sum of atomic charges:   -0.0000000

LOEWDIN ATOMIC CHARGES
----------------------
   0 C :   -0.006633
   1 O :   -0.024758
   2 H :   -0.001301
   3 H :   -0.003079
   4 H :   -0.000085
   5 H :   -0.000110
   6 C :   -0.381834
   7 O :   -0.097079
   8 H :    0.207879
   9 H :    0.092522
  10 H :    0.099405
  11 H :    0.115074

  Mayer bond orders larger than 0.1
B(  6-C ,  7-O ) :   0.9859 B(  6-C ,  9-H ) :   0.9724 B(  6-C , 10-H ) :   0.9966
B(  6-C , 11-H ) :   0.9659 B(  7-O ,  8-H ) :   0.9001

Dispersion correction           -0.000221205
FINAL SINGLE POINT ENERGY      -115.725443167402

DIPOLE MOMENT
-------------
                                X             Y             Z
Electronic contribution:     -1.35019      -0.88949      -1.02122
Nuclear contribution   :      2.06277       1.15169       0.95744
                        -----------------------------------------
Total Dipole Moment    :      0.71258       0.26220      -0.06379
                        -----------------------------------------
Magnitude (a.u.)       :      0.76196
Magnitude (Debye)      :      1.93676

Rotational constants in cm-1:     4.174695     0.819778     0.781510
Rotational constants in MHz : 125154.213110 24576.324102 23429.094092

                             ****ORCA TERMINATED NORMALLY****
TOTAL RUN TIME: 0 days 0 hours 1 minutes 9 seconds 558 msec
