                         Program Version 4.1.2  - RELEASE  -
|  1> #Run DFT-D3 single point of the dimer
|  2> ! wB97X-D3 def2-TZVP TIGHTSCF CHELPG PMODEL PAL8
|  3>
|  4> %base "9-158_DFT_AB"
|  5>
|  6> %scf
|  7> MaxIter 1000
|  8> end
|  9>
| 10> * xyz 0 1
| 11>   C                      -2.998582            9.133272             -1.790097
| 12>   O                      -4.163758            8.383739             -1.734354
| 13>   H                      -4.391098            8.568409             -2.645364
| 14>   H                      -2.714693            9.333360             -2.837383
| 15>   H                      -3.005740            10.087952            -1.249025
| 16>   H                      -2.180196            8.576818             -1.433633
| 17>   C                      -5.056834            8.556647             -5.709782
| 18>   O                      -4.640371            9.264415             -4.651773
| 19>   H                      -4.099275            9.889459             -5.076227
| 20>   H                      -5.362481            7.502575             -5.460635
| 21>   H                      -5.837952            9.045678             -6.321058
| 22>   H                      -4.262423            8.393037             -6.352012
| 23> *
| 24>
| 25> #Run DFT-D3 single point of the molecule with dimer basis set
| 26> $new_job
| 27> %base "9-158_DFT_A"
| 28> ! wB97X-D3 def2-TZVP TIGHTSCF CHELPG PMODEL
| 29>
| 30> %scf
| 31> MaxIter 1000
| 32> end
| 33>
| 34> * xyz 0 1
| 35>   C                      -2.998582            9.133272             -1.790097
| 36>   O                      -4.163758            8.383739             -1.734354
| 37>   H                      -4.391098            8.568409             -2.645364
| 38>   H                      -2.714693            9.333360             -2.837383
| 39>   H                      -3.005740            10.087952            -1.249025
| 40>   H                      -2.180196            8.576818             -1.433633
| 41>   C                    : -5.056834            8.556647             -5.709782
| 42>   O                    : -4.640371            9.264415             -4.651773
| 43>   H                    : -4.099275            9.889459             -5.076227
| 44>   H                    : -5.362481            7.502575             -5.460635
| 45>   H                    : -5.837952            9.045678             -6.321058
| 46>   H                    : -4.262423            8.393037             -6.352012
| 47> *
| 48>
| 49> #Run DFT-D3 single point of the particle with dimer basis set
| 50> $new_job
| 51> %base "9-158_DFT_B"
| 52> ! wB97X-D3 def2-TZVP TIGHTSCF CHELPG PMODEL
| 53>
| 54> %scf
| 55> MaxIter 1000
| 56> end
| 57>
| 58> * xyz 0 1
| 59>   C                    : -2.998582            9.133272             -1.790097
| 60>   O                    : -4.163758            8.383739             -1.734354
| 61>   H                    : -4.391098            8.568409             -2.645364
| 62>   H                    : -2.714693            9.333360             -2.837383
| 63>   H                    : -3.005740            10.087952            -1.249025
| 64>   H                    : -2.180196            8.576818             -1.433633
| 65>   C                      -5.056834            8.556647             -5.709782
| 66>   O                      -4.640371            9.264415             -4.651773
| 67>   H                      -4.099275            9.889459             -5.076227
| 68>   H                      -5.362481            7.502575             -5.460635
| 69>   H                      -5.837952            9.045678             -6.321058
| 70>   H                      -4.262423            8.393037             -6.352012
| 71> *
| 72>
| 73>                          ****END OF INPUT****
 Total Charge           Charge          ....    0
 Multiplicity           Mult            ....    1
 Number of Electrons    NEL             ....   36
Dispersion correction           -0.001735995
FINAL SINGLE POINT ENERGY      -231.456666381681
Dispersion correction           -0.000205505
FINAL SINGLE POINT ENERGY      -115.724747421987

CARTESIAN COORDINATES (ANGSTROEM)
---------------------------------
  C     -2.998582    9.133272   -1.790097
  O     -4.163758    8.383739   -1.734354
  H     -4.391098    8.568409   -2.645364
  H     -2.714693    9.333360   -2.837383
  H     -3.005740   10.087952   -1.249025
  H     -2.180196    8.576818   -1.433633
  C     -5.056834    8.556647   -5.709782
  O     -4.640371    9.264415   -4.651773
  H     -4.099275    9.889459   -5.076227
  H     -5.362481    7.502575   -5.460635
  H     -5.837952    9.045678   -6.321058
  H     -4.262423    8.393037   -6.352012

 Multiplicity           Mult            ....    1
 Number of Electrons    NEL             ....   18
 Basis Dimension        Dim             ....  172

ORBITAL ENERGIES
----------------

  NO   OCC          E(Eh)            E(eV)
   0   2.0000     -19.232160      -523.3337
   1   2.0000     -10.305661      -280.4313
   2   2.0000      -1.176695       -32.0195
   3   2.0000      -0.794120       -21.6091
   4   2.0000      -0.635397       -17.2900
   5   2.0000      -0.556242       -15.1361
   6   2.0000      -0.537617       -14.6293
   7   2.0000      -0.432918       -11.7803
   8   2.0000      -0.374107       -10.1800
   9   0.0000       0.099502         2.7076
  10   0.0000       0.126134         3.4323
  11   0.0000       0.157603         4.2886
  12   0.0000       0.184434         5.0187
  13   0.0000       0.207056         5.6343

MULLIKEN ATOMIC CHARGES
-----------------------
   0 C :    0.012027
   1 O :   -0.001264
   2 H :   -0.008898
   3 H :   -0.015316
   4 H :   -0.000595
   5 H :   -0.000554
   6 C :   -0.164017
   7 O :   -0.424666
   8 H :    0.312055
   9 H :    0.105057
  10 H :    0.086375
  11 H :    0.099796
Sum of atomic charges:    0.0000000

LOEWDIN ATOMIC CHARGES
----------------------
   0 C :   -0.007233
   1 O :   -0.002156
   2 H :   -0.024346
   3 H :   -0.007685
   4 H :   -0.000082
   5 H :   -0.000049
   6 C :   -0.445258
   7 O :    0.031995
   8 H :    0.165383
   9 H :    0.113046
  10 H :    0.094552
  11 H :    0.081830

  Mayer bond orders larger than 0.1
B(  6-C ,  7-O ) :   1.0029 B(  6-C ,  9-H ) :   0.9768 B(  6-C , 10-H ) :   0.9695
B(  6-C , 11-H ) :   0.9897 B(  7-O ,  8-H ) :   0.9026

Dispersion correction           -0.000193041
FINAL SINGLE POINT ENERGY      -115.723812819061

DIPOLE MOMENT
-------------
                                X             Y             Z
Electronic contribution:      0.47422       0.96743       1.62913
Nuclear contribution   :     -0.23204      -0.82575      -2.27857
                        -----------------------------------------
Total Dipole Moment    :      0.24219       0.14167      -0.64944
                        -----------------------------------------
Magnitude (a.u.)       :      0.70746
Magnitude (Debye)      :      1.79821

Rotational constants in cm-1:     4.426759     0.912996     0.878351
Rotational constants in MHz : 132710.902650 27370.922494 26332.308718

                             ****ORCA TERMINATED NORMALLY****
TOTAL RUN TIME: 0 days 0 hours 0 minutes 47 seconds 796 msec
