                         Program Version 4.1.2  - RELEASE  -
|  1> #Run DFT-D3 single point of the dimer
|  2> ! wB97X-D3 def2-TZVP TIGHTSCF CHELPG PMODEL PAL8
|  3>
|  4> %base "1-108_DFT_AB"
|  5>
|  6> %scf
|  7> MaxIter 1000
|  8> end
|  9>
| 10> * xyz 0 1
| 11>   C                      -0.021919            8.009453             2.783988
| 12>   O                      -0.528219            7.199774             3.833651
| 13>   H                      0.125578             6.504699             4.084652
| 14>   H                      0.915588             8.444604             3.152632
| 15>   H                      0.145282             7.447361             1.830952
| 16>   H                      -0.773289            8.872872             2.476492
| 17>   C                      2.048376             4.863387             1.672935
| 18>   O                      2.054165             6.299924             1.791389
| 19>   H                      2.832459             6.575149             2.255047
| 20>   H                      1.922047             4.439233             2.619953
| 21>   H                      1.223006             4.407376             1.191580
| 22>   H                      3.058283             4.518590             1.360563
| 23> *
| 24>
| 25> #Run DFT-D3 single point of the molecule with dimer basis set
| 26> $new_job
| 27> %base "1-108_DFT_A"
| 28> ! wB97X-D3 def2-TZVP TIGHTSCF CHELPG PMODEL
| 29>
| 30> %scf
| 31> MaxIter 1000
| 32> end
| 33>
| 34> * xyz 0 1
| 35>   C                      -0.021919            8.009453             2.783988
| 36>   O                      -0.528219            7.199774             3.833651
| 37>   H                      0.125578             6.504699             4.084652
| 38>   H                      0.915588             8.444604             3.152632
| 39>   H                      0.145282             7.447361             1.830952
| 40>   H                      -0.773289            8.872872             2.476492
| 41>   C                    : 2.048376             4.863387             1.672935
| 42>   O                    : 2.054165             6.299924             1.791389
| 43>   H                    : 2.832459             6.575149             2.255047
| 44>   H                    : 1.922047             4.439233             2.619953
| 45>   H                    : 1.223006             4.407376             1.191580
| 46>   H                    : 3.058283             4.518590             1.360563
| 47> *
| 48>
| 49> #Run DFT-D3 single point of the particle with dimer basis set
| 50> $new_job
| 51> %base "1-108_DFT_B"
| 52> ! wB97X-D3 def2-TZVP TIGHTSCF CHELPG PMODEL
| 53>
| 54> %scf
| 55> MaxIter 1000
| 56> end
| 57>
| 58> * xyz 0 1
| 59>   C                    : -0.021919            8.009453             2.783988
| 60>   O                    : -0.528219            7.199774             3.833651
| 61>   H                    : 0.125578             6.504699             4.084652
| 62>   H                    : 0.915588             8.444604             3.152632
| 63>   H                    : 0.145282             7.447361             1.830952
| 64>   H                    : -0.773289            8.872872             2.476492
| 65>   C                      2.048376             4.863387             1.672935
| 66>   O                      2.054165             6.299924             1.791389
| 67>   H                      2.832459             6.575149             2.255047
| 68>   H                      1.922047             4.439233             2.619953
| 69>   H                      1.223006             4.407376             1.191580
| 70>   H                      3.058283             4.518590             1.360563
| 71> *
| 72>
| 73>                          ****END OF INPUT****
 Total Charge           Charge          ....    0
 Multiplicity           Mult            ....    1
 Number of Electrons    NEL             ....   36
Dispersion correction           -0.002151706
FINAL SINGLE POINT ENERGY      -231.453755015572
Dispersion correction           -0.000261686
FINAL SINGLE POINT ENERGY      -115.729298802573

CARTESIAN COORDINATES (ANGSTROEM)
---------------------------------
  C     -0.021919    8.009453    2.783988
  O     -0.528219    7.199774    3.833651
  H      0.125578    6.504699    4.084652
  H      0.915588    8.444604    3.152632
  H      0.145282    7.447361    1.830952
  H     -0.773289    8.872872    2.476492
  C      2.048376    4.863387    1.672935
  O      2.054165    6.299924    1.791389
  H      2.832459    6.575149    2.255047
  H      1.922047    4.439233    2.619953
  H      1.223006    4.407376    1.191580
  H      3.058283    4.518590    1.360563

 Multiplicity           Mult            ....    1
 Number of Electrons    NEL             ....   18
 Basis Dimension        Dim             ....  172

ORBITAL ENERGIES
----------------

  NO   OCC          E(Eh)            E(eV)
   0   2.0000     -19.228472      -523.2333
   1   2.0000     -10.309952      -280.5481
   2   2.0000      -1.129789       -30.7431
   3   2.0000      -0.807454       -21.9719
   4   2.0000      -0.609272       -16.5791
   5   2.0000      -0.549522       -14.9532
   6   2.0000      -0.524672       -14.2771
   7   2.0000      -0.434950       -11.8356
   8   2.0000      -0.371341       -10.1047
   9   0.0000       0.096371         2.6224
  10   0.0000       0.134097         3.6490
  11   0.0000       0.147556         4.0152
  12   0.0000       0.176023         4.7898
  13   0.0000       0.200209         5.4480

MULLIKEN ATOMIC CHARGES
-----------------------
   0 C :    0.014694
   1 O :   -0.000555
   2 H :   -0.003906
   3 H :   -0.007985
   4 H :   -0.011750
   5 H :   -0.000686
   6 C :   -0.167887
   7 O :   -0.477607
   8 H :    0.313639
   9 H :    0.109911
  10 H :    0.130196
  11 H :    0.101937
Sum of atomic charges:   -0.0000000

LOEWDIN ATOMIC CHARGES
----------------------
   0 C :   -0.028687
   1 O :   -0.000710
   2 H :   -0.002769
   3 H :   -0.004222
   4 H :   -0.018687
   5 H :   -0.000295
   6 C :   -0.355252
   7 O :   -0.046211
   8 H :    0.160792
   9 H :    0.087935
  10 H :    0.104559
  11 H :    0.103549

  Mayer bond orders larger than 0.1
B(  6-C ,  7-O ) :   0.9804 B(  6-C ,  9-H ) :   0.9786 B(  6-C , 10-H ) :   0.9733
B(  6-C , 11-H ) :   0.9816 B(  7-O ,  8-H ) :   0.8981

Dispersion correction           -0.000239157
FINAL SINGLE POINT ENERGY      -115.725831808394

DIPOLE MOMENT
-------------
                                X             Y             Z
Electronic contribution:     -0.19760       1.82049      -0.09529
Nuclear contribution   :      0.67958      -2.28210       0.38170
                        -----------------------------------------
Total Dipole Moment    :      0.48199      -0.46161       0.28641
                        -----------------------------------------
Magnitude (a.u.)       :      0.72624
Magnitude (Debye)      :      1.84596

Rotational constants in cm-1:     4.562628     0.808942     0.771503
Rotational constants in MHz : 136784.132588 24251.457223 23129.078301

                             ****ORCA TERMINATED NORMALLY****
TOTAL RUN TIME: 0 days 0 hours 4 minutes 40 seconds 747 msec
