                         Program Version 4.1.2  - RELEASE  -
|  1> #Run DFT-D3 single point of the dimer
|  2> ! wB97X-D3 def2-TZVP TIGHTSCF CHELPG PMODEL PAL8
|  3>
|  4> %base "5-193_DFT_AB"
|  5>
|  6> %scf
|  7> MaxIter 1000
|  8> end
|  9>
| 10> * xyz 0 1
| 11>   C                      -10.905900           4.691083             -2.253207
| 12>   O                      -10.279769           5.614224             -1.330346
| 13>   H                      -9.385260            5.194568             -1.209136
| 14>   H                      -10.600966           3.681428             -1.983528
| 15>   H                      -12.013929           4.621975             -2.190608
| 16>   H                      -10.508942           4.939356             -3.231760
| 17>   C                      -7.069436            4.710049             -4.173068
| 18>   O                      -7.364946            5.478951             -2.979066
| 19>   H                      -7.815048            6.334427             -3.175084
| 20>   H                      -6.428406            3.874284             -3.930640
| 21>   H                      -8.027823            4.256572             -4.508714
| 22>   H                      -6.609896            5.318532             -5.031137
| 23> *
| 24>
| 25> #Run DFT-D3 single point of the molecule with dimer basis set
| 26> $new_job
| 27> %base "5-193_DFT_A"
| 28> ! wB97X-D3 def2-TZVP TIGHTSCF CHELPG PMODEL
| 29>
| 30> %scf
| 31> MaxIter 1000
| 32> end
| 33>
| 34> * xyz 0 1
| 35>   C                      -10.905900           4.691083             -2.253207
| 36>   O                      -10.279769           5.614224             -1.330346
| 37>   H                      -9.385260            5.194568             -1.209136
| 38>   H                      -10.600966           3.681428             -1.983528
| 39>   H                      -12.013929           4.621975             -2.190608
| 40>   H                      -10.508942           4.939356             -3.231760
| 41>   C                    : -7.069436            4.710049             -4.173068
| 42>   O                    : -7.364946            5.478951             -2.979066
| 43>   H                    : -7.815048            6.334427             -3.175084
| 44>   H                    : -6.428406            3.874284             -3.930640
| 45>   H                    : -8.027823            4.256572             -4.508714
| 46>   H                    : -6.609896            5.318532             -5.031137
| 47> *
| 48>
| 49> #Run DFT-D3 single point of the particle with dimer basis set
| 50> $new_job
| 51> %base "5-193_DFT_B"
| 52> ! wB97X-D3 def2-TZVP TIGHTSCF CHELPG PMODEL
| 53>
| 54> %scf
| 55> MaxIter 1000
| 56> end
| 57>
| 58> * xyz 0 1
| 59>   C                    : -10.905900           4.691083             -2.253207
| 60>   O                    : -10.279769           5.614224             -1.330346
| 61>   H                    : -9.385260            5.194568             -1.209136
| 62>   H                    : -10.600966           3.681428             -1.983528
| 63>   H                    : -12.013929           4.621975             -2.190608
| 64>   H                    : -10.508942           4.939356             -3.231760
| 65>   C                      -7.069436            4.710049             -4.173068
| 66>   O                      -7.364946            5.478951             -2.979066
| 67>   H                      -7.815048            6.334427             -3.175084
| 68>   H                      -6.428406            3.874284             -3.930640
| 69>   H                      -8.027823            4.256572             -4.508714
| 70>   H                      -6.609896            5.318532             -5.031137
| 71> *
| 72>
| 73>                          ****END OF INPUT****
 Total Charge           Charge          ....    0
 Multiplicity           Mult            ....    1
 Number of Electrons    NEL             ....   36
Dispersion correction           -0.001958845
FINAL SINGLE POINT ENERGY      -231.466705008777
Dispersion correction           -0.000227742
FINAL SINGLE POINT ENERGY      -115.729293250433

CARTESIAN COORDINATES (ANGSTROEM)
---------------------------------
  C    -10.905900    4.691083   -2.253207
  O    -10.279769    5.614224   -1.330346
  H     -9.385260    5.194568   -1.209136
  H    -10.600966    3.681428   -1.983528
  H    -12.013929    4.621975   -2.190608
  H    -10.508942    4.939356   -3.231760
  C     -7.069436    4.710049   -4.173068
  O     -7.364946    5.478951   -2.979066
  H     -7.815048    6.334427   -3.175084
  H     -6.428406    3.874284   -3.930640
  H     -8.027823    4.256572   -4.508714
  H     -6.609896    5.318532   -5.031137

 Multiplicity           Mult            ....    1
 Number of Electrons    NEL             ....   18
 Basis Dimension        Dim             ....  172

ORBITAL ENERGIES
----------------

  NO   OCC          E(Eh)            E(eV)
   0   2.0000     -19.231801      -523.3239
   1   2.0000     -10.323593      -280.9192
   2   2.0000      -1.118015       -30.4227
   3   2.0000      -0.793238       -21.5851
   4   2.0000      -0.598625       -16.2894
   5   2.0000      -0.532175       -14.4812
   6   2.0000      -0.527202       -14.3459
   7   2.0000      -0.429740       -11.6938
   8   2.0000      -0.372019       -10.1232
   9   0.0000       0.087425         2.3790
  10   0.0000       0.127945         3.4815
  11   0.0000       0.144404         3.9294
  12   0.0000       0.182238         4.9589
  13   0.0000       0.189489         5.1563

MULLIKEN ATOMIC CHARGES
-----------------------
   0 C :    0.000486
   1 O :    0.000092
   2 H :   -0.004412
   3 H :   -0.000415
   4 H :   -0.000285
   5 H :   -0.003958
   6 C :   -0.165512
   7 O :   -0.488602
   8 H :    0.320655
   9 H :    0.129443
  10 H :    0.104505
  11 H :    0.108003
Sum of atomic charges:   -0.0000000

LOEWDIN ATOMIC CHARGES
----------------------
   0 C :   -0.003909
   1 O :   -0.001763
   2 H :   -0.008952
   3 H :   -0.000168
   4 H :   -0.000077
   5 H :   -0.001903
   6 C :   -0.365352
   7 O :   -0.107272
   8 H :    0.180434
   9 H :    0.105215
  10 H :    0.098275
  11 H :    0.105471

  Mayer bond orders larger than 0.1
B(  6-C ,  7-O ) :   0.9933 B(  6-C ,  9-H ) :   0.9718 B(  6-C , 10-H ) :   0.9776
B(  6-C , 11-H ) :   0.9690 B(  7-O ,  8-H ) :   0.8895

Dispersion correction           -0.000282518
FINAL SINGLE POINT ENERGY      -115.732046834506

DIPOLE MOMENT
-------------
                                X             Y             Z
Electronic contribution:     -0.20170       0.86630       1.56680
Nuclear contribution   :      0.05693      -0.66161      -2.19018
                        -----------------------------------------
Total Dipole Moment    :     -0.14478       0.20468      -0.62338
                        -----------------------------------------
Magnitude (a.u.)       :      0.67190
Magnitude (Debye)      :      1.70785

Rotational constants in cm-1:     4.180786     0.786164     0.760131
Rotational constants in MHz : 125336.806216 23568.613500 22788.150882

                             ****ORCA TERMINATED NORMALLY****
TOTAL RUN TIME: 0 days 0 hours 0 minutes 56 seconds 621 msec
