                         Program Version 4.1.2  - RELEASE  -
|  1> #Run DFT-D3 single point of the dimer
|  2> ! wB97X-D3 def2-TZVP TIGHTSCF CHELPG PMODEL PAL8
|  3>
|  4> %base "15-64_DFT_AB"
|  5>
|  6> %scf
|  7> MaxIter 1000
|  8> end
|  9>
| 10> * xyz 0 1
| 11>   C                      0.395747             0.499302             3.166637
| 12>   O                      -0.741435            1.109411             2.820772
| 13>   H                      -1.443136            0.800324             3.428644
| 14>   H                      0.572906             0.753819             4.234277
| 15>   H                      0.320529             -0.597235            3.056164
| 16>   H                      1.203881             0.845296             2.442496
| 17>   C                      -2.661434            0.095099             -1.013179
| 18>   O                      -3.238537            1.069245             -1.880660
| 19>   H                      -2.525407            1.523243             -2.362530
| 20>   H                      -3.455402            -0.406456            -0.357671
| 21>   H                      -2.118193            -0.664322            -1.552945
| 22>   H                      -2.095586            0.597081             -0.237835
| 23> *
| 24>
| 25> #Run DFT-D3 single point of the molecule with dimer basis set
| 26> $new_job
| 27> %base "15-64_DFT_A"
| 28> ! wB97X-D3 def2-TZVP TIGHTSCF CHELPG PMODEL
| 29>
| 30> %scf
| 31> MaxIter 1000
| 32> end
| 33>
| 34> * xyz 0 1
| 35>   C                      0.395747             0.499302             3.166637
| 36>   O                      -0.741435            1.109411             2.820772
| 37>   H                      -1.443136            0.800324             3.428644
| 38>   H                      0.572906             0.753819             4.234277
| 39>   H                      0.320529             -0.597235            3.056164
| 40>   H                      1.203881             0.845296             2.442496
| 41>   C                    : -2.661434            0.095099             -1.013179
| 42>   O                    : -3.238537            1.069245             -1.880660
| 43>   H                    : -2.525407            1.523243             -2.362530
| 44>   H                    : -3.455402            -0.406456            -0.357671
| 45>   H                    : -2.118193            -0.664322            -1.552945
| 46>   H                    : -2.095586            0.597081             -0.237835
| 47> *
| 48>
| 49> #Run DFT-D3 single point of the particle with dimer basis set
| 50> $new_job
| 51> %base "15-64_DFT_B"
| 52> ! wB97X-D3 def2-TZVP TIGHTSCF CHELPG PMODEL
| 53>
| 54> %scf
| 55> MaxIter 1000
| 56> end
| 57>
| 58> * xyz 0 1
| 59>   C                    : 0.395747             0.499302             3.166637
| 60>   O                    : -0.741435            1.109411             2.820772
| 61>   H                    : -1.443136            0.800324             3.428644
| 62>   H                    : 0.572906             0.753819             4.234277
| 63>   H                    : 0.320529             -0.597235            3.056164
| 64>   H                    : 1.203881             0.845296             2.442496
| 65>   C                      -2.661434            0.095099             -1.013179
| 66>   O                      -3.238537            1.069245             -1.880660
| 67>   H                      -2.525407            1.523243             -2.362530
| 68>   H                      -3.455402            -0.406456            -0.357671
| 69>   H                      -2.118193            -0.664322            -1.552945
| 70>   H                      -2.095586            0.597081             -0.237835
| 71> *
| 72>
| 73>                          ****END OF INPUT****
 Total Charge           Charge          ....    0
 Multiplicity           Mult            ....    1
 Number of Electrons    NEL             ....   36
Dispersion correction           -0.000865735
FINAL SINGLE POINT ENERGY      -231.461455152081
Dispersion correction           -0.000199292
FINAL SINGLE POINT ENERGY      -115.728361723235

CARTESIAN COORDINATES (ANGSTROEM)
---------------------------------
  C      0.395747    0.499302    3.166637
  O     -0.741435    1.109411    2.820772
  H     -1.443136    0.800324    3.428644
  H      0.572906    0.753819    4.234277
  H      0.320529   -0.597235    3.056164
  H      1.203881    0.845296    2.442496
  C     -2.661434    0.095099   -1.013179
  O     -3.238537    1.069245   -1.880660
  H     -2.525407    1.523243   -2.362530
  H     -3.455402   -0.406456   -0.357671
  H     -2.118193   -0.664322   -1.552945
  H     -2.095586    0.597081   -0.237835

 Multiplicity           Mult            ....    1
 Number of Electrons    NEL             ....   18
 Basis Dimension        Dim             ....  172

ORBITAL ENERGIES
----------------

  NO   OCC          E(Eh)            E(eV)
   0   2.0000     -19.230049      -523.2762
   1   2.0000     -10.316477      -280.7256
   2   2.0000      -1.128729       -30.7143
   3   2.0000      -0.793524       -21.5929
   4   2.0000      -0.603407       -16.4195
   5   2.0000      -0.552461       -15.0332
   6   2.0000      -0.518403       -14.1065
   7   2.0000      -0.424011       -11.5379
   8   2.0000      -0.375610       -10.2209
   9   0.0000       0.081005         2.2043
  10   0.0000       0.116927         3.1818
  11   0.0000       0.145412         3.9568
  12   0.0000       0.170032         4.6268
  13   0.0000       0.179898         4.8953

MULLIKEN ATOMIC CHARGES
-----------------------
   0 C :   -0.000264
   1 O :    0.000029
   2 H :   -0.000052
   3 H :   -0.000006
   4 H :    0.000011
   5 H :    0.000006
   6 C :   -0.163856
   7 O :   -0.482382
   8 H :    0.316386
   9 H :    0.112518
  10 H :    0.109881
  11 H :    0.107729
Sum of atomic charges:    0.0000000

LOEWDIN ATOMIC CHARGES
----------------------
   0 C :   -0.000275
   1 O :   -0.000470
   2 H :   -0.000111
   3 H :   -0.000008
   4 H :   -0.000016
   5 H :   -0.000020
   6 C :   -0.383417
   7 O :   -0.095431
   8 H :    0.174975
   9 H :    0.119211
  10 H :    0.091834
  11 H :    0.093727

  Mayer bond orders larger than 0.1
B(  6-C ,  7-O ) :   0.9937 B(  6-C ,  9-H ) :   0.9707 B(  6-C , 10-H ) :   0.9738
B(  6-C , 11-H ) :   0.9799 B(  7-O ,  8-H ) :   0.8956

Dispersion correction           -0.000250741
FINAL SINGLE POINT ENERGY      -115.732136120162

DIPOLE MOMENT
-------------
                                X             Y             Z
Electronic contribution:     -0.76315       1.16446      -1.17857
Nuclear contribution   :      1.44687      -1.26965       1.24342
                        -----------------------------------------
Total Dipole Moment    :      0.68373      -0.10519       0.06485
                        -----------------------------------------
Magnitude (a.u.)       :      0.69480
Magnitude (Debye)      :      1.76605

Rotational constants in cm-1:     4.264927     0.811877     0.787371
Rotational constants in MHz : 127859.288064 24339.471033 23604.777384

                             ****ORCA TERMINATED NORMALLY****
TOTAL RUN TIME: 0 days 0 hours 0 minutes 59 seconds 917 msec
