                         Program Version 4.1.2  - RELEASE  -
|  1> #Run DFT-D3 single point of the dimer
|  2> ! wB97X-D3 def2-TZVP TIGHTSCF CHELPG PMODEL PAL8
|  3>
|  4> %base "1-78_DFT_AB"
|  5>
|  6> %scf
|  7> MaxIter 1000
|  8> end
|  9>
| 10> * xyz 0 1
| 11>   C                      -2.564663            -10.829491           0.819036
| 12>   O                      -1.332082            -11.025152           1.444712
| 13>   H                      -1.579110            -11.609815           2.161669
| 14>   H                      -2.334350            -10.176657           -0.055430
| 15>   H                      -2.996839            -11.752730           0.453297
| 16>   H                      -3.253794            -10.236978           1.399588
| 17>   C                      -2.822106            -6.085736            -1.176755
| 18>   O                      -3.789893            -5.113760            -1.527374
| 19>   H                      -3.604599            -4.836163            -2.428664
| 20>   H                      -2.878107            -6.458377            -0.129660
| 21>   H                      -3.004079            -7.001722            -1.785518
| 22>   H                      -1.772032            -5.826970            -1.226930
| 23> *
| 24>
| 25> #Run DFT-D3 single point of the molecule with dimer basis set
| 26> $new_job
| 27> %base "1-78_DFT_A"
| 28> ! wB97X-D3 def2-TZVP TIGHTSCF CHELPG PMODEL
| 29>
| 30> %scf
| 31> MaxIter 1000
| 32> end
| 33>
| 34> * xyz 0 1
| 35>   C                      -2.564663            -10.829491           0.819036
| 36>   O                      -1.332082            -11.025152           1.444712
| 37>   H                      -1.579110            -11.609815           2.161669
| 38>   H                      -2.334350            -10.176657           -0.055430
| 39>   H                      -2.996839            -11.752730           0.453297
| 40>   H                      -3.253794            -10.236978           1.399588
| 41>   C                    : -2.822106            -6.085736            -1.176755
| 42>   O                    : -3.789893            -5.113760            -1.527374
| 43>   H                    : -3.604599            -4.836163            -2.428664
| 44>   H                    : -2.878107            -6.458377            -0.129660
| 45>   H                    : -3.004079            -7.001722            -1.785518
| 46>   H                    : -1.772032            -5.826970            -1.226930
| 47> *
| 48>
| 49> #Run DFT-D3 single point of the particle with dimer basis set
| 50> $new_job
| 51> %base "1-78_DFT_B"
| 52> ! wB97X-D3 def2-TZVP TIGHTSCF CHELPG PMODEL
| 53>
| 54> %scf
| 55> MaxIter 1000
| 56> end
| 57>
| 58> * xyz 0 1
| 59>   C                    : -2.564663            -10.829491           0.819036
| 60>   O                    : -1.332082            -11.025152           1.444712
| 61>   H                    : -1.579110            -11.609815           2.161669
| 62>   H                    : -2.334350            -10.176657           -0.055430
| 63>   H                    : -2.996839            -11.752730           0.453297
| 64>   H                    : -3.253794            -10.236978           1.399588
| 65>   C                      -2.822106            -6.085736            -1.176755
| 66>   O                      -3.789893            -5.113760            -1.527374
| 67>   H                      -3.604599            -4.836163            -2.428664
| 68>   H                      -2.878107            -6.458377            -0.129660
| 69>   H                      -3.004079            -7.001722            -1.785518
| 70>   H                      -1.772032            -5.826970            -1.226930
| 71> *
| 72>
| 73>                          ****END OF INPUT****
 Total Charge           Charge          ....    0
 Multiplicity           Mult            ....    1
 Number of Electrons    NEL             ....   36
Dispersion correction           -0.000767771
FINAL SINGLE POINT ENERGY      -231.465932175881
Dispersion correction           -0.000214971
FINAL SINGLE POINT ENERGY      -115.733711007633

CARTESIAN COORDINATES (ANGSTROEM)
---------------------------------
  C     -2.564663  -10.829491    0.819036
  O     -1.332082  -11.025152    1.444712
  H     -1.579110  -11.609815    2.161669
  H     -2.334350  -10.176657   -0.055430
  H     -2.996839  -11.752730    0.453297
  H     -3.253794  -10.236978    1.399588
  C     -2.822106   -6.085736   -1.176755
  O     -3.789893   -5.113760   -1.527374
  H     -3.604599   -4.836163   -2.428664
  H     -2.878107   -6.458377   -0.129660
  H     -3.004079   -7.001722   -1.785518
  H     -1.772032   -5.826970   -1.226930

 Multiplicity           Mult            ....    1
 Number of Electrons    NEL             ....   18
 Basis Dimension        Dim             ....  172

ORBITAL ENERGIES
----------------

  NO   OCC          E(Eh)            E(eV)
   0   2.0000     -19.234732      -523.4037
   1   2.0000     -10.316163      -280.7171
   2   2.0000      -1.137673       -30.9577
   3   2.0000      -0.796077       -21.6624
   4   2.0000      -0.611864       -16.6497
   5   2.0000      -0.542425       -14.7601
   6   2.0000      -0.525161       -14.2904
   7   2.0000      -0.429031       -11.6745
   8   2.0000      -0.376291       -10.2394
   9   0.0000       0.083936         2.2840
  10   0.0000       0.116975         3.1830
  11   0.0000       0.137237         3.7344
  12   0.0000       0.175405         4.7730
  13   0.0000       0.186684         5.0799

MULLIKEN ATOMIC CHARGES
-----------------------
   0 C :    0.000152
   1 O :   -0.000004
   2 H :   -0.000001
   3 H :   -0.000331
   4 H :   -0.000013
   5 H :   -0.000072
   6 C :   -0.180547
   7 O :   -0.468530
   8 H :    0.318732
   9 H :    0.119009
  10 H :    0.103741
  11 H :    0.107864
Sum of atomic charges:   -0.0000000

LOEWDIN ATOMIC CHARGES
----------------------
   0 C :   -0.000106
   1 O :   -0.000003
   2 H :   -0.000000
   3 H :   -0.000247
   4 H :   -0.000001
   5 H :   -0.000035
   6 C :   -0.399569
   7 O :   -0.075564
   8 H :    0.172172
   9 H :    0.112638
  10 H :    0.099177
  11 H :    0.091538

  Mayer bond orders larger than 0.1
B(  6-C ,  7-O ) :   1.0018 B(  6-C ,  9-H ) :   0.9717 B(  6-C , 10-H ) :   0.9839
B(  6-C , 11-H ) :   0.9665 B(  7-O ,  8-H ) :   0.8964

Dispersion correction           -0.000261936
FINAL SINGLE POINT ENERGY      -115.731740374327

DIPOLE MOMENT
-------------
                                X             Y             Z
Electronic contribution:     -1.32685       1.43125      -0.36169
Nuclear contribution   :      1.83052      -1.63398      -0.05359
                        -----------------------------------------
Total Dipole Moment    :      0.50367      -0.20273      -0.41529
                        -----------------------------------------
Magnitude (a.u.)       :      0.68355
Magnitude (Debye)      :      1.73745

Rotational constants in cm-1:     4.428413     0.810493     0.788511
Rotational constants in MHz : 132760.494651 24297.962080 23638.973236

                             ****ORCA TERMINATED NORMALLY****
TOTAL RUN TIME: 0 days 0 hours 5 minutes 43 seconds 333 msec
