                         Program Version 4.1.2  - RELEASE  -
|  1> #Run DFT-D3 single point of the dimer
|  2> ! wB97X-D3 def2-TZVP TIGHTSCF CHELPG PMODEL PAL8
|  3>
|  4> %base "15-147_DFT_AB"
|  5>
|  6> %scf
|  7> MaxIter 1000
|  8> end
|  9>
| 10> * xyz 0 1
| 11>   C                      7.303674             0.687426             6.517185
| 12>   O                      7.707774             1.463133             5.439199
| 13>   H                      7.376451             2.362845             5.531690
| 14>   H                      7.904835             -0.202361            6.651812
| 15>   H                      7.412063             1.245180             7.486515
| 16>   H                      6.233770             0.467527             6.340801
| 17>   C                      5.256442             3.173701             4.330914
| 18>   O                      5.647779             3.333847             5.672779
| 19>   H                      4.899699             3.045901             6.165063
| 20>   H                      5.243303             4.136426             3.826357
| 21>   H                      5.965825             2.565790             3.787552
| 22>   H                      4.380051             2.629932             4.138270
| 23> *
| 24>
| 25> #Run DFT-D3 single point of the molecule with dimer basis set
| 26> $new_job
| 27> %base "15-147_DFT_A"
| 28> ! wB97X-D3 def2-TZVP TIGHTSCF CHELPG PMODEL
| 29>
| 30> %scf
| 31> MaxIter 1000
| 32> end
| 33>
| 34> * xyz 0 1
| 35>   C                      7.303674             0.687426             6.517185
| 36>   O                      7.707774             1.463133             5.439199
| 37>   H                      7.376451             2.362845             5.531690
| 38>   H                      7.904835             -0.202361            6.651812
| 39>   H                      7.412063             1.245180             7.486515
| 40>   H                      6.233770             0.467527             6.340801
| 41>   C                    : 5.256442             3.173701             4.330914
| 42>   O                    : 5.647779             3.333847             5.672779
| 43>   H                    : 4.899699             3.045901             6.165063
| 44>   H                    : 5.243303             4.136426             3.826357
| 45>   H                    : 5.965825             2.565790             3.787552
| 46>   H                    : 4.380051             2.629932             4.138270
| 47> *
| 48>
| 49> #Run DFT-D3 single point of the particle with dimer basis set
| 50> $new_job
| 51> %base "15-147_DFT_B"
| 52> ! wB97X-D3 def2-TZVP TIGHTSCF CHELPG PMODEL
| 53>
| 54> %scf
| 55> MaxIter 1000
| 56> end
| 57>
| 58> * xyz 0 1
| 59>   C                    : 7.303674             0.687426             6.517185
| 60>   O                    : 7.707774             1.463133             5.439199
| 61>   H                    : 7.376451             2.362845             5.531690
| 62>   H                    : 7.904835             -0.202361            6.651812
| 63>   H                    : 7.412063             1.245180             7.486515
| 64>   H                    : 6.233770             0.467527             6.340801
| 65>   C                      5.256442             3.173701             4.330914
| 66>   O                      5.647779             3.333847             5.672779
| 67>   H                      4.899699             3.045901             6.165063
| 68>   H                      5.243303             4.136426             3.826357
| 69>   H                      5.965825             2.565790             3.787552
| 70>   H                      4.380051             2.629932             4.138270
| 71> *
| 72>
| 73>                          ****END OF INPUT****
 Total Charge           Charge          ....    0
 Multiplicity           Mult            ....    1
 Number of Electrons    NEL             ....   36
Dispersion correction           -0.002263272
FINAL SINGLE POINT ENERGY      -231.471626501489
Dispersion correction           -0.000226494
FINAL SINGLE POINT ENERGY      -115.734081255185

CARTESIAN COORDINATES (ANGSTROEM)
---------------------------------
  C      7.303674    0.687426    6.517185
  O      7.707774    1.463133    5.439199
  H      7.376451    2.362845    5.531690
  H      7.904835   -0.202361    6.651812
  H      7.412063    1.245180    7.486515
  H      6.233770    0.467527    6.340801
  C      5.256442    3.173701    4.330914
  O      5.647779    3.333847    5.672779
  H      4.899699    3.045901    6.165063
  H      5.243303    4.136426    3.826357
  H      5.965825    2.565790    3.787552
  H      4.380051    2.629932    4.138270

 Multiplicity           Mult            ....    1
 Number of Electrons    NEL             ....   18
 Basis Dimension        Dim             ....  172

ORBITAL ENERGIES
----------------

  NO   OCC          E(Eh)            E(eV)
   0   2.0000     -19.232373      -523.3395
   1   2.0000     -10.304787      -280.4075
   2   2.0000      -1.146220       -31.1902
   3   2.0000      -0.803094       -21.8533
   4   2.0000      -0.622027       -16.9262
   5   2.0000      -0.542480       -14.7616
   6   2.0000      -0.526548       -14.3281
   7   2.0000      -0.443562       -12.0699
   8   2.0000      -0.374807       -10.1990
   9   0.0000       0.093029         2.5315
  10   0.0000       0.133972         3.6456
  11   0.0000       0.151382         4.1193
  12   0.0000       0.180818         4.9203
  13   0.0000       0.203396         5.5347

MULLIKEN ATOMIC CHARGES
-----------------------
   0 C :   -0.002915
   1 O :    0.002246
   2 H :    0.000374
   3 H :   -0.000816
   4 H :   -0.001472
   5 H :   -0.005316
   6 C :   -0.180639
   7 O :   -0.456280
   8 H :    0.313054
   9 H :    0.111822
  10 H :    0.105581
  11 H :    0.114360
Sum of atomic charges:    0.0000000

LOEWDIN ATOMIC CHARGES
----------------------
   0 C :   -0.011196
   1 O :   -0.008218
   2 H :   -0.031458
   3 H :   -0.000194
   4 H :   -0.001064
   5 H :   -0.003068
   6 C :   -0.382413
   7 O :   -0.017655
   8 H :    0.161183
   9 H :    0.101384
  10 H :    0.102602
  11 H :    0.090096

  Mayer bond orders larger than 0.1
B(  6-C ,  7-O ) :   1.0009 B(  6-C ,  9-H ) :   0.9804 B(  6-C , 10-H ) :   0.9818
B(  6-C , 11-H ) :   0.9778 B(  7-O ,  8-H ) :   0.9049

Dispersion correction           -0.000239453
FINAL SINGLE POINT ENERGY      -115.731228164608

DIPOLE MOMENT
-------------
                                X             Y             Z
Electronic contribution:      0.52111       0.29118       1.80363
Nuclear contribution   :     -1.17045      -0.55852      -2.01788
                        -----------------------------------------
Total Dipole Moment    :     -0.64933      -0.26734      -0.21425
                        -----------------------------------------
Magnitude (a.u.)       :      0.73417
Magnitude (Debye)      :      1.86611

Rotational constants in cm-1:     4.544483     0.838167     0.810774
Rotational constants in MHz : 136240.182552 25127.614164 24306.390096

                             ****ORCA TERMINATED NORMALLY****
TOTAL RUN TIME: 0 days 0 hours 1 minutes 7 seconds 580 msec
