                         Program Version 4.1.2  - RELEASE  -
|  1> #Run DFT-D3 single point of the dimer
|  2> ! wB97X-D3 def2-TZVP TIGHTSCF CHELPG PMODEL PAL8
|  3>
|  4> %base "11-159_DFT_AB"
|  5>
|  6> %scf
|  7> MaxIter 1000
|  8> end
|  9>
| 10> * xyz 0 1
| 11>   C                      6.543165             8.326145             -10.416435
| 12>   O                      6.659908             7.253888             -9.509501
| 13>   H                      5.909592             7.446161             -8.983774
| 14>   H                      6.614220             9.393741             -10.016194
| 15>   H                      7.383919             8.321079             -11.080022
| 16>   H                      5.626030             8.221112             -11.046252
| 17>   C                      10.128805            5.956775             -9.767449
| 18>   O                      9.371061             7.123447             -9.449911
| 19>   H                      8.536866             7.023984             -9.955294
| 20>   H                      9.497726             5.098683             -9.608329
| 21>   H                      10.500042            6.009298             -10.804009
| 22>   H                      10.994305            5.757026             -9.130638
| 23> *
| 24>
| 25> #Run DFT-D3 single point of the molecule with dimer basis set
| 26> $new_job
| 27> %base "11-159_DFT_A"
| 28> ! wB97X-D3 def2-TZVP TIGHTSCF CHELPG PMODEL
| 29>
| 30> %scf
| 31> MaxIter 1000
| 32> end
| 33>
| 34> * xyz 0 1
| 35>   C                      6.543165             8.326145             -10.416435
| 36>   O                      6.659908             7.253888             -9.509501
| 37>   H                      5.909592             7.446161             -8.983774
| 38>   H                      6.614220             9.393741             -10.016194
| 39>   H                      7.383919             8.321079             -11.080022
| 40>   H                      5.626030             8.221112             -11.046252
| 41>   C                    : 10.128805            5.956775             -9.767449
| 42>   O                    : 9.371061             7.123447             -9.449911
| 43>   H                    : 8.536866             7.023984             -9.955294
| 44>   H                    : 9.497726             5.098683             -9.608329
| 45>   H                    : 10.500042            6.009298             -10.804009
| 46>   H                    : 10.994305            5.757026             -9.130638
| 47> *
| 48>
| 49> #Run DFT-D3 single point of the particle with dimer basis set
| 50> $new_job
| 51> %base "11-159_DFT_B"
| 52> ! wB97X-D3 def2-TZVP TIGHTSCF CHELPG PMODEL
| 53>
| 54> %scf
| 55> MaxIter 1000
| 56> end
| 57>
| 58> * xyz 0 1
| 59>   C                    : 6.543165             8.326145             -10.416435
| 60>   O                    : 6.659908             7.253888             -9.509501
| 61>   H                    : 5.909592             7.446161             -8.983774
| 62>   H                    : 6.614220             9.393741             -10.016194
| 63>   H                    : 7.383919             8.321079             -11.080022
| 64>   H                    : 5.626030             8.221112             -11.046252
| 65>   C                      10.128805            5.956775             -9.767449
| 66>   O                      9.371061             7.123447             -9.449911
| 67>   H                      8.536866             7.023984             -9.955294
| 68>   H                      9.497726             5.098683             -9.608329
| 69>   H                      10.500042            6.009298             -10.804009
| 70>   H                      10.994305            5.757026             -9.130638
| 71> *
| 72>
| 73>                          ****END OF INPUT****
 Total Charge           Charge          ....    0
 Multiplicity           Mult            ....    1
 Number of Electrons    NEL             ....   36
Dispersion correction           -0.001714396
FINAL SINGLE POINT ENERGY      -231.463404600202
Dispersion correction           -0.000238481
FINAL SINGLE POINT ENERGY      -115.729686881585

CARTESIAN COORDINATES (ANGSTROEM)
---------------------------------
  C      6.543165    8.326145  -10.416435
  O      6.659908    7.253888   -9.509501
  H      5.909592    7.446161   -8.983774
  H      6.614220    9.393741  -10.016194
  H      7.383919    8.321079  -11.080022
  H      5.626030    8.221112  -11.046252
  C     10.128805    5.956775   -9.767449
  O      9.371061    7.123447   -9.449911
  H      8.536866    7.023984   -9.955294
  H      9.497726    5.098683   -9.608329
  H     10.500042    6.009298  -10.804009
  H     10.994305    5.757026   -9.130638

 Multiplicity           Mult            ....    1
 Number of Electrons    NEL             ....   18
 Basis Dimension        Dim             ....  172

ORBITAL ENERGIES
----------------

  NO   OCC          E(Eh)            E(eV)
   0   2.0000     -19.233357      -523.3663
   1   2.0000     -10.313472      -280.6438
   2   2.0000      -1.131009       -30.7763
   3   2.0000      -0.794402       -21.6168
   4   2.0000      -0.602728       -16.4011
   5   2.0000      -0.546929       -14.8827
   6   2.0000      -0.529838       -14.4176
   7   2.0000      -0.431161       -11.7325
   8   2.0000      -0.375135       -10.2079
   9   0.0000       0.075649         2.0585
  10   0.0000       0.131559         3.5799
  11   0.0000       0.157718         4.2917
  12   0.0000       0.162631         4.4254
  13   0.0000       0.196511         5.3473

MULLIKEN ATOMIC CHARGES
-----------------------
   0 C :    0.002831
   1 O :   -0.004674
   2 H :   -0.000786
   3 H :   -0.000202
   4 H :   -0.006205
   5 H :    0.000169
   6 C :   -0.179886
   7 O :   -0.466437
   8 H :    0.319547
   9 H :    0.108033
  10 H :    0.106239
  11 H :    0.121373
Sum of atomic charges:    0.0000000

LOEWDIN ATOMIC CHARGES
----------------------
   0 C :   -0.013023
   1 O :   -0.022121
   2 H :   -0.001069
   3 H :   -0.000230
   4 H :   -0.005588
   5 H :   -0.000100
   6 C :   -0.378981
   7 O :   -0.076191
   8 H :    0.198132
   9 H :    0.093640
  10 H :    0.097694
  11 H :    0.107837

  Mayer bond orders larger than 0.1
B(  6-C ,  7-O ) :   0.9985 B(  6-C ,  9-H ) :   0.9849 B(  6-C , 10-H ) :   0.9784
B(  6-C , 11-H ) :   0.9701 B(  7-O ,  8-H ) :   0.8942

Dispersion correction           -0.000233763
FINAL SINGLE POINT ENERGY      -115.733554443669

DIPOLE MOMENT
-------------
                                X             Y             Z
Electronic contribution:     -0.79641       1.57631       0.53144
Nuclear contribution   :      0.60582      -2.12671      -0.94385
                        -----------------------------------------
Total Dipole Moment    :     -0.19059      -0.55041      -0.41240
                        -----------------------------------------
Magnitude (a.u.)       :      0.71369
Magnitude (Debye)      :      1.81404

Rotational constants in cm-1:     4.300942     0.815834     0.792895
Rotational constants in MHz : 128938.983195 24458.081779 23770.396208

                             ****ORCA TERMINATED NORMALLY****
TOTAL RUN TIME: 0 days 0 hours 1 minutes 13 seconds 384 msec
