                         Program Version 4.1.2  - RELEASE  -
|  1> #Run DFT-D3 single point of the dimer
|  2> ! wB97X-D3 def2-TZVP TIGHTSCF CHELPG PMODEL PAL8
|  3>
|  4> %base "21-93_DFT_AB"
|  5>
|  6> %scf
|  7> MaxIter 1000
|  8> end
|  9>
| 10> * xyz 0 1
| 11>   C                      -0.279772            8.880130             -5.984317
| 12>   O                      0.783245             8.630714             -6.886738
| 13>   H                      0.274807             8.473379             -7.649880
| 14>   H                      -0.903684            9.718744             -6.263217
| 15>   H                      -0.970593            8.024726             -5.917269
| 16>   H                      0.085905             9.093486             -4.943612
| 17>   C                      -1.804028            9.062981             -1.684498
| 18>   O                      -1.185827            8.137430             -0.790392
| 19>   H                      -0.857489            8.554327             0.021385
| 20>   H                      -1.514621            8.858486             -2.740619
| 21>   H                      -2.837264            8.982155             -1.610011
| 22>   H                      -1.602605            10.074410            -1.308795
| 23> *
| 24>
| 25> #Run DFT-D3 single point of the molecule with dimer basis set
| 26> $new_job
| 27> %base "21-93_DFT_A"
| 28> ! wB97X-D3 def2-TZVP TIGHTSCF CHELPG PMODEL
| 29>
| 30> %scf
| 31> MaxIter 1000
| 32> end
| 33>
| 34> * xyz 0 1
| 35>   C                      -0.279772            8.880130             -5.984317
| 36>   O                      0.783245             8.630714             -6.886738
| 37>   H                      0.274807             8.473379             -7.649880
| 38>   H                      -0.903684            9.718744             -6.263217
| 39>   H                      -0.970593            8.024726             -5.917269
| 40>   H                      0.085905             9.093486             -4.943612
| 41>   C                    : -1.804028            9.062981             -1.684498
| 42>   O                    : -1.185827            8.137430             -0.790392
| 43>   H                    : -0.857489            8.554327             0.021385
| 44>   H                    : -1.514621            8.858486             -2.740619
| 45>   H                    : -2.837264            8.982155             -1.610011
| 46>   H                    : -1.602605            10.074410            -1.308795
| 47> *
| 48>
| 49> #Run DFT-D3 single point of the particle with dimer basis set
| 50> $new_job
| 51> %base "21-93_DFT_B"
| 52> ! wB97X-D3 def2-TZVP TIGHTSCF CHELPG PMODEL
| 53>
| 54> %scf
| 55> MaxIter 1000
| 56> end
| 57>
| 58> * xyz 0 1
| 59>   C                    : -0.279772            8.880130             -5.984317
| 60>   O                    : 0.783245             8.630714             -6.886738
| 61>   H                    : 0.274807             8.473379             -7.649880
| 62>   H                    : -0.903684            9.718744             -6.263217
| 63>   H                    : -0.970593            8.024726             -5.917269
| 64>   H                    : 0.085905             9.093486             -4.943612
| 65>   C                      -1.804028            9.062981             -1.684498
| 66>   O                      -1.185827            8.137430             -0.790392
| 67>   H                      -0.857489            8.554327             0.021385
| 68>   H                      -1.514621            8.858486             -2.740619
| 69>   H                      -2.837264            8.982155             -1.610011
| 70>   H                      -1.602605            10.074410            -1.308795
| 71> *
| 72>
| 73>                          ****END OF INPUT****
 Total Charge           Charge          ....    0
 Multiplicity           Mult            ....    1
 Number of Electrons    NEL             ....   36
Dispersion correction           -0.001006173
FINAL SINGLE POINT ENERGY      -231.462093811775
Dispersion correction           -0.000223180
FINAL SINGLE POINT ENERGY      -115.731856527301

CARTESIAN COORDINATES (ANGSTROEM)
---------------------------------
  C     -0.279772    8.880130   -5.984317
  O      0.783245    8.630714   -6.886738
  H      0.274807    8.473379   -7.649880
  H     -0.903684    9.718744   -6.263217
  H     -0.970593    8.024726   -5.917269
  H      0.085905    9.093486   -4.943612
  C     -1.804028    9.062981   -1.684498
  O     -1.185827    8.137430   -0.790392
  H     -0.857489    8.554327    0.021385
  H     -1.514621    8.858486   -2.740619
  H     -2.837264    8.982155   -1.610011
  H     -1.602605   10.074410   -1.308795

 Multiplicity           Mult            ....    1
 Number of Electrons    NEL             ....   18
 Basis Dimension        Dim             ....  172

ORBITAL ENERGIES
----------------

  NO   OCC          E(Eh)            E(eV)
   0   2.0000     -19.224969      -523.1380
   1   2.0000     -10.311415      -280.5879
   2   2.0000      -1.125060       -30.6144
   3   2.0000      -0.799241       -21.7485
   4   2.0000      -0.608182       -16.5495
   5   2.0000      -0.537264       -14.6197
   6   2.0000      -0.533613       -14.5204
   7   2.0000      -0.426294       -11.6000
   8   2.0000      -0.370146       -10.0722
   9   0.0000       0.085161         2.3173
  10   0.0000       0.112284         3.0554
  11   0.0000       0.148055         4.0288
  12   0.0000       0.177142         4.8203
  13   0.0000       0.192571         5.2401

MULLIKEN ATOMIC CHARGES
-----------------------
   0 C :   -0.000399
   1 O :    0.000012
   2 H :    0.000001
   3 H :   -0.000014
   4 H :   -0.000158
   5 H :    0.000533
   6 C :   -0.158769
   7 O :   -0.494736
   8 H :    0.319525
   9 H :    0.118567
  10 H :    0.114982
  11 H :    0.100456
Sum of atomic charges:   -0.0000000

LOEWDIN ATOMIC CHARGES
----------------------
   0 C :   -0.001665
   1 O :   -0.000007
   2 H :   -0.000004
   3 H :   -0.000052
   4 H :   -0.000206
   5 H :   -0.001472
   6 C :   -0.364928
   7 O :   -0.098897
   8 H :    0.171507
   9 H :    0.110939
  10 H :    0.085314
  11 H :    0.099471

  Mayer bond orders larger than 0.1
B(  6-C ,  7-O ) :   1.0004 B(  6-C ,  9-H ) :   0.9716 B(  6-C , 10-H ) :   0.9744
B(  6-C , 11-H ) :   0.9914 B(  7-O ,  8-H ) :   0.8946

Dispersion correction           -0.000245119
FINAL SINGLE POINT ENERGY      -115.729909892393

DIPOLE MOMENT
-------------
                                X             Y             Z
Electronic contribution:      0.75383      -1.23785       0.93967
Nuclear contribution   :     -0.82254       1.90566      -0.76715
                        -----------------------------------------
Total Dipole Moment    :     -0.06871       0.66781       0.17252
                        -----------------------------------------
Magnitude (a.u.)       :      0.69315
Magnitude (Debye)      :      1.76184

Rotational constants in cm-1:     4.353536     0.825151     0.784574
Rotational constants in MHz : 130515.719426 24737.410517 23520.933872

                             ****ORCA TERMINATED NORMALLY****
TOTAL RUN TIME: 0 days 0 hours 0 minutes 44 seconds 464 msec
