                         Program Version 4.1.2  - RELEASE  -
|  1> #Run DFT-D3 single point of the dimer
|  2> ! wB97X-D3 def2-TZVP TIGHTSCF CHELPG PMODEL PAL8
|  3>
|  4> %base "19-116_DFT_AB"
|  5>
|  6> %scf
|  7> MaxIter 1000
|  8> end
|  9>
| 10> * xyz 0 1
| 11>   C                      -0.942349            -0.312623            6.462802
| 12>   O                      -1.254387            -1.464392            7.229617
| 13>   H                      -0.880571            -2.244624            6.848968
| 14>   H                      -1.109190            -0.446360            5.396069
| 15>   H                      -1.477128            0.535260             6.817403
| 16>   H                      0.090158             -0.179774            6.506438
| 17>   C                      -2.826672            3.168697             7.311766
| 18>   O                      -2.985900            2.187477             8.339613
| 19>   H                      -2.080365            1.979500             8.637292
| 20>   H                      -2.631409            4.182728             7.755383
| 21>   H                      -1.965593            2.904438             6.677685
| 22>   H                      -3.653128            3.269334             6.564215
| 23> *
| 24>
| 25> #Run DFT-D3 single point of the molecule with dimer basis set
| 26> $new_job
| 27> %base "19-116_DFT_A"
| 28> ! wB97X-D3 def2-TZVP TIGHTSCF CHELPG PMODEL
| 29>
| 30> %scf
| 31> MaxIter 1000
| 32> end
| 33>
| 34> * xyz 0 1
| 35>   C                      -0.942349            -0.312623            6.462802
| 36>   O                      -1.254387            -1.464392            7.229617
| 37>   H                      -0.880571            -2.244624            6.848968
| 38>   H                      -1.109190            -0.446360            5.396069
| 39>   H                      -1.477128            0.535260             6.817403
| 40>   H                      0.090158             -0.179774            6.506438
| 41>   C                    : -2.826672            3.168697             7.311766
| 42>   O                    : -2.985900            2.187477             8.339613
| 43>   H                    : -2.080365            1.979500             8.637292
| 44>   H                    : -2.631409            4.182728             7.755383
| 45>   H                    : -1.965593            2.904438             6.677685
| 46>   H                    : -3.653128            3.269334             6.564215
| 47> *
| 48>
| 49> #Run DFT-D3 single point of the particle with dimer basis set
| 50> $new_job
| 51> %base "19-116_DFT_B"
| 52> ! wB97X-D3 def2-TZVP TIGHTSCF CHELPG PMODEL
| 53>
| 54> %scf
| 55> MaxIter 1000
| 56> end
| 57>
| 58> * xyz 0 1
| 59>   C                    : -0.942349            -0.312623            6.462802
| 60>   O                    : -1.254387            -1.464392            7.229617
| 61>   H                    : -0.880571            -2.244624            6.848968
| 62>   H                    : -1.109190            -0.446360            5.396069
| 63>   H                    : -1.477128            0.535260             6.817403
| 64>   H                    : 0.090158             -0.179774            6.506438
| 65>   C                      -2.826672            3.168697             7.311766
| 66>   O                      -2.985900            2.187477             8.339613
| 67>   H                      -2.080365            1.979500             8.637292
| 68>   H                      -2.631409            4.182728             7.755383
| 69>   H                      -1.965593            2.904438             6.677685
| 70>   H                      -3.653128            3.269334             6.564215
| 71> *
| 72>
| 73>                          ****END OF INPUT****
 Total Charge           Charge          ....    0
 Multiplicity           Mult            ....    1
 Number of Electrons    NEL             ....   36
Dispersion correction           -0.001607218
FINAL SINGLE POINT ENERGY      -231.464868153366
Dispersion correction           -0.000226066
FINAL SINGLE POINT ENERGY      -115.732045218381

CARTESIAN COORDINATES (ANGSTROEM)
---------------------------------
  C     -0.942349   -0.312623    6.462802
  O     -1.254387   -1.464392    7.229617
  H     -0.880571   -2.244624    6.848968
  H     -1.109190   -0.446360    5.396069
  H     -1.477128    0.535260    6.817403
  H      0.090158   -0.179774    6.506438
  C     -2.826672    3.168697    7.311766
  O     -2.985900    2.187477    8.339613
  H     -2.080365    1.979500    8.637292
  H     -2.631409    4.182728    7.755383
  H     -1.965593    2.904438    6.677685
  H     -3.653128    3.269334    6.564215

 Multiplicity           Mult            ....    1
 Number of Electrons    NEL             ....   18
 Basis Dimension        Dim             ....  172

ORBITAL ENERGIES
----------------

  NO   OCC          E(Eh)            E(eV)
   0   2.0000     -19.235917      -523.4359
   1   2.0000     -10.322007      -280.8761
   2   2.0000      -1.132307       -30.8116
   3   2.0000      -0.790308       -21.5054
   4   2.0000      -0.605573       -16.4785
   5   2.0000      -0.538906       -14.6644
   6   2.0000      -0.527102       -14.3432
   7   2.0000      -0.431694       -11.7470
   8   2.0000      -0.375605       -10.2207
   9   0.0000       0.079422         2.1612
  10   0.0000       0.123005         3.3471
  11   0.0000       0.144184         3.9234
  12   0.0000       0.171700         4.6722
  13   0.0000       0.193569         5.2673

MULLIKEN ATOMIC CHARGES
-----------------------
   0 C :    0.006879
   1 O :    0.000167
   2 H :    0.000036
   3 H :   -0.000451
   4 H :   -0.017328
   5 H :   -0.000032
   6 C :   -0.189114
   7 O :   -0.462380
   8 H :    0.321350
   9 H :    0.110478
  10 H :    0.107078
  11 H :    0.123317
Sum of atomic charges:   -0.0000000

LOEWDIN ATOMIC CHARGES
----------------------
   0 C :   -0.004183
   1 O :   -0.000065
   2 H :   -0.000003
   3 H :   -0.000044
   4 H :   -0.008588
   5 H :   -0.000037
   6 C :   -0.388219
   7 O :   -0.088662
   8 H :    0.180957
   9 H :    0.100247
  10 H :    0.096861
  11 H :    0.111735

  Mayer bond orders larger than 0.1
B(  6-C ,  7-O ) :   0.9906 B(  6-C ,  9-H ) :   0.9792 B(  6-C , 10-H ) :   0.9817
B(  6-C , 11-H ) :   0.9687 B(  7-O ,  8-H ) :   0.8945

Dispersion correction           -0.000254286
FINAL SINGLE POINT ENERGY      -115.732452352509

DIPOLE MOMENT
-------------
                                X             Y             Z
Electronic contribution:     -0.47052      -1.30286       1.36204
Nuclear contribution   :      1.09732       1.55363      -1.60072
                        -----------------------------------------
Total Dipole Moment    :      0.62680       0.25077      -0.23868
                        -----------------------------------------
Magnitude (a.u.)       :      0.71605
Magnitude (Debye)      :      1.82006

Rotational constants in cm-1:     4.214055     0.804433     0.780528
Rotational constants in MHz : 126334.205206 24116.302621 23399.642203

                             ****ORCA TERMINATED NORMALLY****
TOTAL RUN TIME: 0 days 0 hours 0 minutes 49 seconds 467 msec
