                         Program Version 4.1.2  - RELEASE  -
|  1> #Run DFT-D3 single point of the dimer
|  2> ! wB97X-D3 def2-TZVP TIGHTSCF CHELPG PMODEL PAL8
|  3>
|  4> %base "15-151_DFT_AB"
|  5>
|  6> %scf
|  7> MaxIter 1000
|  8> end
|  9>
| 10> * xyz 0 1
| 11>   C                      -10.695807           -6.649651            4.959832
| 12>   O                      -11.428309           -5.754532            5.794819
| 13>   H                      -12.313601           -5.589736            5.453743
| 14>   H                      -11.365032           -7.374430            4.521126
| 15>   H                      -10.312134           -6.161509            4.072612
| 16>   H                      -9.801205            -7.105240            5.391306
| 17>   C                      -10.115336           -9.962653            7.892501
| 18>   O                      -10.550402           -10.249533           6.554550
| 19>   H                      -11.498959           -10.343096           6.567028
| 20>   H                      -10.584167           -9.103896            8.312980
| 21>   H                      -10.367627           -10.756341           8.635410
| 22>   H                      -9.030777            -9.871222            7.854316
| 23> *
| 24>
| 25> #Run DFT-D3 single point of the molecule with dimer basis set
| 26> $new_job
| 27> %base "15-151_DFT_A"
| 28> ! wB97X-D3 def2-TZVP TIGHTSCF CHELPG PMODEL
| 29>
| 30> %scf
| 31> MaxIter 1000
| 32> end
| 33>
| 34> * xyz 0 1
| 35>   C                      -10.695807           -6.649651            4.959832
| 36>   O                      -11.428309           -5.754532            5.794819
| 37>   H                      -12.313601           -5.589736            5.453743
| 38>   H                      -11.365032           -7.374430            4.521126
| 39>   H                      -10.312134           -6.161509            4.072612
| 40>   H                      -9.801205            -7.105240            5.391306
| 41>   C                    : -10.115336           -9.962653            7.892501
| 42>   O                    : -10.550402           -10.249533           6.554550
| 43>   H                    : -11.498959           -10.343096           6.567028
| 44>   H                    : -10.584167           -9.103896            8.312980
| 45>   H                    : -10.367627           -10.756341           8.635410
| 46>   H                    : -9.030777            -9.871222            7.854316
| 47> *
| 48>
| 49> #Run DFT-D3 single point of the particle with dimer basis set
| 50> $new_job
| 51> %base "15-151_DFT_B"
| 52> ! wB97X-D3 def2-TZVP TIGHTSCF CHELPG PMODEL
| 53>
| 54> %scf
| 55> MaxIter 1000
| 56> end
| 57>
| 58> * xyz 0 1
| 59>   C                    : -10.695807           -6.649651            4.959832
| 60>   O                    : -11.428309           -5.754532            5.794819
| 61>   H                    : -12.313601           -5.589736            5.453743
| 62>   H                    : -11.365032           -7.374430            4.521126
| 63>   H                    : -10.312134           -6.161509            4.072612
| 64>   H                    : -9.801205            -7.105240            5.391306
| 65>   C                      -10.115336           -9.962653            7.892501
| 66>   O                      -10.550402           -10.249533           6.554550
| 67>   H                      -11.498959           -10.343096           6.567028
| 68>   H                      -10.584167           -9.103896            8.312980
| 69>   H                      -10.367627           -10.756341           8.635410
| 70>   H                      -9.030777            -9.871222            7.854316
| 71> *
| 72>
| 73>                          ****END OF INPUT****
 Total Charge           Charge          ....    0
 Multiplicity           Mult            ....    1
 Number of Electrons    NEL             ....   36
Dispersion correction           -0.001295944
FINAL SINGLE POINT ENERGY      -231.467430761839
Dispersion correction           -0.000253515
FINAL SINGLE POINT ENERGY      -115.730792829036

CARTESIAN COORDINATES (ANGSTROEM)
---------------------------------
  C    -10.695807   -6.649651    4.959832
  O    -11.428309   -5.754532    5.794819
  H    -12.313601   -5.589736    5.453743
  H    -11.365032   -7.374430    4.521126
  H    -10.312134   -6.161509    4.072612
  H     -9.801205   -7.105240    5.391306
  C    -10.115336   -9.962653    7.892501
  O    -10.550402  -10.249533    6.554550
  H    -11.498959  -10.343096    6.567028
  H    -10.584167   -9.103896    8.312980
  H    -10.367627  -10.756341    8.635410
  H     -9.030777   -9.871222    7.854316

 Multiplicity           Mult            ....    1
 Number of Electrons    NEL             ....   18
 Basis Dimension        Dim             ....  172

ORBITAL ENERGIES
----------------

  NO   OCC          E(Eh)            E(eV)
   0   2.0000     -19.231357      -523.3118
   1   2.0000     -10.313773      -280.6520
   2   2.0000      -1.131785       -30.7974
   3   2.0000      -0.798847       -21.7377
   4   2.0000      -0.614240       -16.7143
   5   2.0000      -0.533614       -14.5204
   6   2.0000      -0.522454       -14.2167
   7   2.0000      -0.443015       -12.0551
   8   2.0000      -0.374081       -10.1792
   9   0.0000       0.088336         2.4038
  10   0.0000       0.122243         3.3264
  11   0.0000       0.150180         4.0866
  12   0.0000       0.169265         4.6059
  13   0.0000       0.195064         5.3080

MULLIKEN ATOMIC CHARGES
-----------------------
   0 C :   -0.001348
   1 O :    0.000044
   2 H :    0.000005
   3 H :   -0.001501
   4 H :   -0.000314
   5 H :   -0.000232
   6 C :   -0.172294
   7 O :   -0.472730
   8 H :    0.310359
   9 H :    0.108561
  10 H :    0.103606
  11 H :    0.125845
Sum of atomic charges:   -0.0000000

LOEWDIN ATOMIC CHARGES
----------------------
   0 C :   -0.003137
   1 O :   -0.000028
   2 H :   -0.000003
   3 H :   -0.000988
   4 H :   -0.000043
   5 H :   -0.001033
   6 C :   -0.369910
   7 O :   -0.083592
   8 H :    0.161579
   9 H :    0.088298
  10 H :    0.098649
  11 H :    0.110208

  Mayer bond orders larger than 0.1
B(  6-C ,  7-O ) :   0.9916 B(  6-C ,  9-H ) :   0.9737 B(  6-C , 10-H ) :   0.9707
B(  6-C , 11-H ) :   0.9765 B(  7-O ,  8-H ) :   0.9034

Dispersion correction           -0.000251635
FINAL SINGLE POINT ENERGY      -115.735328204458

DIPOLE MOMENT
-------------
                                X             Y             Z
Electronic contribution:     -0.40393      -0.29313      -1.77181
Nuclear contribution   :     -0.02421       0.35187       2.33296
                        -----------------------------------------
Total Dipole Moment    :     -0.42813       0.05874       0.56115
                        -----------------------------------------
Magnitude (a.u.)       :      0.70827
Magnitude (Debye)      :      1.80027

Rotational constants in cm-1:     4.353100     0.813645     0.777333
Rotational constants in MHz : 130502.657221 24392.465686 23303.850552

                             ****ORCA TERMINATED NORMALLY****
TOTAL RUN TIME: 0 days 0 hours 1 minutes 3 seconds 951 msec
