                         Program Version 4.1.2  - RELEASE  -
|  1> #Run DFT-D3 single point of the dimer
|  2> ! wB97X-D3 def2-TZVP TIGHTSCF CHELPG PMODEL PAL8
|  3>
|  4> %base "7-177_DFT_AB"
|  5>
|  6> %scf
|  7> MaxIter 1000
|  8> end
|  9>
| 10> * xyz 0 1
| 11>   C                      -10.599318           -1.310426            -3.237180
| 12>   O                      -10.930935           -2.249234            -4.256486
| 13>   H                      -10.881077           -3.128684            -3.872417
| 14>   H                      -11.146237           -1.432774            -2.289674
| 15>   H                      -9.492810            -1.357726            -3.027608
| 16>   H                      -10.780233           -0.284010            -3.640808
| 17>   C                      -9.846435            -5.397016            -6.735029
| 18>   O                      -10.906615           -4.719430            -6.116699
| 19>   H                      -11.329535           -4.157986            -6.758212
| 20>   H                      -9.455348            -6.246372            -6.047838
| 21>   H                      -10.094490           -5.756510            -7.684224
| 22>   H                      -9.010506            -4.723925            -6.991346
| 23> *
| 24>
| 25> #Run DFT-D3 single point of the molecule with dimer basis set
| 26> $new_job
| 27> %base "7-177_DFT_A"
| 28> ! wB97X-D3 def2-TZVP TIGHTSCF CHELPG PMODEL
| 29>
| 30> %scf
| 31> MaxIter 1000
| 32> end
| 33>
| 34> * xyz 0 1
| 35>   C                      -10.599318           -1.310426            -3.237180
| 36>   O                      -10.930935           -2.249234            -4.256486
| 37>   H                      -10.881077           -3.128684            -3.872417
| 38>   H                      -11.146237           -1.432774            -2.289674
| 39>   H                      -9.492810            -1.357726            -3.027608
| 40>   H                      -10.780233           -0.284010            -3.640808
| 41>   C                    : -9.846435            -5.397016            -6.735029
| 42>   O                    : -10.906615           -4.719430            -6.116699
| 43>   H                    : -11.329535           -4.157986            -6.758212
| 44>   H                    : -9.455348            -6.246372            -6.047838
| 45>   H                    : -10.094490           -5.756510            -7.684224
| 46>   H                    : -9.010506            -4.723925            -6.991346
| 47> *
| 48>
| 49> #Run DFT-D3 single point of the particle with dimer basis set
| 50> $new_job
| 51> %base "7-177_DFT_B"
| 52> ! wB97X-D3 def2-TZVP TIGHTSCF CHELPG PMODEL
| 53>
| 54> %scf
| 55> MaxIter 1000
| 56> end
| 57>
| 58> * xyz 0 1
| 59>   C                    : -10.599318           -1.310426            -3.237180
| 60>   O                    : -10.930935           -2.249234            -4.256486
| 61>   H                    : -10.881077           -3.128684            -3.872417
| 62>   H                    : -11.146237           -1.432774            -2.289674
| 63>   H                    : -9.492810            -1.357726            -3.027608
| 64>   H                    : -10.780233           -0.284010            -3.640808
| 65>   C                      -9.846435            -5.397016            -6.735029
| 66>   O                      -10.906615           -4.719430            -6.116699
| 67>   H                      -11.329535           -4.157986            -6.758212
| 68>   H                      -9.455348            -6.246372            -6.047838
| 69>   H                      -10.094490           -5.756510            -7.684224
| 70>   H                      -9.010506            -4.723925            -6.991346
| 71> *
| 72>
| 73>                          ****END OF INPUT****
 Total Charge           Charge          ....    0
 Multiplicity           Mult            ....    1
 Number of Electrons    NEL             ....   36
Dispersion correction           -0.001305834
FINAL SINGLE POINT ENERGY      -231.469403959600
Dispersion correction           -0.000256231
FINAL SINGLE POINT ENERGY      -115.735932436313

CARTESIAN COORDINATES (ANGSTROEM)
---------------------------------
  C    -10.599318   -1.310426   -3.237180
  O    -10.930935   -2.249234   -4.256486
  H    -10.881077   -3.128684   -3.872417
  H    -11.146237   -1.432774   -2.289674
  H     -9.492810   -1.357726   -3.027608
  H    -10.780233   -0.284010   -3.640808
  C     -9.846435   -5.397016   -6.735029
  O    -10.906615   -4.719430   -6.116699
  H    -11.329535   -4.157986   -6.758212
  H     -9.455348   -6.246372   -6.047838
  H    -10.094490   -5.756510   -7.684224
  H     -9.010506   -4.723925   -6.991346

 Multiplicity           Mult            ....    1
 Number of Electrons    NEL             ....   18
 Basis Dimension        Dim             ....  172

ORBITAL ENERGIES
----------------

  NO   OCC          E(Eh)            E(eV)
   0   2.0000     -19.230874      -523.2987
   1   2.0000     -10.315066      -280.6872
   2   2.0000      -1.142213       -31.0812
   3   2.0000      -0.795621       -21.6500
   4   2.0000      -0.623010       -16.9530
   5   2.0000      -0.535154       -14.5623
   6   2.0000      -0.524767       -14.2796
   7   2.0000      -0.437639       -11.9088
   8   2.0000      -0.370903       -10.0928
   9   0.0000       0.094528         2.5722
  10   0.0000       0.117395         3.1945
  11   0.0000       0.152378         4.1464
  12   0.0000       0.186572         5.0769
  13   0.0000       0.196702         5.3525

MULLIKEN ATOMIC CHARGES
-----------------------
   0 C :   -0.000234
   1 O :   -0.000568
   2 H :   -0.005757
   3 H :    0.000009
   4 H :    0.000005
   5 H :    0.000033
   6 C :   -0.156485
   7 O :   -0.465411
   8 H :    0.312440
   9 H :    0.119162
  10 H :    0.101802
  11 H :    0.095004
Sum of atomic charges:   -0.0000000

LOEWDIN ATOMIC CHARGES
----------------------
   0 C :   -0.000320
   1 O :   -0.005904
   2 H :   -0.008308
   3 H :   -0.000006
   4 H :   -0.000009
   5 H :   -0.000009
   6 C :   -0.396461
   7 O :   -0.052981
   8 H :    0.165042
   9 H :    0.123057
  10 H :    0.081884
  11 H :    0.094015

  Mayer bond orders larger than 0.1
B(  6-C ,  7-O ) :   0.9944 B(  6-C ,  9-H ) :   0.9717 B(  6-C , 10-H ) :   0.9761
B(  6-C , 11-H ) :   0.9749 B(  7-O ,  8-H ) :   0.8985

Dispersion correction           -0.000237732
FINAL SINGLE POINT ENERGY      -115.730746846812

DIPOLE MOMENT
-------------
                                X             Y             Z
Electronic contribution:     -1.43683       0.77301       0.90197
Nuclear contribution   :      1.56547      -0.68819      -1.59788
                        -----------------------------------------
Total Dipole Moment    :      0.12864       0.08483      -0.69591
                        -----------------------------------------
Magnitude (a.u.)       :      0.71276
Magnitude (Debye)      :      1.81170

Rotational constants in cm-1:     4.302059     0.844825     0.799361
Rotational constants in MHz : 128972.479403 25327.226855 23964.232433

                             ****ORCA TERMINATED NORMALLY****
TOTAL RUN TIME: 0 days 0 hours 1 minutes 12 seconds 37 msec
