                         Program Version 4.1.2  - RELEASE  -
|  1> #Run DFT-D3 single point of the dimer
|  2> ! wB97X-D3 def2-TZVP TIGHTSCF CHELPG PMODEL PAL8
|  3>
|  4> %base "14-139_DFT_AB"
|  5>
|  6> %scf
|  7> MaxIter 1000
|  8> end
|  9>
| 10> * xyz 0 1
| 11>   C                      -6.884273            2.759162             -10.565749
| 12>   O                      -7.233005            2.340191             -11.865965
| 13>   H                      -7.718869            3.042188             -12.262749
| 14>   H                      -6.190884            1.959772             -10.206315
| 15>   H                      -6.272609            3.739494             -10.517569
| 16>   H                      -7.605629            2.739941             -9.851805
| 17>   C                      -11.198574           2.196297             -8.663899
| 18>   O                      -9.934511            2.627828             -9.106042
| 19>   H                      -9.437128            2.008321             -9.679980
| 20>   H                      -11.242939           1.426187             -7.873173
| 21>   H                      -11.747869           3.026897             -8.234249
| 22>   H                      -11.859639           1.793048             -9.379719
| 23> *
| 24>
| 25> #Run DFT-D3 single point of the molecule with dimer basis set
| 26> $new_job
| 27> %base "14-139_DFT_A"
| 28> ! wB97X-D3 def2-TZVP TIGHTSCF CHELPG PMODEL
| 29>
| 30> %scf
| 31> MaxIter 1000
| 32> end
| 33>
| 34> * xyz 0 1
| 35>   C                      -6.884273            2.759162             -10.565749
| 36>   O                      -7.233005            2.340191             -11.865965
| 37>   H                      -7.718869            3.042188             -12.262749
| 38>   H                      -6.190884            1.959772             -10.206315
| 39>   H                      -6.272609            3.739494             -10.517569
| 40>   H                      -7.605629            2.739941             -9.851805
| 41>   C                    : -11.198574           2.196297             -8.663899
| 42>   O                    : -9.934511            2.627828             -9.106042
| 43>   H                    : -9.437128            2.008321             -9.679980
| 44>   H                    : -11.242939           1.426187             -7.873173
| 45>   H                    : -11.747869           3.026897             -8.234249
| 46>   H                    : -11.859639           1.793048             -9.379719
| 47> *
| 48>
| 49> #Run DFT-D3 single point of the particle with dimer basis set
| 50> $new_job
| 51> %base "14-139_DFT_B"
| 52> ! wB97X-D3 def2-TZVP TIGHTSCF CHELPG PMODEL
| 53>
| 54> %scf
| 55> MaxIter 1000
| 56> end
| 57>
| 58> * xyz 0 1
| 59>   C                    : -6.884273            2.759162             -10.565749
| 60>   O                    : -7.233005            2.340191             -11.865965
| 61>   H                    : -7.718869            3.042188             -12.262749
| 62>   H                    : -6.190884            1.959772             -10.206315
| 63>   H                    : -6.272609            3.739494             -10.517569
| 64>   H                    : -7.605629            2.739941             -9.851805
| 65>   C                      -11.198574           2.196297             -8.663899
| 66>   O                      -9.934511            2.627828             -9.106042
| 67>   H                      -9.437128            2.008321             -9.679980
| 68>   H                      -11.242939           1.426187             -7.873173
| 69>   H                      -11.747869           3.026897             -8.234249
| 70>   H                      -11.859639           1.793048             -9.379719
| 71> *
| 72>
| 73>                          ****END OF INPUT****
 Total Charge           Charge          ....    0
 Multiplicity           Mult            ....    1
 Number of Electrons    NEL             ....   36
Dispersion correction           -0.001515417
FINAL SINGLE POINT ENERGY      -231.459464105023
Dispersion correction           -0.000256023
FINAL SINGLE POINT ENERGY      -115.727378572184

CARTESIAN COORDINATES (ANGSTROEM)
---------------------------------
  C     -6.884273    2.759162  -10.565749
  O     -7.233005    2.340191  -11.865965
  H     -7.718869    3.042188  -12.262749
  H     -6.190884    1.959772  -10.206315
  H     -6.272609    3.739494  -10.517569
  H     -7.605629    2.739941   -9.851805
  C    -11.198574    2.196297   -8.663899
  O     -9.934511    2.627828   -9.106042
  H     -9.437128    2.008321   -9.679980
  H    -11.242939    1.426187   -7.873173
  H    -11.747869    3.026897   -8.234249
  H    -11.859639    1.793048   -9.379719

 Multiplicity           Mult            ....    1
 Number of Electrons    NEL             ....   18
 Basis Dimension        Dim             ....  172

ORBITAL ENERGIES
----------------

  NO   OCC          E(Eh)            E(eV)
   0   2.0000     -19.235560      -523.4262
   1   2.0000     -10.309000      -280.5222
   2   2.0000      -1.131654       -30.7939
   3   2.0000      -0.804508       -21.8918
   4   2.0000      -0.622048       -16.9268
   5   2.0000      -0.531870       -14.4729
   6   2.0000      -0.528078       -14.3697
   7   2.0000      -0.428305       -11.6548
   8   2.0000      -0.374605       -10.1935
   9   0.0000       0.081673         2.2224
  10   0.0000       0.131366         3.5747
  11   0.0000       0.151196         4.1142
  12   0.0000       0.166781         4.5383
  13   0.0000       0.194837         5.3018

MULLIKEN ATOMIC CHARGES
-----------------------
   0 C :    0.002854
   1 O :   -0.000074
   2 H :   -0.000210
   3 H :   -0.000096
   4 H :   -0.000088
   5 H :   -0.010739
   6 C :   -0.161506
   7 O :   -0.474639
   8 H :    0.323393
   9 H :    0.091816
  10 H :    0.121252
  11 H :    0.108036
Sum of atomic charges:    0.0000000

LOEWDIN ATOMIC CHARGES
----------------------
   0 C :   -0.006934
   1 O :   -0.000306
   2 H :   -0.000273
   3 H :   -0.000059
   4 H :   -0.000032
   5 H :   -0.009828
   6 C :   -0.392830
   7 O :   -0.066754
   8 H :    0.185647
   9 H :    0.094773
  10 H :    0.109767
  11 H :    0.086828

  Mayer bond orders larger than 0.1
B(  6-C ,  7-O ) :   1.0066 B(  6-C ,  9-H ) :   0.9735 B(  6-C , 10-H ) :   0.9771
B(  6-C , 11-H ) :   0.9730 B(  7-O ,  8-H ) :   0.8852

Dispersion correction           -0.000286011
FINAL SINGLE POINT ENERGY      -115.730659436516

DIPOLE MOMENT
-------------
                                X             Y             Z
Electronic contribution:      1.72735       0.66819      -0.61872
Nuclear contribution   :     -1.94387      -1.24042       0.40593
                        -----------------------------------------
Total Dipole Moment    :     -0.21652      -0.57222      -0.21279
                        -----------------------------------------
Magnitude (a.u.)       :      0.64776
Magnitude (Debye)      :      1.64649

Rotational constants in cm-1:     4.719424     0.811485     0.783529
Rotational constants in MHz : 141484.769204 24327.702205 23489.594744

                             ****ORCA TERMINATED NORMALLY****
TOTAL RUN TIME: 0 days 0 hours 1 minutes 9 seconds 749 msec
