                         Program Version 4.1.2  - RELEASE  -
|  1> #Run DFT-D3 single point of the dimer
|  2> ! wB97X-D3 def2-TZVP TIGHTSCF CHELPG PMODEL PAL8
|  3>
|  4> %base "9-198_DFT_AB"
|  5>
|  6> %scf
|  7> MaxIter 1000
|  8> end
|  9>
| 10> * xyz 0 1
| 11>   C                      8.264590             -6.277719            5.998486
| 12>   O                      8.012149             -7.412224            6.761491
| 13>   H                      7.331496             -7.951314            6.315991
| 14>   H                      8.566802             -6.611189            4.969169
| 15>   H                      7.420928             -5.647078            5.856310
| 16>   H                      8.913490             -5.615857            6.512467
| 17>   C                      5.206334             -9.057863            6.597827
| 18>   O                      5.847438             -8.835371            5.336983
| 19>   H                      5.164536             -8.989231            4.744363
| 20>   H                      5.910274             -9.233634            7.412780
| 21>   H                      4.588259             -8.188817            6.926912
| 22>   H                      4.477473             -9.918150            6.582761
| 23> *
| 24>
| 25> #Run DFT-D3 single point of the molecule with dimer basis set
| 26> $new_job
| 27> %base "9-198_DFT_A"
| 28> ! wB97X-D3 def2-TZVP TIGHTSCF CHELPG PMODEL
| 29>
| 30> %scf
| 31> MaxIter 1000
| 32> end
| 33>
| 34> * xyz 0 1
| 35>   C                      8.264590             -6.277719            5.998486
| 36>   O                      8.012149             -7.412224            6.761491
| 37>   H                      7.331496             -7.951314            6.315991
| 38>   H                      8.566802             -6.611189            4.969169
| 39>   H                      7.420928             -5.647078            5.856310
| 40>   H                      8.913490             -5.615857            6.512467
| 41>   C                    : 5.206334             -9.057863            6.597827
| 42>   O                    : 5.847438             -8.835371            5.336983
| 43>   H                    : 5.164536             -8.989231            4.744363
| 44>   H                    : 5.910274             -9.233634            7.412780
| 45>   H                    : 4.588259             -8.188817            6.926912
| 46>   H                    : 4.477473             -9.918150            6.582761
| 47> *
| 48>
| 49> #Run DFT-D3 single point of the particle with dimer basis set
| 50> $new_job
| 51> %base "9-198_DFT_B"
| 52> ! wB97X-D3 def2-TZVP TIGHTSCF CHELPG PMODEL
| 53>
| 54> %scf
| 55> MaxIter 1000
| 56> end
| 57>
| 58> * xyz 0 1
| 59>   C                    : 8.264590             -6.277719            5.998486
| 60>   O                    : 8.012149             -7.412224            6.761491
| 61>   H                    : 7.331496             -7.951314            6.315991
| 62>   H                    : 8.566802             -6.611189            4.969169
| 63>   H                    : 7.420928             -5.647078            5.856310
| 64>   H                    : 8.913490             -5.615857            6.512467
| 65>   C                      5.206334             -9.057863            6.597827
| 66>   O                      5.847438             -8.835371            5.336983
| 67>   H                      5.164536             -8.989231            4.744363
| 68>   H                      5.910274             -9.233634            7.412780
| 69>   H                      4.588259             -8.188817            6.926912
| 70>   H                      4.477473             -9.918150            6.582761
| 71> *
| 72>
| 73>                          ****END OF INPUT****
 Total Charge           Charge          ....    0
 Multiplicity           Mult            ....    1
 Number of Electrons    NEL             ....   36
Dispersion correction           -0.001856595
FINAL SINGLE POINT ENERGY      -231.469456159197
Dispersion correction           -0.000223906
FINAL SINGLE POINT ENERGY      -115.731321137733

CARTESIAN COORDINATES (ANGSTROEM)
---------------------------------
  C      8.264590   -6.277719    5.998486
  O      8.012149   -7.412224    6.761491
  H      7.331496   -7.951314    6.315991
  H      8.566802   -6.611189    4.969169
  H      7.420928   -5.647078    5.856310
  H      8.913490   -5.615857    6.512467
  C      5.206334   -9.057863    6.597827
  O      5.847438   -8.835371    5.336983
  H      5.164536   -8.989231    4.744363
  H      5.910274   -9.233634    7.412780
  H      4.588259   -8.188817    6.926912
  H      4.477473   -9.918150    6.582761

 Multiplicity           Mult            ....    1
 Number of Electrons    NEL             ....   18
 Basis Dimension        Dim             ....  172

ORBITAL ENERGIES
----------------

  NO   OCC          E(Eh)            E(eV)
   0   2.0000     -19.232730      -523.3492
   1   2.0000     -10.321802      -280.8705
   2   2.0000      -1.146699       -31.2033
   3   2.0000      -0.795598       -21.6493
   4   2.0000      -0.613898       -16.7050
   5   2.0000      -0.532051       -14.4778
   6   2.0000      -0.529907       -14.4195
   7   2.0000      -0.445794       -12.1307
   8   2.0000      -0.376606       -10.2480
   9   0.0000       0.099289         2.7018
  10   0.0000       0.126590         3.4447
  11   0.0000       0.149837         4.0773
  12   0.0000       0.183418         4.9911
  13   0.0000       0.193677         5.2702

MULLIKEN ATOMIC CHARGES
-----------------------
   0 C :   -0.000231
   1 O :    0.000046
   2 H :    0.000253
   3 H :   -0.001000
   4 H :   -0.001460
   5 H :   -0.000275
   6 C :   -0.196157
   7 O :   -0.442281
   8 H :    0.300624
   9 H :    0.125866
  10 H :    0.106122
  11 H :    0.108493
Sum of atomic charges:    0.0000000

LOEWDIN ATOMIC CHARGES
----------------------
   0 C :   -0.003727
   1 O :   -0.003174
   2 H :   -0.029183
   3 H :   -0.000511
   4 H :   -0.000479
   5 H :   -0.000052
   6 C :   -0.375800
   7 O :   -0.038919
   8 H :    0.141853
   9 H :    0.108955
  10 H :    0.099065
  11 H :    0.101972

  Mayer bond orders larger than 0.1
B(  6-C ,  7-O ) :   0.9967 B(  6-C ,  9-H ) :   0.9783 B(  6-C , 10-H ) :   0.9696
B(  6-C , 11-H ) :   0.9741 B(  7-O ,  8-H ) :   0.9136

Dispersion correction           -0.000250537
FINAL SINGLE POINT ENERGY      -115.732075439790

DIPOLE MOMENT
-------------
                                X             Y             Z
Electronic contribution:      1.07608       0.29824      -1.63690
Nuclear contribution   :     -1.75783      -0.49589       1.75937
                        -----------------------------------------
Total Dipole Moment    :     -0.68176      -0.19765       0.12246
                        -----------------------------------------
Magnitude (a.u.)       :      0.72032
Magnitude (Debye)      :      1.83090

Rotational constants in cm-1:     4.309226     0.811222     0.780701
Rotational constants in MHz : 129187.341375 24319.823191 23404.832474

                             ****ORCA TERMINATED NORMALLY****
TOTAL RUN TIME: 0 days 0 hours 0 minutes 45 seconds 957 msec
