                         Program Version 4.1.2  - RELEASE  -
|  1> #Run DFT-D3 single point of the dimer
|  2> ! wB97X-D3 def2-TZVP TIGHTSCF CHELPG PMODEL PAL8
|  3>
|  4> %base "8-102_DFT_AB"
|  5>
|  6> %scf
|  7> MaxIter 1000
|  8> end
|  9>
| 10> * xyz 0 1
| 11>   C                      -5.195719            -0.427144            9.365506
| 12>   O                      -6.124433            -1.080566            10.163934
| 13>   H                      -6.539004            -1.747450            9.631112
| 14>   H                      -5.596017            -0.049719            8.423426
| 15>   H                      -4.831508            0.366167             9.977338
| 16>   H                      -4.342301            -1.112926            9.156067
| 17>   C                      -1.268964            2.183563             10.171875
| 18>   O                      -0.616316            3.370882             9.963561
| 19>   H                      0.240981             3.090961             9.680440
| 20>   H                      -1.126992            1.645702             11.136965
| 21>   H                      -2.361959            2.378245             10.272808
| 22>   H                      -0.968385            1.430993             9.467561
| 23> *
| 24>
| 25> #Run DFT-D3 single point of the molecule with dimer basis set
| 26> $new_job
| 27> %base "8-102_DFT_A"
| 28> ! wB97X-D3 def2-TZVP TIGHTSCF CHELPG PMODEL
| 29>
| 30> %scf
| 31> MaxIter 1000
| 32> end
| 33>
| 34> * xyz 0 1
| 35>   C                      -5.195719            -0.427144            9.365506
| 36>   O                      -6.124433            -1.080566            10.163934
| 37>   H                      -6.539004            -1.747450            9.631112
| 38>   H                      -5.596017            -0.049719            8.423426
| 39>   H                      -4.831508            0.366167             9.977338
| 40>   H                      -4.342301            -1.112926            9.156067
| 41>   C                    : -1.268964            2.183563             10.171875
| 42>   O                    : -0.616316            3.370882             9.963561
| 43>   H                    : 0.240981             3.090961             9.680440
| 44>   H                    : -1.126992            1.645702             11.136965
| 45>   H                    : -2.361959            2.378245             10.272808
| 46>   H                    : -0.968385            1.430993             9.467561
| 47> *
| 48>
| 49> #Run DFT-D3 single point of the particle with dimer basis set
| 50> $new_job
| 51> %base "8-102_DFT_B"
| 52> ! wB97X-D3 def2-TZVP TIGHTSCF CHELPG PMODEL
| 53>
| 54> %scf
| 55> MaxIter 1000
| 56> end
| 57>
| 58> * xyz 0 1
| 59>   C                    : -5.195719            -0.427144            9.365506
| 60>   O                    : -6.124433            -1.080566            10.163934
| 61>   H                    : -6.539004            -1.747450            9.631112
| 62>   H                    : -5.596017            -0.049719            8.423426
| 63>   H                    : -4.831508            0.366167             9.977338
| 64>   H                    : -4.342301            -1.112926            9.156067
| 65>   C                      -1.268964            2.183563             10.171875
| 66>   O                      -0.616316            3.370882             9.963561
| 67>   H                      0.240981             3.090961             9.680440
| 68>   H                      -1.126992            1.645702             11.136965
| 69>   H                      -2.361959            2.378245             10.272808
| 70>   H                      -0.968385            1.430993             9.467561
| 71> *
| 72>
| 73>                          ****END OF INPUT****
 Total Charge           Charge          ....    0
 Multiplicity           Mult            ....    1
 Number of Electrons    NEL             ....   36
Dispersion correction           -0.000846293
FINAL SINGLE POINT ENERGY      -231.463416745241
Dispersion correction           -0.000220311
FINAL SINGLE POINT ENERGY      -115.735520675169

CARTESIAN COORDINATES (ANGSTROEM)
---------------------------------
  C     -5.195719   -0.427144    9.365506
  O     -6.124433   -1.080566   10.163934
  H     -6.539004   -1.747450    9.631112
  H     -5.596017   -0.049719    8.423426
  H     -4.831508    0.366167    9.977338
  H     -4.342301   -1.112926    9.156067
  C     -1.268964    2.183563   10.171875
  O     -0.616316    3.370882    9.963561
  H      0.240981    3.090961    9.680440
  H     -1.126992    1.645702   11.136965
  H     -2.361959    2.378245   10.272808
  H     -0.968385    1.430993    9.467561

 Multiplicity           Mult            ....    1
 Number of Electrons    NEL             ....   18
 Basis Dimension        Dim             ....  172

ORBITAL ENERGIES
----------------

  NO   OCC          E(Eh)            E(eV)
   0   2.0000     -19.235348      -523.4204
   1   2.0000     -10.311995      -280.6037
   2   2.0000      -1.160211       -31.5709
   3   2.0000      -0.793658       -21.5965
   4   2.0000      -0.629878       -17.1399
   5   2.0000      -0.548494       -14.9253
   6   2.0000      -0.521462       -14.1897
   7   2.0000      -0.445356       -12.1188
   8   2.0000      -0.367670       -10.0048
   9   0.0000       0.084305         2.2941
  10   0.0000       0.114601         3.1184
  11   0.0000       0.140930         3.8349
  12   0.0000       0.179901         4.8953
  13   0.0000       0.181777         4.9464

MULLIKEN ATOMIC CHARGES
-----------------------
   0 C :    0.000169
   1 O :   -0.000009
   2 H :   -0.000001
   3 H :   -0.000000
   4 H :   -0.000469
   5 H :   -0.000072
   6 C :   -0.177980
   7 O :   -0.443887
   8 H :    0.313989
   9 H :    0.085648
  10 H :    0.117558
  11 H :    0.105054
Sum of atomic charges:    0.0000000

LOEWDIN ATOMIC CHARGES
----------------------
   0 C :   -0.000339
   1 O :   -0.000005
   2 H :   -0.000001
   3 H :   -0.000005
   4 H :   -0.000596
   5 H :   -0.000037
   6 C :   -0.434118
   7 O :   -0.030083
   8 H :    0.168064
   9 H :    0.093071
  10 H :    0.113405
  11 H :    0.090642

  Mayer bond orders larger than 0.1
B(  6-C ,  7-O ) :   1.0184 B(  6-C ,  9-H ) :   0.9622 B(  6-C , 10-H ) :   0.9782
B(  6-C , 11-H ) :   0.9843 B(  7-O ,  8-H ) :   0.9029

Dispersion correction           -0.000229154
FINAL SINGLE POINT ENERGY      -115.727512258044

DIPOLE MOMENT
-------------
                                X             Y             Z
Electronic contribution:      0.83070       1.77638      -0.39042
Nuclear contribution   :     -0.51359      -2.37036       0.28246
                        -----------------------------------------
Total Dipole Moment    :      0.31711      -0.59398      -0.10796
                        -----------------------------------------
Magnitude (a.u.)       :      0.68193
Magnitude (Debye)      :      1.73334

Rotational constants in cm-1:     4.382637     0.879585     0.827046
Rotational constants in MHz : 131388.158428 26369.297239 24794.218090

                             ****ORCA TERMINATED NORMALLY****
TOTAL RUN TIME: 0 days 0 hours 0 minutes 42 seconds 106 msec
