                         Program Version 4.1.2  - RELEASE  -
|  1> #Run DFT-D3 single point of the dimer
|  2> ! wB97X-D3 def2-TZVP TIGHTSCF CHELPG PMODEL PAL8
|  3>
|  4> %base "8-60_DFT_AB"
|  5>
|  6> %scf
|  7> MaxIter 1000
|  8> end
|  9>
| 10> * xyz 0 1
| 11>   C                      -1.670944            -9.559233            3.799074
| 12>   O                      -0.481268            -9.603435            3.036567
| 13>   H                      -0.736108            -9.305396            2.153526
| 14>   H                      -2.402088            -10.358033           3.567388
| 15>   H                      -1.449708            -9.797974            4.816966
| 16>   H                      -2.153882            -8.556090            3.774826
| 17>   C                      1.287699             -10.807181           7.175785
| 18>   O                      0.970395             -11.955731           7.957377
| 19>   H                      1.683097             -11.967201           8.636519
| 20>   H                      0.541193             -10.685245           6.400318
| 21>   H                      1.188107             -9.926228            7.855099
| 22>   H                      2.275731             -10.846685           6.724405
| 23> *
| 24>
| 25> #Run DFT-D3 single point of the molecule with dimer basis set
| 26> $new_job
| 27> %base "8-60_DFT_A"
| 28> ! wB97X-D3 def2-TZVP TIGHTSCF CHELPG PMODEL
| 29>
| 30> %scf
| 31> MaxIter 1000
| 32> end
| 33>
| 34> * xyz 0 1
| 35>   C                      -1.670944            -9.559233            3.799074
| 36>   O                      -0.481268            -9.603435            3.036567
| 37>   H                      -0.736108            -9.305396            2.153526
| 38>   H                      -2.402088            -10.358033           3.567388
| 39>   H                      -1.449708            -9.797974            4.816966
| 40>   H                      -2.153882            -8.556090            3.774826
| 41>   C                    : 1.287699             -10.807181           7.175785
| 42>   O                    : 0.970395             -11.955731           7.957377
| 43>   H                    : 1.683097             -11.967201           8.636519
| 44>   H                    : 0.541193             -10.685245           6.400318
| 45>   H                    : 1.188107             -9.926228            7.855099
| 46>   H                    : 2.275731             -10.846685           6.724405
| 47> *
| 48>
| 49> #Run DFT-D3 single point of the particle with dimer basis set
| 50> $new_job
| 51> %base "8-60_DFT_B"
| 52> ! wB97X-D3 def2-TZVP TIGHTSCF CHELPG PMODEL
| 53>
| 54> %scf
| 55> MaxIter 1000
| 56> end
| 57>
| 58> * xyz 0 1
| 59>   C                    : -1.670944            -9.559233            3.799074
| 60>   O                    : -0.481268            -9.603435            3.036567
| 61>   H                    : -0.736108            -9.305396            2.153526
| 62>   H                    : -2.402088            -10.358033           3.567388
| 63>   H                    : -1.449708            -9.797974            4.816966
| 64>   H                    : -2.153882            -8.556090            3.774826
| 65>   C                      1.287699             -10.807181           7.175785
| 66>   O                      0.970395             -11.955731           7.957377
| 67>   H                      1.683097             -11.967201           8.636519
| 68>   H                      0.541193             -10.685245           6.400318
| 69>   H                      1.188107             -9.926228            7.855099
| 70>   H                      2.275731             -10.846685           6.724405
| 71> *
| 72>
| 73>                          ****END OF INPUT****
 Total Charge           Charge          ....    0
 Multiplicity           Mult            ....    1
 Number of Electrons    NEL             ....   36
Dispersion correction           -0.001011353
FINAL SINGLE POINT ENERGY      -231.470290608261
Dispersion correction           -0.000248263
FINAL SINGLE POINT ENERGY      -115.734831908635

CARTESIAN COORDINATES (ANGSTROEM)
---------------------------------
  C     -1.670944   -9.559233    3.799074
  O     -0.481268   -9.603435    3.036567
  H     -0.736108   -9.305396    2.153526
  H     -2.402088  -10.358033    3.567388
  H     -1.449708   -9.797974    4.816966
  H     -2.153882   -8.556090    3.774826
  C      1.287699  -10.807181    7.175785
  O      0.970395  -11.955731    7.957377
  H      1.683097  -11.967201    8.636519
  H      0.541193  -10.685245    6.400318
  H      1.188107   -9.926228    7.855099
  H      2.275731  -10.846685    6.724405

 Multiplicity           Mult            ....    1
 Number of Electrons    NEL             ....   18
 Basis Dimension        Dim             ....  172

ORBITAL ENERGIES
----------------

  NO   OCC          E(Eh)            E(eV)
   0   2.0000     -19.232116      -523.3325
   1   2.0000     -10.314259      -280.6653
   2   2.0000      -1.130982       -30.7756
   3   2.0000      -0.790652       -21.5147
   4   2.0000      -0.603134       -16.4121
   5   2.0000      -0.543638       -14.7931
   6   2.0000      -0.525042       -14.2871
   7   2.0000      -0.437741       -11.9115
   8   2.0000      -0.372563       -10.1380
   9   0.0000       0.086547         2.3551
  10   0.0000       0.112775         3.0688
  11   0.0000       0.151862         4.1324
  12   0.0000       0.166761         4.5378
  13   0.0000       0.188648         5.1334

MULLIKEN ATOMIC CHARGES
-----------------------
   0 C :   -0.000625
   1 O :    0.000009
   2 H :   -0.000003
   3 H :    0.000004
   4 H :    0.000556
   5 H :    0.000016
   6 C :   -0.171463
   7 O :   -0.471376
   8 H :    0.314782
   9 H :    0.121895
  10 H :    0.099911
  11 H :    0.106293
Sum of atomic charges:   -0.0000000

LOEWDIN ATOMIC CHARGES
----------------------
   0 C :   -0.000933
   1 O :   -0.000043
   2 H :   -0.000003
   3 H :   -0.000007
   4 H :   -0.001757
   5 H :   -0.000004
   6 C :   -0.382093
   7 O :   -0.097675
   8 H :    0.183511
   9 H :    0.105827
  10 H :    0.100185
  11 H :    0.092991

  Mayer bond orders larger than 0.1
B(  6-C ,  7-O ) :   1.0041 B(  6-C ,  9-H ) :   0.9736 B(  6-C , 10-H ) :   0.9851
B(  6-C , 11-H ) :   0.9693 B(  7-O ,  8-H ) :   0.8993

Dispersion correction           -0.000225772
FINAL SINGLE POINT ENERGY      -115.734674408762

DIPOLE MOMENT
-------------
                                X             Y             Z
Electronic contribution:     -0.48300      -1.54102       0.80534
Nuclear contribution   :      1.03263       1.98245      -0.71023
                        -----------------------------------------
Total Dipole Moment    :      0.54964       0.44142       0.09510
                        -----------------------------------------
Magnitude (a.u.)       :      0.71134
Magnitude (Debye)      :      1.80808

Rotational constants in cm-1:     4.152612     0.828068     0.799426
Rotational constants in MHz : 124492.183698 24824.864434 23966.176288

                             ****ORCA TERMINATED NORMALLY****
TOTAL RUN TIME: 0 days 0 hours 0 minutes 42 seconds 293 msec
