                         Program Version 4.1.2  - RELEASE  -
|  1> #Run DFT-D3 single point of the dimer
|  2> ! wB97X-D3 def2-TZVP TIGHTSCF CHELPG PMODEL PAL8
|  3>
|  4> %base "11-79_DFT_AB"
|  5>
|  6> %scf
|  7> MaxIter 1000
|  8> end
|  9>
| 10> * xyz 0 1
| 11>   C                      8.208089             3.975349             -1.861267
| 12>   O                      7.813825             2.619600             -2.292651
| 13>   H                      7.000944             2.319256             -1.900115
| 14>   H                      8.304451             4.108650             -0.728916
| 15>   H                      9.262322             4.143959             -2.354098
| 16>   H                      7.514508             4.812777             -2.164203
| 17>   C                      4.799980             6.006494             -5.167319
| 18>   O                      3.951177             6.217455             -4.023773
| 19>   H                      3.955789             5.362684             -3.580391
| 20>   H                      4.974411             6.973716             -5.687132
| 21>   H                      5.733022             5.639043             -4.789739
| 22>   H                      4.363213             5.250652             -5.814487
| 23> *
| 24>
| 25> #Run DFT-D3 single point of the molecule with dimer basis set
| 26> $new_job
| 27> %base "11-79_DFT_A"
| 28> ! wB97X-D3 def2-TZVP TIGHTSCF CHELPG PMODEL
| 29>
| 30> %scf
| 31> MaxIter 1000
| 32> end
| 33>
| 34> * xyz 0 1
| 35>   C                      8.208089             3.975349             -1.861267
| 36>   O                      7.813825             2.619600             -2.292651
| 37>   H                      7.000944             2.319256             -1.900115
| 38>   H                      8.304451             4.108650             -0.728916
| 39>   H                      9.262322             4.143959             -2.354098
| 40>   H                      7.514508             4.812777             -2.164203
| 41>   C                    : 4.799980             6.006494             -5.167319
| 42>   O                    : 3.951177             6.217455             -4.023773
| 43>   H                    : 3.955789             5.362684             -3.580391
| 44>   H                    : 4.974411             6.973716             -5.687132
| 45>   H                    : 5.733022             5.639043             -4.789739
| 46>   H                    : 4.363213             5.250652             -5.814487
| 47> *
| 48>
| 49> #Run DFT-D3 single point of the particle with dimer basis set
| 50> $new_job
| 51> %base "11-79_DFT_B"
| 52> ! wB97X-D3 def2-TZVP TIGHTSCF CHELPG PMODEL
| 53>
| 54> %scf
| 55> MaxIter 1000
| 56> end
| 57>
| 58> * xyz 0 1
| 59>   C                    : 8.208089             3.975349             -1.861267
| 60>   O                    : 7.813825             2.619600             -2.292651
| 61>   H                    : 7.000944             2.319256             -1.900115
| 62>   H                    : 8.304451             4.108650             -0.728916
| 63>   H                    : 9.262322             4.143959             -2.354098
| 64>   H                    : 7.514508             4.812777             -2.164203
| 65>   C                      4.799980             6.006494             -5.167319
| 66>   O                      3.951177             6.217455             -4.023773
| 67>   H                      3.955789             5.362684             -3.580391
| 68>   H                      4.974411             6.973716             -5.687132
| 69>   H                      5.733022             5.639043             -4.789739
| 70>   H                      4.363213             5.250652             -5.814487
| 71> *
| 72>
| 73>                          ****END OF INPUT****
 Total Charge           Charge          ....    0
 Multiplicity           Mult            ....    1
 Number of Electrons    NEL             ....   36
Dispersion correction           -0.000930775
FINAL SINGLE POINT ENERGY      -231.461342789473
Dispersion correction           -0.000325897
FINAL SINGLE POINT ENERGY      -115.726393435877

CARTESIAN COORDINATES (ANGSTROEM)
---------------------------------
  C      8.208089    3.975349   -1.861267
  O      7.813825    2.619600   -2.292651
  H      7.000944    2.319256   -1.900115
  H      8.304451    4.108650   -0.728916
  H      9.262322    4.143959   -2.354098
  H      7.514508    4.812777   -2.164203
  C      4.799980    6.006494   -5.167319
  O      3.951177    6.217455   -4.023773
  H      3.955789    5.362684   -3.580391
  H      4.974411    6.973716   -5.687132
  H      5.733022    5.639043   -4.789739
  H      4.363213    5.250652   -5.814487

 Multiplicity           Mult            ....    1
 Number of Electrons    NEL             ....   18
 Basis Dimension        Dim             ....  172

ORBITAL ENERGIES
----------------

  NO   OCC          E(Eh)            E(eV)
   0   2.0000     -19.227577      -523.2090
   1   2.0000     -10.313919      -280.6560
   2   2.0000      -1.129473       -30.7345
   3   2.0000      -0.793194       -21.5839
   4   2.0000      -0.604303       -16.4439
   5   2.0000      -0.544610       -14.8196
   6   2.0000      -0.522476       -14.2173
   7   2.0000      -0.439385       -11.9563
   8   2.0000      -0.372277       -10.1302
   9   0.0000       0.076914         2.0929
  10   0.0000       0.117757         3.2043
  11   0.0000       0.153683         4.1819
  12   0.0000       0.160109         4.3568
  13   0.0000       0.181638         4.9426

MULLIKEN ATOMIC CHARGES
-----------------------
   0 C :   -0.000535
   1 O :    0.000011
   2 H :   -0.000000
   3 H :    0.000004
   4 H :    0.000039
   5 H :    0.000459
   6 C :   -0.170657
   7 O :   -0.475216
   8 H :    0.310522
   9 H :    0.122579
  10 H :    0.104134
  11 H :    0.108661
Sum of atomic charges:    0.0000000

LOEWDIN ATOMIC CHARGES
----------------------
   0 C :   -0.000234
   1 O :   -0.000005
   2 H :   -0.000004
   3 H :   -0.000002
   4 H :   -0.000003
   5 H :   -0.000256
   6 C :   -0.363963
   7 O :   -0.101607
   8 H :    0.168426
   9 H :    0.113518
  10 H :    0.090133
  11 H :    0.093997

  Mayer bond orders larger than 0.1
B(  6-C ,  7-O ) :   0.9892 B(  6-C ,  9-H ) :   0.9711 B(  6-C , 10-H ) :   0.9822
B(  6-C , 11-H ) :   0.9770 B(  7-O ,  8-H ) :   0.9039

Dispersion correction           -0.000217154
FINAL SINGLE POINT ENERGY      -115.734433954544

DIPOLE MOMENT
-------------
                                X             Y             Z
Electronic contribution:     -1.07950       0.43410       1.29388
Nuclear contribution   :      1.44198      -1.04936      -1.48058
                        -----------------------------------------
Total Dipole Moment    :      0.36249      -0.61526      -0.18670
                        -----------------------------------------
Magnitude (a.u.)       :      0.73810
Magnitude (Debye)      :      1.87611

Rotational constants in cm-1:     4.183552     0.823917     0.788574
Rotational constants in MHz : 125419.737642 24700.409989 23640.854732

                             ****ORCA TERMINATED NORMALLY****
TOTAL RUN TIME: 0 days 0 hours 1 minutes 9 seconds 867 msec
