                         Program Version 4.1.2  - RELEASE  -
|  1> #Run DFT-D3 single point of the dimer
|  2> ! wB97X-D3 def2-TZVP TIGHTSCF CHELPG PMODEL PAL8
|  3>
|  4> %base "1-70_DFT_AB"
|  5>
|  6> %scf
|  7> MaxIter 1000
|  8> end
|  9>
| 10> * xyz 0 1
| 11>   C                      5.651281             -6.607152            -7.131808
| 12>   O                      4.421029             -6.172387            -6.635053
| 13>   H                      3.846128             -6.941923            -6.443546
| 14>   H                      6.331579             -5.736460            -7.229165
| 15>   H                      6.041744             -7.382705            -6.519006
| 16>   H                      5.543523             -7.079936            -8.062609
| 17>   C                      6.956451             -9.205344            -8.643330
| 18>   O                      7.494626             -10.312251           -7.958313
| 19>   H                      8.472069             -10.342811           -7.894098
| 20>   H                      6.294432             -8.670516            -7.976908
| 21>   H                      7.755436             -8.440596            -8.752240
| 22>   H                      6.544276             -9.535706            -9.565708
| 23> *
| 24>
| 25> #Run DFT-D3 single point of the molecule with dimer basis set
| 26> $new_job
| 27> %base "1-70_DFT_A"
| 28> ! wB97X-D3 def2-TZVP TIGHTSCF CHELPG PMODEL
| 29>
| 30> %scf
| 31> MaxIter 1000
| 32> end
| 33>
| 34> * xyz 0 1
| 35>   C                      5.651281             -6.607152            -7.131808
| 36>   O                      4.421029             -6.172387            -6.635053
| 37>   H                      3.846128             -6.941923            -6.443546
| 38>   H                      6.331579             -5.736460            -7.229165
| 39>   H                      6.041744             -7.382705            -6.519006
| 40>   H                      5.543523             -7.079936            -8.062609
| 41>   C                    : 6.956451             -9.205344            -8.643330
| 42>   O                    : 7.494626             -10.312251           -7.958313
| 43>   H                    : 8.472069             -10.342811           -7.894098
| 44>   H                    : 6.294432             -8.670516            -7.976908
| 45>   H                    : 7.755436             -8.440596            -8.752240
| 46>   H                    : 6.544276             -9.535706            -9.565708
| 47> *
| 48>
| 49> #Run DFT-D3 single point of the particle with dimer basis set
| 50> $new_job
| 51> %base "1-70_DFT_B"
| 52> ! wB97X-D3 def2-TZVP TIGHTSCF CHELPG PMODEL
| 53>
| 54> %scf
| 55> MaxIter 1000
| 56> end
| 57>
| 58> * xyz 0 1
| 59>   C                    : 5.651281             -6.607152            -7.131808
| 60>   O                    : 4.421029             -6.172387            -6.635053
| 61>   H                    : 3.846128             -6.941923            -6.443546
| 62>   H                    : 6.331579             -5.736460            -7.229165
| 63>   H                    : 6.041744             -7.382705            -6.519006
| 64>   H                    : 5.543523             -7.079936            -8.062609
| 65>   C                      6.956451             -9.205344            -8.643330
| 66>   O                      7.494626             -10.312251           -7.958313
| 67>   H                      8.472069             -10.342811           -7.894098
| 68>   H                      6.294432             -8.670516            -7.976908
| 69>   H                      7.755436             -8.440596            -8.752240
| 70>   H                      6.544276             -9.535706            -9.565708
| 71> *
| 72>
| 73>                          ****END OF INPUT****
 Total Charge           Charge          ....    0
 Multiplicity           Mult            ....    1
 Number of Electrons    NEL             ....   36
Dispersion correction           -0.001706865
FINAL SINGLE POINT ENERGY      -231.457284864785
Dispersion correction           -0.000217693
FINAL SINGLE POINT ENERGY      -115.732622037171

CARTESIAN COORDINATES (ANGSTROEM)
---------------------------------
  C      5.651281   -6.607152   -7.131808
  O      4.421029   -6.172387   -6.635053
  H      3.846128   -6.941923   -6.443546
  H      6.331579   -5.736460   -7.229165
  H      6.041744   -7.382705   -6.519006
  H      5.543523   -7.079936   -8.062609
  C      6.956451   -9.205344   -8.643330
  O      7.494626  -10.312251   -7.958313
  H      8.472069  -10.342811   -7.894098
  H      6.294432   -8.670516   -7.976908
  H      7.755436   -8.440596   -8.752240
  H      6.544276   -9.535706   -9.565708

 Multiplicity           Mult            ....    1
 Number of Electrons    NEL             ....   18
 Basis Dimension        Dim             ....  172

ORBITAL ENERGIES
----------------

  NO   OCC          E(Eh)            E(eV)
   0   2.0000     -19.223449      -523.0966
   1   2.0000     -10.310422      -280.5608
   2   2.0000      -1.126730       -30.6599
   3   2.0000      -0.797259       -21.6945
   4   2.0000      -0.607505       -16.5311
   5   2.0000      -0.557963       -15.1829
   6   2.0000      -0.521358       -14.1869
   7   2.0000      -0.413801       -11.2601
   8   2.0000      -0.372783       -10.1439
   9   0.0000       0.088555         2.4097
  10   0.0000       0.112407         3.0587
  11   0.0000       0.154274         4.1980
  12   0.0000       0.177728         4.8362
  13   0.0000       0.186087         5.0637

MULLIKEN ATOMIC CHARGES
-----------------------
   0 C :   -0.014596
   1 O :   -0.000135
   2 H :   -0.000173
   3 H :    0.001295
   4 H :    0.008318
   5 H :    0.002972
   6 C :   -0.139089
   7 O :   -0.500980
   8 H :    0.321842
   9 H :    0.113913
  10 H :    0.095788
  11 H :    0.110845
Sum of atomic charges:    0.0000000

LOEWDIN ATOMIC CHARGES
----------------------
   0 C :   -0.026119
   1 O :   -0.000047
   2 H :   -0.000092
   3 H :   -0.000355
   4 H :   -0.006572
   5 H :   -0.014988
   6 C :   -0.362796
   7 O :   -0.089561
   8 H :    0.177847
   9 H :    0.123602
  10 H :    0.104423
  11 H :    0.094659

  Mayer bond orders larger than 0.1
B(  6-C ,  7-O ) :   1.0027 B(  6-C ,  9-H ) :   0.9700 B(  6-C , 10-H ) :   0.9943
B(  6-C , 11-H ) :   0.9692 B(  7-O ,  8-H ) :   0.8906

Dispersion correction           -0.000244466
FINAL SINGLE POINT ENERGY      -115.729577932562

DIPOLE MOMENT
-------------
                                X             Y             Z
Electronic contribution:      0.42737      -1.47524       0.73554
Nuclear contribution   :      0.01227       1.92799      -0.96345
                        -----------------------------------------
Total Dipole Moment    :      0.43965       0.45275      -0.22790
                        -----------------------------------------
Magnitude (a.u.)       :      0.67098
Magnitude (Debye)      :      1.70550

Rotational constants in cm-1:     4.323569     0.832194     0.811707
Rotational constants in MHz : 129617.331738 24948.549430 24334.357921

                             ****ORCA TERMINATED NORMALLY****
TOTAL RUN TIME: 0 days 0 hours 6 minutes 15 seconds 664 msec
