                         Program Version 4.1.2  - RELEASE  -
|  1> #Run DFT-D3 single point of the dimer
|  2> ! wB97X-D3 def2-TZVP TIGHTSCF  CHELPG PAL8
|  3>
|  4> %base "21_charges"
|  5>
|  6> %scf
|  7> MaxIter 1000
|  8> end
|  9> %output
| 10>   Print[ P_Mayer ] 1
| 11>   Print[ P_NatPop ] 1
| 12>   Print[ P_Hirshfeld ] 1
| 13>   Print[ P_Mulliken ] 1
| 14>   Print [ P_Loewdin ] 1
| 15> end
| 16>
| 17> * xyz 0 1
| 18>   C                      -8.781960            -9.884936            -9.305959
| 19>   O                      -9.052996            -8.527443            -9.170358
| 20>   H                      -8.982329            -8.136307            -10.047805
| 21>   H                      -8.691843            -10.104231           -10.378572
| 22>   H                      -7.851427            -10.249795           -8.954686
| 23>   H                      -9.573757            -10.486095           -8.844771
| 24> *
| 25>
| 26>                          ****END OF INPUT****

CARTESIAN COORDINATES (ANGSTROEM)
---------------------------------
  C     -8.781960   -9.884936   -9.305959
  O     -9.052996   -8.527443   -9.170358
  H     -8.982329   -8.136307  -10.047805
  H     -8.691843  -10.104231  -10.378572
  H     -7.851427  -10.249795   -8.954686
  H     -9.573757  -10.486095   -8.844771

 Total Charge           Charge          ....    0
 Multiplicity           Mult            ....    1
 Number of Electrons    NEL             ....   18
 Basis Dimension        Dim             ....   86

ORBITAL ENERGIES
----------------

  NO   OCC          E(Eh)            E(eV)
   0   2.0000     -19.230740      -523.2950
   1   2.0000     -10.308453      -280.5073
   2   2.0000      -1.144062       -31.1315
   3   2.0000      -0.796789       -21.6817
   4   2.0000      -0.619729       -16.8637
   5   2.0000      -0.541184       -14.7264
   6   2.0000      -0.536080       -14.5875
   7   2.0000      -0.428781       -11.6677
   8   2.0000      -0.373427       -10.1615
   9   0.0000       0.110234         2.9996
  10   0.0000       0.156689         4.2637
  11   0.0000       0.200332         5.4513
  12   0.0000       0.215834         5.8731
  13   0.0000       0.237438         6.4610

MULLIKEN ATOMIC CHARGES
-----------------------
   0 C :   -0.154344
   1 O :   -0.466986
   2 H :    0.321253
   3 H :    0.091463
   4 H :    0.098938
   5 H :    0.109676
Sum of atomic charges:   -0.0000000

LOEWDIN ATOMIC CHARGES
----------------------
   0 C :   -0.401326
   1 O :   -0.062284
   2 H :    0.175909
   3 H :    0.097718
   4 H :    0.087293
   5 H :    0.102690

  Mayer bond orders larger than 0.1
B(  0-C ,  1-O ) :   1.0210 B(  0-C ,  3-H ) :   0.9975 B(  0-C ,  4-H ) :   0.9683
B(  0-C ,  5-H ) :   0.9780 B(  1-O ,  2-H ) :   0.8982

Dispersion correction           -0.000234859
FINAL SINGLE POINT ENERGY      -115.730697389053

DIPOLE MOMENT
-------------
                                X             Y             Z
Electronic contribution:     -0.36584       1.80733       0.43765
Nuclear contribution   :      0.52920      -2.07186      -1.07438
                        -----------------------------------------
Total Dipole Moment    :      0.16336      -0.26453      -0.63672
                        -----------------------------------------
Magnitude (a.u.)       :      0.70858
Magnitude (Debye)      :      1.80106

Rotational constants in cm-1:     4.420146     0.855890     0.817455
Rotational constants in MHz : 132512.631251 25658.924612 24506.692290

                             ****ORCA TERMINATED NORMALLY****
TOTAL RUN TIME: 0 days 0 hours 0 minutes 40 seconds 94 msec
