                         Program Version 4.1.2  - RELEASE  -
|  1> #Run DFT-D3 single point of the dimer
|  2> ! wB97X-D3 def2-TZVP TIGHTSCF CHELPG PMODEL PAL8
|  3>
|  4> %base "13-41_DFT_AB"
|  5>
|  6> %scf
|  7> MaxIter 1000
|  8> end
|  9>
| 10> * xyz 0 1
| 11>   C                      2.238468             -1.442492            -1.376394
| 12>   O                      1.121689             -1.733540            -0.514272
| 13>   H                      1.431541             -2.499082            -0.058163
| 14>   H                      3.190386             -1.760322            -0.835746
| 15>   H                      2.025457             -1.974779            -2.354060
| 16>   H                      2.293692             -0.377440            -1.575006
| 17>   C                      6.434356             -0.699909            0.170540
| 18>   O                      5.365112             -0.900718            -0.728874
| 19>   H                      5.747872             -1.539752            -1.360051
| 20>   H                      7.251423             -0.122090            -0.272129
| 21>   H                      6.045687             -0.224587            1.058624
| 22>   H                      6.784626             -1.682548            0.522621
| 23> *
| 24>
| 25> #Run DFT-D3 single point of the molecule with dimer basis set
| 26> $new_job
| 27> %base "13-41_DFT_A"
| 28> ! wB97X-D3 def2-TZVP TIGHTSCF CHELPG PMODEL
| 29>
| 30> %scf
| 31> MaxIter 1000
| 32> end
| 33>
| 34> * xyz 0 1
| 35>   C                      2.238468             -1.442492            -1.376394
| 36>   O                      1.121689             -1.733540            -0.514272
| 37>   H                      1.431541             -2.499082            -0.058163
| 38>   H                      3.190386             -1.760322            -0.835746
| 39>   H                      2.025457             -1.974779            -2.354060
| 40>   H                      2.293692             -0.377440            -1.575006
| 41>   C                    : 6.434356             -0.699909            0.170540
| 42>   O                    : 5.365112             -0.900718            -0.728874
| 43>   H                    : 5.747872             -1.539752            -1.360051
| 44>   H                    : 7.251423             -0.122090            -0.272129
| 45>   H                    : 6.045687             -0.224587            1.058624
| 46>   H                    : 6.784626             -1.682548            0.522621
| 47> *
| 48>
| 49> #Run DFT-D3 single point of the particle with dimer basis set
| 50> $new_job
| 51> %base "13-41_DFT_B"
| 52> ! wB97X-D3 def2-TZVP TIGHTSCF CHELPG PMODEL
| 53>
| 54> %scf
| 55> MaxIter 1000
| 56> end
| 57>
| 58> * xyz 0 1
| 59>   C                    : 2.238468             -1.442492            -1.376394
| 60>   O                    : 1.121689             -1.733540            -0.514272
| 61>   H                    : 1.431541             -2.499082            -0.058163
| 62>   H                    : 3.190386             -1.760322            -0.835746
| 63>   H                    : 2.025457             -1.974779            -2.354060
| 64>   H                    : 2.293692             -0.377440            -1.575006
| 65>   C                      6.434356             -0.699909            0.170540
| 66>   O                      5.365112             -0.900718            -0.728874
| 67>   H                      5.747872             -1.539752            -1.360051
| 68>   H                      7.251423             -0.122090            -0.272129
| 69>   H                      6.045687             -0.224587            1.058624
| 70>   H                      6.784626             -1.682548            0.522621
| 71> *
| 72>
| 73>                          ****END OF INPUT****
 Total Charge           Charge          ....    0
 Multiplicity           Mult            ....    1
 Number of Electrons    NEL             ....   36
Dispersion correction           -0.001404268
FINAL SINGLE POINT ENERGY      -231.466863641510
Dispersion correction           -0.000233270
FINAL SINGLE POINT ENERGY      -115.730711948941

CARTESIAN COORDINATES (ANGSTROEM)
---------------------------------
  C      2.238468   -1.442492   -1.376394
  O      1.121689   -1.733540   -0.514272
  H      1.431541   -2.499082   -0.058163
  H      3.190386   -1.760322   -0.835746
  H      2.025457   -1.974779   -2.354060
  H      2.293692   -0.377440   -1.575006
  C      6.434356   -0.699909    0.170540
  O      5.365112   -0.900718   -0.728874
  H      5.747872   -1.539752   -1.360051
  H      7.251423   -0.122090   -0.272129
  H      6.045687   -0.224587    1.058624
  H      6.784626   -1.682548    0.522621

 Multiplicity           Mult            ....    1
 Number of Electrons    NEL             ....   18
 Basis Dimension        Dim             ....  172

ORBITAL ENERGIES
----------------

  NO   OCC          E(Eh)            E(eV)
   0   2.0000     -19.232858      -523.3527
   1   2.0000     -10.311984      -280.6033
   2   2.0000      -1.138248       -30.9733
   3   2.0000      -0.791576       -21.5399
   4   2.0000      -0.607280       -16.5249
   5   2.0000      -0.549406       -14.9501
   6   2.0000      -0.525088       -14.2884
   7   2.0000      -0.437076       -11.8935
   8   2.0000      -0.374872       -10.2008
   9   0.0000       0.096956         2.6383
  10   0.0000       0.122100         3.3225
  11   0.0000       0.156684         4.2636
  12   0.0000       0.184287         5.0147
  13   0.0000       0.196203         5.3390

MULLIKEN ATOMIC CHARGES
-----------------------
   0 C :    0.008015
   1 O :   -0.000202
   2 H :   -0.000029
   3 H :   -0.017461
   4 H :   -0.000521
   5 H :   -0.002343
   6 C :   -0.162796
   7 O :   -0.454328
   8 H :    0.314621
   9 H :    0.103112
  10 H :    0.117684
  11 H :    0.094247
Sum of atomic charges:    0.0000000

LOEWDIN ATOMIC CHARGES
----------------------
   0 C :   -0.010188
   1 O :   -0.000043
   2 H :   -0.000013
   3 H :   -0.018370
   4 H :   -0.000086
   5 H :   -0.001285
   6 C :   -0.389557
   7 O :   -0.059857
   8 H :    0.182780
   9 H :    0.095552
  10 H :    0.105266
  11 H :    0.095801

  Mayer bond orders larger than 0.1
B(  6-C ,  7-O ) :   0.9971 B(  6-C ,  9-H ) :   0.9673 B(  6-C , 10-H ) :   0.9777
B(  6-C , 11-H ) :   0.9842 B(  7-O ,  8-H ) :   0.8988

Dispersion correction           -0.000217383
FINAL SINGLE POINT ENERGY      -115.735166959728

DIPOLE MOMENT
-------------
                                X             Y             Z
Electronic contribution:     -1.42118      -0.05872      -1.09827
Nuclear contribution   :      2.07117      -0.25581       1.07775
                        -----------------------------------------
Total Dipole Moment    :      0.64998      -0.31453      -0.02052
                        -----------------------------------------
Magnitude (a.u.)       :      0.72238
Magnitude (Debye)      :      1.83614

Rotational constants in cm-1:     4.180320     0.842694     0.815318
Rotational constants in MHz : 125322.845311 25263.328122 24442.608645

                             ****ORCA TERMINATED NORMALLY****
TOTAL RUN TIME: 0 days 0 hours 1 minutes 10 seconds 124 msec
