                         Program Version 4.1.2  - RELEASE  -
|  1> #Run DFT geometry optimization
|  2> ! wB97X-D3 def2-TZVP TIGHTSCF Grid5 FinalGrid6 Opt CHELPG PAL4
|  3>
|  4> %base "1_geo_opt"
|  5> %geom MaxIter 500
|  6> end
|  7>
|  8> %geom
|  9>   Constraints
| 10>     { A 5 0 4 C }
| 11>   end
| 12> end
| 13>
| 14>
| 15> * xyz 0 1
| 16>   C                    3.011308             -1.180897            0.598492
| 17>   O                    4.394673             -1.128050            0.874308
| 18>   H                    4.772196             -0.379022            0.412493
| 19>   H                    2.806434             -1.318965            -0.469350
| 20>   H                    2.614017             -2.042547            1.134010
| 21>   H                    2.486843             -0.282349            0.943271
| 22> *
| 23>
| 24>                          ****END OF INPUT****
 Total Charge           Charge          ....    0
 Multiplicity           Mult            ....    1
 Number of Electrons    NEL             ....   18
Dispersion correction           -0.000238814
FINAL SINGLE POINT ENERGY      -115.738046990779
Dispersion correction            ... done
                    ***********************HURRAY********************

CARTESIAN COORDINATES (ANGSTROEM)
---------------------------------
  C      3.011226   -1.180911    0.598720
  O      4.394823   -1.127968    0.874244
  H      4.772344   -0.379024    0.412310
  H      2.806652   -1.318914   -0.469325
  H      2.613757   -2.042525    1.133958
  H      2.486669   -0.282488    0.943316

 Multiplicity           Mult            ....    1
 Number of Electrons    NEL             ....   18
 Basis Dimension        Dim             ....   86

ORBITAL ENERGIES
----------------

  NO   OCC          E(Eh)            E(eV)
   0   2.0000     -19.227990      -523.2202
   1   2.0000     -10.315123      -280.6888
   2   2.0000      -1.136712       -30.9315
   3   2.0000      -0.795305       -21.6414
   4   2.0000      -0.611613       -16.6428
   5   2.0000      -0.541658       -14.7393
   6   2.0000      -0.526303       -14.3214
   7   2.0000      -0.433929       -11.8078
   8   2.0000      -0.373499       -10.1634
   9   0.0000       0.116593         3.1727
  10   0.0000       0.156775         4.2661
  11   0.0000       0.202514         5.5107
  12   0.0000       0.205056         5.5799
  13   0.0000       0.226419         6.1612

MULLIKEN ATOMIC CHARGES
-----------------------
   0 C :   -0.150693
   1 O :   -0.477776
   2 H :    0.312934
   3 H :    0.098496
   4 H :    0.118334
   5 H :    0.098705
Sum of atomic charges:   -0.0000000

LOEWDIN ATOMIC CHARGES
----------------------
   0 C :   -0.384852
   1 O :   -0.076335
   2 H :    0.165707
   3 H :    0.093377
   4 H :    0.108706
   5 H :    0.093396

  Mayer bond orders larger than 0.1
B(  0-C ,  1-O ) :   0.9984 B(  0-C ,  3-H ) :   0.9755 B(  0-C ,  4-H ) :   0.9749
B(  0-C ,  5-H ) :   0.9756 B(  1-O ,  2-H ) :   0.9002

Dispersion correction           -0.000238885
FINAL SINGLE POINT ENERGY      -115.738047183415

DIPOLE MOMENT
-------------
                                X             Y             Z
Electronic contribution:      1.75235      -0.02806       0.42302
Nuclear contribution   :     -2.06222       0.47552      -0.82129
                        -----------------------------------------
Total Dipole Moment    :     -0.30987       0.44745      -0.39827
                        -----------------------------------------
Magnitude (a.u.)       :      0.67442
Magnitude (Debye)      :      1.71425

Rotational constants in cm-1:     4.290009     0.834026     0.804874
Rotational constants in MHz : 128611.238122 25003.464527 24129.508372

                             ****ORCA TERMINATED NORMALLY****
TOTAL RUN TIME: 0 days 0 hours 0 minutes 35 seconds 396 msec
