                         Program Version 4.1.2  - RELEASE  -
|  1> #Run DFT-D3 single point of the dimer
|  2> ! wB97X-D3 def2-TZVP TIGHTSCF CHELPG PMODEL PAL8
|  3>
|  4> %base "14-204_DFT_AB"
|  5>
|  6> %scf
|  7> MaxIter 1000
|  8> end
|  9>
| 10> * xyz 0 1
| 11>   C                      5.780890             -0.100329            3.149870
| 12>   O                      5.712710             1.233009             3.418751
| 13>   H                      5.479120             1.654514             2.574819
| 14>   H                      5.821208             -0.761810            4.007093
| 15>   H                      4.899948             -0.335933            2.576816
| 16>   H                      6.631527             -0.432160            2.521753
| 17>   C                      7.261605             1.466350             6.284958
| 18>   O                      7.850771             2.055714             5.114323
| 19>   H                      7.089059             2.000772             4.509948
| 20>   H                      7.525624             0.434558             6.407042
| 21>   H                      7.690589             1.843197             7.214637
| 22>   H                      6.215779             1.506018             6.260861
| 23> *
| 24>
| 25> #Run DFT-D3 single point of the molecule with dimer basis set
| 26> $new_job
| 27> %base "14-204_DFT_A"
| 28> ! wB97X-D3 def2-TZVP TIGHTSCF CHELPG PMODEL
| 29>
| 30> %scf
| 31> MaxIter 1000
| 32> end
| 33>
| 34> * xyz 0 1
| 35>   C                      5.780890             -0.100329            3.149870
| 36>   O                      5.712710             1.233009             3.418751
| 37>   H                      5.479120             1.654514             2.574819
| 38>   H                      5.821208             -0.761810            4.007093
| 39>   H                      4.899948             -0.335933            2.576816
| 40>   H                      6.631527             -0.432160            2.521753
| 41>   C                    : 7.261605             1.466350             6.284958
| 42>   O                    : 7.850771             2.055714             5.114323
| 43>   H                    : 7.089059             2.000772             4.509948
| 44>   H                    : 7.525624             0.434558             6.407042
| 45>   H                    : 7.690589             1.843197             7.214637
| 46>   H                    : 6.215779             1.506018             6.260861
| 47> *
| 48>
| 49> #Run DFT-D3 single point of the particle with dimer basis set
| 50> $new_job
| 51> %base "14-204_DFT_B"
| 52> ! wB97X-D3 def2-TZVP TIGHTSCF CHELPG PMODEL
| 53>
| 54> %scf
| 55> MaxIter 1000
| 56> end
| 57>
| 58> * xyz 0 1
| 59>   C                    : 5.780890             -0.100329            3.149870
| 60>   O                    : 5.712710             1.233009             3.418751
| 61>   H                    : 5.479120             1.654514             2.574819
| 62>   H                    : 5.821208             -0.761810            4.007093
| 63>   H                    : 4.899948             -0.335933            2.576816
| 64>   H                    : 6.631527             -0.432160            2.521753
| 65>   C                      7.261605             1.466350             6.284958
| 66>   O                      7.850771             2.055714             5.114323
| 67>   H                      7.089059             2.000772             4.509948
| 68>   H                      7.525624             0.434558             6.407042
| 69>   H                      7.690589             1.843197             7.214637
| 70>   H                      6.215779             1.506018             6.260861
| 71> *
| 72>
| 73>                          ****END OF INPUT****
 Total Charge           Charge          ....    0
 Multiplicity           Mult            ....    1
 Number of Electrons    NEL             ....   36
Dispersion correction           -0.002094614
FINAL SINGLE POINT ENERGY      -231.468784230567
Dispersion correction           -0.000214011
FINAL SINGLE POINT ENERGY      -115.730885720690

CARTESIAN COORDINATES (ANGSTROEM)
---------------------------------
  C      5.780890   -0.100329    3.149870
  O      5.712710    1.233009    3.418751
  H      5.479120    1.654514    2.574819
  H      5.821208   -0.761810    4.007093
  H      4.899948   -0.335933    2.576816
  H      6.631527   -0.432160    2.521753
  C      7.261605    1.466350    6.284958
  O      7.850771    2.055714    5.114323
  H      7.089059    2.000772    4.509948
  H      7.525624    0.434558    6.407042
  H      7.690589    1.843197    7.214637
  H      6.215779    1.506018    6.260861

 Multiplicity           Mult            ....    1
 Number of Electrons    NEL             ....   18
 Basis Dimension        Dim             ....  172

ORBITAL ENERGIES
----------------

  NO   OCC          E(Eh)            E(eV)
   0   2.0000     -19.236248      -523.4449
   1   2.0000     -10.307389      -280.4783
   2   2.0000      -1.133449       -30.8427
   3   2.0000      -0.800763       -21.7899
   4   2.0000      -0.611219       -16.6321
   5   2.0000      -0.539563       -14.6822
   6   2.0000      -0.523253       -14.2384
   7   2.0000      -0.452177       -12.3044
   8   2.0000      -0.372367       -10.1326
   9   0.0000       0.069122         1.8809
  10   0.0000       0.135020         3.6741
  11   0.0000       0.140575         3.8252
  12   0.0000       0.172555         4.6954
  13   0.0000       0.192080         5.2268

MULLIKEN ATOMIC CHARGES
-----------------------
   0 C :   -0.005182
   1 O :   -0.004469
   2 H :   -0.000523
   3 H :    0.000131
   4 H :   -0.000209
   5 H :    0.000591
   6 C :   -0.183269
   7 O :   -0.457602
   8 H :    0.314660
   9 H :    0.104371
  10 H :    0.117376
  11 H :    0.114126
Sum of atomic charges:    0.0000000

LOEWDIN ATOMIC CHARGES
----------------------
   0 C :   -0.006760
   1 O :   -0.021246
   2 H :   -0.001286
   3 H :   -0.000648
   4 H :   -0.000176
   5 H :   -0.000345
   6 C :   -0.368481
   7 O :   -0.080877
   8 H :    0.189949
   9 H :    0.094565
  10 H :    0.106808
  11 H :    0.088497

  Mayer bond orders larger than 0.1
B(  6-C ,  7-O ) :   0.9986 B(  6-C ,  9-H ) :   0.9771 B(  6-C , 10-H ) :   0.9798
B(  6-C , 11-H ) :   0.9841 B(  7-O ,  8-H ) :   0.9088

Dispersion correction           -0.000236039
FINAL SINGLE POINT ENERGY      -115.728734516637

DIPOLE MOMENT
-------------
                                X             Y             Z
Electronic contribution:      0.83518       0.88747      -1.46002
Nuclear contribution   :     -1.53022      -1.16625       1.57227
                        -----------------------------------------
Total Dipole Moment    :     -0.69505      -0.27877       0.11225
                        -----------------------------------------
Magnitude (a.u.)       :      0.75724
Magnitude (Debye)      :      1.92474

Rotational constants in cm-1:     4.441889     0.823345     0.779398
Rotational constants in MHz : 133164.480716 24683.258856 23365.761631

                             ****ORCA TERMINATED NORMALLY****
TOTAL RUN TIME: 0 days 0 hours 1 minutes 9 seconds 831 msec
