                         Program Version 4.1.2  - RELEASE  -
|  1> #Run DFT-D3 single point of the dimer
|  2> ! wB97X-D3 def2-TZVP TIGHTSCF CHELPG PMODEL PAL8
|  3>
|  4> %base "8-179_DFT_AB"
|  5>
|  6> %scf
|  7> MaxIter 1000
|  8> end
|  9>
| 10> * xyz 0 1
| 11>   C                      11.272091            -7.066084            6.267247
| 12>   O                      10.898826            -8.066207            7.160887
| 13>   H                      10.641213            -8.853591            6.664722
| 14>   H                      12.077260            -7.458743            5.579053
| 15>   H                      10.399957            -6.648643            5.725783
| 16>   H                      11.619419            -6.256369            6.893720
| 17>   C                      11.006891            -11.305277           5.530329
| 18>   O                      10.891609            -10.011666           4.896701
| 19>   H                      10.982195            -10.160773           3.978615
| 20>   H                      12.075886            -11.545045           5.408284
| 21>   H                      10.764064            -11.395288           6.545595
| 22>   H                      10.450001            -12.165568           5.031934
| 23> *
| 24>
| 25> #Run DFT-D3 single point of the molecule with dimer basis set
| 26> $new_job
| 27> %base "8-179_DFT_A"
| 28> ! wB97X-D3 def2-TZVP TIGHTSCF CHELPG PMODEL
| 29>
| 30> %scf
| 31> MaxIter 1000
| 32> end
| 33>
| 34> * xyz 0 1
| 35>   C                      11.272091            -7.066084            6.267247
| 36>   O                      10.898826            -8.066207            7.160887
| 37>   H                      10.641213            -8.853591            6.664722
| 38>   H                      12.077260            -7.458743            5.579053
| 39>   H                      10.399957            -6.648643            5.725783
| 40>   H                      11.619419            -6.256369            6.893720
| 41>   C                    : 11.006891            -11.305277           5.530329
| 42>   O                    : 10.891609            -10.011666           4.896701
| 43>   H                    : 10.982195            -10.160773           3.978615
| 44>   H                    : 12.075886            -11.545045           5.408284
| 45>   H                    : 10.764064            -11.395288           6.545595
| 46>   H                    : 10.450001            -12.165568           5.031934
| 47> *
| 48>
| 49> #Run DFT-D3 single point of the particle with dimer basis set
| 50> $new_job
| 51> %base "8-179_DFT_B"
| 52> ! wB97X-D3 def2-TZVP TIGHTSCF CHELPG PMODEL
| 53>
| 54> %scf
| 55> MaxIter 1000
| 56> end
| 57>
| 58> * xyz 0 1
| 59>   C                    : 11.272091            -7.066084            6.267247
| 60>   O                    : 10.898826            -8.066207            7.160887
| 61>   H                    : 10.641213            -8.853591            6.664722
| 62>   H                    : 12.077260            -7.458743            5.579053
| 63>   H                    : 10.399957            -6.648643            5.725783
| 64>   H                    : 11.619419            -6.256369            6.893720
| 65>   C                      11.006891            -11.305277           5.530329
| 66>   O                      10.891609            -10.011666           4.896701
| 67>   H                      10.982195            -10.160773           3.978615
| 68>   H                      12.075886            -11.545045           5.408284
| 69>   H                      10.764064            -11.395288           6.545595
| 70>   H                      10.450001            -12.165568           5.031934
| 71> *
| 72>
| 73>                          ****END OF INPUT****
 Total Charge           Charge          ....    0
 Multiplicity           Mult            ....    1
 Number of Electrons    NEL             ....   36
Dispersion correction           -0.001910949
FINAL SINGLE POINT ENERGY      -231.468258505769
Dispersion correction           -0.000231616
FINAL SINGLE POINT ENERGY      -115.735239785157

CARTESIAN COORDINATES (ANGSTROEM)
---------------------------------
  C     11.272091   -7.066084    6.267247
  O     10.898826   -8.066207    7.160887
  H     10.641213   -8.853591    6.664722
  H     12.077260   -7.458743    5.579053
  H     10.399957   -6.648643    5.725783
  H     11.619419   -6.256369    6.893720
  C     11.006891  -11.305277    5.530329
  O     10.891609  -10.011666    4.896701
  H     10.982195  -10.160773    3.978615
  H     12.075886  -11.545045    5.408284
  H     10.764064  -11.395288    6.545595
  H     10.450001  -12.165568    5.031934

 Multiplicity           Mult            ....    1
 Number of Electrons    NEL             ....   18
 Basis Dimension        Dim             ....  172

ORBITAL ENERGIES
----------------

  NO   OCC          E(Eh)            E(eV)
   0   2.0000     -19.230820      -523.2972
   1   2.0000     -10.317930      -280.7651
   2   2.0000      -1.135180       -30.8898
   3   2.0000      -0.800647       -21.7867
   4   2.0000      -0.607450       -16.5296
   5   2.0000      -0.544986       -14.8298
   6   2.0000      -0.524682       -14.2773
   7   2.0000      -0.438625       -11.9356
   8   2.0000      -0.372546       -10.1375
   9   0.0000       0.101735         2.7683
  10   0.0000       0.128143         3.4870
  11   0.0000       0.149142         4.0583
  12   0.0000       0.184234         5.0133
  13   0.0000       0.195641         5.3237

MULLIKEN ATOMIC CHARGES
-----------------------
   0 C :    0.008125
   1 O :    0.000084
   2 H :   -0.007072
   3 H :   -0.008011
   4 H :   -0.001666
   5 H :   -0.000359
   6 C :   -0.184217
   7 O :   -0.460638
   8 H :    0.308979
   9 H :    0.108806
  10 H :    0.134272
  11 H :    0.101697
Sum of atomic charges:   -0.0000000

LOEWDIN ATOMIC CHARGES
----------------------
   0 C :   -0.009803
   1 O :   -0.002737
   2 H :   -0.019491
   3 H :   -0.004655
   4 H :   -0.000541
   5 H :   -0.000105
   6 C :   -0.360259
   7 O :   -0.057147
   8 H :    0.151941
   9 H :    0.100892
  10 H :    0.097423
  11 H :    0.104481

  Mayer bond orders larger than 0.1
B(  6-C ,  7-O ) :   0.9821 B(  6-C ,  9-H ) :   0.9876 B(  6-C , 10-H ) :   0.9721
B(  6-C , 11-H ) :   0.9671 B(  7-O ,  8-H ) :   0.9043

Dispersion correction           -0.000252058
FINAL SINGLE POINT ENERGY      -115.726924220341

DIPOLE MOMENT
-------------
                                X             Y             Z
Electronic contribution:     -0.31015       1.81309      -0.54480
Nuclear contribution   :      0.41563      -2.45171       0.23434
                        -----------------------------------------
Total Dipole Moment    :      0.10548      -0.63862      -0.31046
                        -----------------------------------------
Magnitude (a.u.)       :      0.71787
Magnitude (Debye)      :      1.82469

Rotational constants in cm-1:     4.432243     0.795886     0.771214
Rotational constants in MHz : 132875.290319 23860.050427 23120.402170

                             ****ORCA TERMINATED NORMALLY****
TOTAL RUN TIME: 0 days 0 hours 0 minutes 44 seconds 807 msec
