                         Program Version 4.1.2  - RELEASE  -
|  1> #Run DFT-D3 single point of the dimer
|  2> ! wB97X-D3 def2-TZVP TIGHTSCF CHELPG PMODEL PAL8
|  3>
|  4> %base "4-62_DFT_AB"
|  5>
|  6> %scf
|  7> MaxIter 1000
|  8> end
|  9>
| 10> * xyz 0 1
| 11>   C                      -10.731025           2.823541             -1.194444
| 12>   O                      -10.503371           3.750135             -0.081358
| 13>   H                      -9.717192            3.611297             0.489731
| 14>   H                      -10.037854           3.038673             -2.059465
| 15>   H                      -10.587128           1.762189             -0.946121
| 16>   H                      -11.729911           2.863897             -1.670803
| 17>   C                      -10.694555           6.903999             1.611841
| 18>   O                      -11.483823           6.538896             2.782815
| 19>   H                      -12.041855           7.289428             2.880631
| 20>   H                      -9.677858            7.194019             1.840411
| 21>   H                      -10.593533           6.107070             0.841501
| 22>   H                      -11.155392           7.777696             1.091477
| 23> *
| 24>
| 25> #Run DFT-D3 single point of the molecule with dimer basis set
| 26> $new_job
| 27> %base "4-62_DFT_A"
| 28> ! wB97X-D3 def2-TZVP TIGHTSCF CHELPG PMODEL
| 29>
| 30> %scf
| 31> MaxIter 1000
| 32> end
| 33>
| 34> * xyz 0 1
| 35>   C                      -10.731025           2.823541             -1.194444
| 36>   O                      -10.503371           3.750135             -0.081358
| 37>   H                      -9.717192            3.611297             0.489731
| 38>   H                      -10.037854           3.038673             -2.059465
| 39>   H                      -10.587128           1.762189             -0.946121
| 40>   H                      -11.729911           2.863897             -1.670803
| 41>   C                    : -10.694555           6.903999             1.611841
| 42>   O                    : -11.483823           6.538896             2.782815
| 43>   H                    : -12.041855           7.289428             2.880631
| 44>   H                    : -9.677858            7.194019             1.840411
| 45>   H                    : -10.593533           6.107070             0.841501
| 46>   H                    : -11.155392           7.777696             1.091477
| 47> *
| 48>
| 49> #Run DFT-D3 single point of the particle with dimer basis set
| 50> $new_job
| 51> %base "4-62_DFT_B"
| 52> ! wB97X-D3 def2-TZVP TIGHTSCF CHELPG PMODEL
| 53>
| 54> %scf
| 55> MaxIter 1000
| 56> end
| 57>
| 58> * xyz 0 1
| 59>   C                    : -10.731025           2.823541             -1.194444
| 60>   O                    : -10.503371           3.750135             -0.081358
| 61>   H                    : -9.717192            3.611297             0.489731
| 62>   H                    : -10.037854           3.038673             -2.059465
| 63>   H                    : -10.587128           1.762189             -0.946121
| 64>   H                    : -11.729911           2.863897             -1.670803
| 65>   C                      -10.694555           6.903999             1.611841
| 66>   O                      -11.483823           6.538896             2.782815
| 67>   H                      -12.041855           7.289428             2.880631
| 68>   H                      -9.677858            7.194019             1.840411
| 69>   H                      -10.593533           6.107070             0.841501
| 70>   H                      -11.155392           7.777696             1.091477
| 71> *
| 72>
| 73>                          ****END OF INPUT****
 Total Charge           Charge          ....    0
 Multiplicity           Mult            ....    1
 Number of Electrons    NEL             ....   36
Dispersion correction           -0.001338700
FINAL SINGLE POINT ENERGY      -231.458841169236
Dispersion correction           -0.000319201
FINAL SINGLE POINT ENERGY      -115.726526409082

CARTESIAN COORDINATES (ANGSTROEM)
---------------------------------
  C    -10.731025    2.823541   -1.194444
  O    -10.503371    3.750135   -0.081358
  H     -9.717192    3.611297    0.489731
  H    -10.037854    3.038673   -2.059465
  H    -10.587128    1.762189   -0.946121
  H    -11.729911    2.863897   -1.670803
  C    -10.694555    6.903999    1.611841
  O    -11.483823    6.538896    2.782815
  H    -12.041855    7.289428    2.880631
  H     -9.677858    7.194019    1.840411
  H    -10.593533    6.107070    0.841501
  H    -11.155392    7.777696    1.091477

 Multiplicity           Mult            ....    1
 Number of Electrons    NEL             ....   18
 Basis Dimension        Dim             ....  172

ORBITAL ENERGIES
----------------

  NO   OCC          E(Eh)            E(eV)
   0   2.0000     -19.233236      -523.3629
   1   2.0000     -10.321700      -280.8677
   2   2.0000      -1.132956       -30.8293
   3   2.0000      -0.796348       -21.6697
   4   2.0000      -0.605720       -16.4825
   5   2.0000      -0.533403       -14.5146
   6   2.0000      -0.526014       -14.3136
   7   2.0000      -0.441271       -12.0076
   8   2.0000      -0.378641       -10.3033
   9   0.0000       0.085763         2.3337
  10   0.0000       0.114614         3.1188
  11   0.0000       0.146203         3.9784
  12   0.0000       0.168000         4.5715
  13   0.0000       0.188717         5.1352

MULLIKEN ATOMIC CHARGES
-----------------------
   0 C :    0.000319
   1 O :    0.001880
   2 H :    0.000070
   3 H :   -0.000031
   4 H :   -0.000017
   5 H :   -0.000020
   6 C :   -0.180854
   7 O :   -0.459510
   8 H :    0.313201
   9 H :    0.111640
  10 H :    0.107743
  11 H :    0.105578
Sum of atomic charges:    0.0000000

LOEWDIN ATOMIC CHARGES
----------------------
   0 C :   -0.000401
   1 O :   -0.005097
   2 H :   -0.001567
   3 H :   -0.000014
   4 H :   -0.000012
   5 H :   -0.000015
   6 C :   -0.360545
   7 O :   -0.093869
   8 H :    0.156571
   9 H :    0.094694
  10 H :    0.108340
  11 H :    0.101915

  Mayer bond orders larger than 0.1
B(  6-C ,  7-O ) :   1.0172 B(  6-C ,  9-H ) :   0.9753 B(  6-C , 10-H ) :   0.9720
B(  6-C , 11-H ) :   0.9880 B(  7-O ,  8-H ) :   0.9076

Dispersion correction           -0.000267846
FINAL SINGLE POINT ENERGY      -115.731069055428

DIPOLE MOMENT
-------------
                                X             Y             Z
Electronic contribution:     -0.94149      -0.66465       1.59882
Nuclear contribution   :      0.90716       1.29798      -2.01609
                        -----------------------------------------
Total Dipole Moment    :     -0.03433       0.63332      -0.41726
                        -----------------------------------------
Magnitude (a.u.)       :      0.75920
Magnitude (Debye)      :      1.92974

Rotational constants in cm-1:     4.328476     0.787836     0.757150
Rotational constants in MHz : 129764.445269 23618.724769 22698.783434

                             ****ORCA TERMINATED NORMALLY****
TOTAL RUN TIME: 0 days 0 hours 1 minutes 36 seconds 886 msec
