                         Program Version 4.1.2  - RELEASE  -
|  1> #Run DFT-D3 single point of the dimer
|  2> ! wB97X-D3 def2-TZVP TIGHTSCF CHELPG PMODEL PAL8
|  3>
|  4> %base "5-119_DFT_AB"
|  5>
|  6> %scf
|  7> MaxIter 1000
|  8> end
|  9>
| 10> * xyz 0 1
| 11>   C                      -9.545944            -1.925808            -2.997380
| 12>   O                      -9.264013            -3.170088            -3.475293
| 13>   H                      -8.769437            -3.667740            -2.835042
| 14>   H                      -8.792932            -1.236500            -3.249073
| 15>   H                      -10.372462           -1.460632            -3.328128
| 16>   H                      -9.761016            -1.989993            -1.908970
| 17>   C                      -10.771748           -2.147596            -6.434548
| 18>   O                      -11.023933           -3.535899            -6.412449
| 19>   H                      -10.411552           -3.910261            -5.800854
| 20>   H                      -11.190893           -1.574947            -7.314012
| 21>   H                      -11.210914           -1.638381            -5.544509
| 22>   H                      -9.661473            -1.957314            -6.485797
| 23> *
| 24>
| 25> #Run DFT-D3 single point of the molecule with dimer basis set
| 26> $new_job
| 27> %base "5-119_DFT_A"
| 28> ! wB97X-D3 def2-TZVP TIGHTSCF CHELPG PMODEL
| 29>
| 30> %scf
| 31> MaxIter 1000
| 32> end
| 33>
| 34> * xyz 0 1
| 35>   C                      -9.545944            -1.925808            -2.997380
| 36>   O                      -9.264013            -3.170088            -3.475293
| 37>   H                      -8.769437            -3.667740            -2.835042
| 38>   H                      -8.792932            -1.236500            -3.249073
| 39>   H                      -10.372462           -1.460632            -3.328128
| 40>   H                      -9.761016            -1.989993            -1.908970
| 41>   C                    : -10.771748           -2.147596            -6.434548
| 42>   O                    : -11.023933           -3.535899            -6.412449
| 43>   H                    : -10.411552           -3.910261            -5.800854
| 44>   H                    : -11.190893           -1.574947            -7.314012
| 45>   H                    : -11.210914           -1.638381            -5.544509
| 46>   H                    : -9.661473            -1.957314            -6.485797
| 47> *
| 48>
| 49> #Run DFT-D3 single point of the particle with dimer basis set
| 50> $new_job
| 51> %base "5-119_DFT_B"
| 52> ! wB97X-D3 def2-TZVP TIGHTSCF CHELPG PMODEL
| 53>
| 54> %scf
| 55> MaxIter 1000
| 56> end
| 57>
| 58> * xyz 0 1
| 59>   C                    : -9.545944            -1.925808            -2.997380
| 60>   O                    : -9.264013            -3.170088            -3.475293
| 61>   H                    : -8.769437            -3.667740            -2.835042
| 62>   H                    : -8.792932            -1.236500            -3.249073
| 63>   H                    : -10.372462           -1.460632            -3.328128
| 64>   H                    : -9.761016            -1.989993            -1.908970
| 65>   C                      -10.771748           -2.147596            -6.434548
| 66>   O                      -11.023933           -3.535899            -6.412449
| 67>   H                      -10.411552           -3.910261            -5.800854
| 68>   H                      -11.190893           -1.574947            -7.314012
| 69>   H                      -11.210914           -1.638381            -5.544509
| 70>   H                      -9.661473            -1.957314            -6.485797
| 71> *
| 72>
| 73>                          ****END OF INPUT****
 Total Charge           Charge          ....    0
 Multiplicity           Mult            ....    1
 Number of Electrons    NEL             ....   36
Dispersion correction           -0.002126205
FINAL SINGLE POINT ENERGY      -231.460091863426
Dispersion correction           -0.000216202
FINAL SINGLE POINT ENERGY      -115.722429281671

CARTESIAN COORDINATES (ANGSTROEM)
---------------------------------
  C     -9.545944   -1.925808   -2.997380
  O     -9.264013   -3.170088   -3.475293
  H     -8.769437   -3.667740   -2.835042
  H     -8.792932   -1.236500   -3.249073
  H    -10.372462   -1.460632   -3.328128
  H     -9.761016   -1.989993   -1.908970
  C    -10.771748   -2.147596   -6.434548
  O    -11.023933   -3.535899   -6.412449
  H    -10.411552   -3.910261   -5.800854
  H    -11.190893   -1.574947   -7.314012
  H    -11.210914   -1.638381   -5.544509
  H     -9.661473   -1.957314   -6.485797

 Multiplicity           Mult            ....    1
 Number of Electrons    NEL             ....   18
 Basis Dimension        Dim             ....  172

ORBITAL ENERGIES
----------------

  NO   OCC          E(Eh)            E(eV)
   0   2.0000     -19.231872      -523.3258
   1   2.0000     -10.323464      -280.9157
   2   2.0000      -1.143189       -31.1077
   3   2.0000      -0.790403       -21.5080
   4   2.0000      -0.611218       -16.6321
   5   2.0000      -0.540960       -14.7203
   6   2.0000      -0.529035       -14.3958
   7   2.0000      -0.428481       -11.6596
   8   2.0000      -0.375096       -10.2069
   9   0.0000       0.074627         2.0307
  10   0.0000       0.126241         3.4352
  11   0.0000       0.142516         3.8781
  12   0.0000       0.171637         4.6705
  13   0.0000       0.184695         5.0258

MULLIKEN ATOMIC CHARGES
-----------------------
   0 C :    0.000360
   1 O :   -0.000520
   2 H :   -0.000053
   3 H :   -0.000291
   4 H :   -0.001233
   5 H :   -0.000237
   6 C :   -0.184081
   7 O :   -0.460908
   8 H :    0.314446
   9 H :    0.125418
  10 H :    0.104454
  11 H :    0.102645
Sum of atomic charges:   -0.0000000

LOEWDIN ATOMIC CHARGES
----------------------
   0 C :   -0.006724
   1 O :   -0.002902
   2 H :   -0.000139
   3 H :   -0.000314
   4 H :   -0.004572
   5 H :   -0.000034
   6 C :   -0.397752
   7 O :   -0.063639
   8 H :    0.159875
   9 H :    0.113697
  10 H :    0.101054
  11 H :    0.101450

  Mayer bond orders larger than 0.1
B(  6-C ,  7-O ) :   0.9990 B(  6-C ,  9-H ) :   0.9677 B(  6-C , 10-H ) :   0.9741
B(  6-C , 11-H ) :   0.9826 B(  7-O ,  8-H ) :   0.9047

Dispersion correction           -0.000252052
FINAL SINGLE POINT ENERGY      -115.732642230448

DIPOLE MOMENT
-------------
                                X             Y             Z
Electronic contribution:     -0.48611      -1.89094      -0.08156
Nuclear contribution   :      0.97243       2.18903       0.44483
                        -----------------------------------------
Total Dipole Moment    :      0.48632       0.29809       0.36327
                        -----------------------------------------
Magnitude (a.u.)       :      0.67626
Magnitude (Debye)      :      1.71892

Rotational constants in cm-1:     4.225749     0.819764     0.795717
Rotational constants in MHz : 126684.765157 24575.894167 23854.995182

                             ****ORCA TERMINATED NORMALLY****
TOTAL RUN TIME: 0 days 0 hours 1 minutes 5 seconds 1 msec
