                         Program Version 4.1.2  - RELEASE  -
|  1> #Run DFT-D3 single point of the dimer
|  2> ! wB97X-D3 def2-TZVP TIGHTSCF CHELPG PMODEL PAL8
|  3>
|  4> %base "5-164_DFT_AB"
|  5>
|  6> %scf
|  7> MaxIter 1000
|  8> end
|  9>
| 10> * xyz 0 1
| 11>   C                      -5.212664            3.943820             1.077154
| 12>   O                      -4.635611            3.193691             2.150803
| 13>   H                      -4.487130            2.298482             1.890738
| 14>   H                      -5.852676            3.303883             0.476393
| 15>   H                      -5.783701            4.827074             1.361081
| 16>   H                      -4.402067            4.410179             0.431093
| 17>   C                      -1.740965            2.104542             1.445675
| 18>   O                      -1.863457            2.703071             2.726920
| 19>   H                      -2.587182            3.316749             2.689241
| 20>   H                      -2.724843            1.937653             0.989999
| 21>   H                      -1.282786            2.862374             0.775907
| 22>   H                      -1.200960            1.167186             1.446292
| 23> *
| 24>
| 25> #Run DFT-D3 single point of the molecule with dimer basis set
| 26> $new_job
| 27> %base "5-164_DFT_A"
| 28> ! wB97X-D3 def2-TZVP TIGHTSCF CHELPG PMODEL
| 29>
| 30> %scf
| 31> MaxIter 1000
| 32> end
| 33>
| 34> * xyz 0 1
| 35>   C                      -5.212664            3.943820             1.077154
| 36>   O                      -4.635611            3.193691             2.150803
| 37>   H                      -4.487130            2.298482             1.890738
| 38>   H                      -5.852676            3.303883             0.476393
| 39>   H                      -5.783701            4.827074             1.361081
| 40>   H                      -4.402067            4.410179             0.431093
| 41>   C                    : -1.740965            2.104542             1.445675
| 42>   O                    : -1.863457            2.703071             2.726920
| 43>   H                    : -2.587182            3.316749             2.689241
| 44>   H                    : -2.724843            1.937653             0.989999
| 45>   H                    : -1.282786            2.862374             0.775907
| 46>   H                    : -1.200960            1.167186             1.446292
| 47> *
| 48>
| 49> #Run DFT-D3 single point of the particle with dimer basis set
| 50> $new_job
| 51> %base "5-164_DFT_B"
| 52> ! wB97X-D3 def2-TZVP TIGHTSCF CHELPG PMODEL
| 53>
| 54> %scf
| 55> MaxIter 1000
| 56> end
| 57>
| 58> * xyz 0 1
| 59>   C                    : -5.212664            3.943820             1.077154
| 60>   O                    : -4.635611            3.193691             2.150803
| 61>   H                    : -4.487130            2.298482             1.890738
| 62>   H                    : -5.852676            3.303883             0.476393
| 63>   H                    : -5.783701            4.827074             1.361081
| 64>   H                    : -4.402067            4.410179             0.431093
| 65>   C                      -1.740965            2.104542             1.445675
| 66>   O                      -1.863457            2.703071             2.726920
| 67>   H                      -2.587182            3.316749             2.689241
| 68>   H                      -2.724843            1.937653             0.989999
| 69>   H                      -1.282786            2.862374             0.775907
| 70>   H                      -1.200960            1.167186             1.446292
| 71> *
| 72>
| 73>                          ****END OF INPUT****
 Total Charge           Charge          ....    0
 Multiplicity           Mult            ....    1
 Number of Electrons    NEL             ....   36
Dispersion correction           -0.002157290
FINAL SINGLE POINT ENERGY      -231.472043943066
Dispersion correction           -0.000264042
FINAL SINGLE POINT ENERGY      -115.732893671150

CARTESIAN COORDINATES (ANGSTROEM)
---------------------------------
  C     -5.212664    3.943820    1.077154
  O     -4.635611    3.193691    2.150803
  H     -4.487130    2.298482    1.890738
  H     -5.852676    3.303883    0.476393
  H     -5.783701    4.827074    1.361081
  H     -4.402067    4.410179    0.431093
  C     -1.740965    2.104542    1.445675
  O     -1.863457    2.703071    2.726920
  H     -2.587182    3.316749    2.689241
  H     -2.724843    1.937653    0.989999
  H     -1.282786    2.862374    0.775907
  H     -1.200960    1.167186    1.446292

 Multiplicity           Mult            ....    1
 Number of Electrons    NEL             ....   18
 Basis Dimension        Dim             ....  172

ORBITAL ENERGIES
----------------

  NO   OCC          E(Eh)            E(eV)
   0   2.0000     -19.228896      -523.2449
   1   2.0000     -10.315034      -280.6863
   2   2.0000      -1.137019       -30.9399
   3   2.0000      -0.795780       -21.6543
   4   2.0000      -0.612453       -16.6657
   5   2.0000      -0.542489       -14.7619
   6   2.0000      -0.526911       -14.3380
   7   2.0000      -0.437251       -11.8982
   8   2.0000      -0.370267       -10.0755
   9   0.0000       0.071137         1.9357
  10   0.0000       0.136451         3.7130
  11   0.0000       0.149345         4.0639
  12   0.0000       0.162143         4.4121
  13   0.0000       0.197641         5.3781

MULLIKEN ATOMIC CHARGES
-----------------------
   0 C :   -0.000116
   1 O :   -0.007290
   2 H :    0.001257
   3 H :   -0.000360
   4 H :    0.000107
   5 H :    0.000023
   6 C :   -0.176979
   7 O :   -0.467253
   8 H :    0.314385
   9 H :    0.099688
  10 H :    0.107362
  11 H :    0.129176
Sum of atomic charges:   -0.0000000

LOEWDIN ATOMIC CHARGES
----------------------
   0 C :   -0.003826
   1 O :   -0.016254
   2 H :   -0.010033
   3 H :   -0.000099
   4 H :   -0.000031
   5 H :   -0.000443
   6 C :   -0.373009
   7 O :   -0.066813
   8 H :    0.165345
   9 H :    0.099439
  10 H :    0.100166
  11 H :    0.105560

  Mayer bond orders larger than 0.1
B(  6-C ,  7-O ) :   0.9905 B(  6-C ,  9-H ) :   0.9761 B(  6-C , 10-H ) :   0.9853
B(  6-C , 11-H ) :   0.9689 B(  7-O ,  8-H ) :   0.9052

Dispersion correction           -0.000230545
FINAL SINGLE POINT ENERGY      -115.734247166555

DIPOLE MOMENT
-------------
                                X             Y             Z
Electronic contribution:      0.03327       0.54350       1.76090
Nuclear contribution   :     -0.45327      -0.40742      -2.29395
                        -----------------------------------------
Total Dipole Moment    :     -0.42000       0.13608      -0.53305
                        -----------------------------------------
Magnitude (a.u.)       :      0.69214
Magnitude (Debye)      :      1.75928

Rotational constants in cm-1:     4.292090     0.829244     0.796279
Rotational constants in MHz : 128673.625760 24860.115311 23871.855214

                             ****ORCA TERMINATED NORMALLY****
TOTAL RUN TIME: 0 days 0 hours 0 minutes 57 seconds 918 msec
