                         Program Version 4.1.2  - RELEASE  -
|  1> #Run DFT-D3 single point of the dimer
|  2> ! wB97X-D3 def2-TZVP TIGHTSCF CHELPG PMODEL PAL8
|  3>
|  4> %base "18-4_DFT_AB"
|  5>
|  6> %scf
|  7> MaxIter 1000
|  8> end
|  9>
| 10> * xyz 0 1
| 11>   C                      0.886549             0.822237             10.406532
| 12>   O                      -0.359793            0.971877             9.692236
| 13>   H                      -0.550626            0.048280             9.716713
| 14>   H                      1.518922             1.710716             10.116938
| 15>   H                      0.664286             0.723875             11.450918
| 16>   H                      1.397309             -0.146132            10.165140
| 17>   C                      2.523888             4.676657             7.090738
| 18>   O                      2.566897             6.070124             6.773619
| 19>   H                      1.949694             6.599378             7.303895
| 20>   H                      3.367195             4.206097             6.586594
| 21>   H                      2.634672             4.644139             8.164876
| 22>   H                      1.636308             4.135860             6.734283
| 23> *
| 24>
| 25> #Run DFT-D3 single point of the molecule with dimer basis set
| 26> $new_job
| 27> %base "18-4_DFT_A"
| 28> ! wB97X-D3 def2-TZVP TIGHTSCF CHELPG PMODEL
| 29>
| 30> %scf
| 31> MaxIter 1000
| 32> end
| 33>
| 34> * xyz 0 1
| 35>   C                      0.886549             0.822237             10.406532
| 36>   O                      -0.359793            0.971877             9.692236
| 37>   H                      -0.550626            0.048280             9.716713
| 38>   H                      1.518922             1.710716             10.116938
| 39>   H                      0.664286             0.723875             11.450918
| 40>   H                      1.397309             -0.146132            10.165140
| 41>   C                    : 2.523888             4.676657             7.090738
| 42>   O                    : 2.566897             6.070124             6.773619
| 43>   H                    : 1.949694             6.599378             7.303895
| 44>   H                    : 3.367195             4.206097             6.586594
| 45>   H                    : 2.634672             4.644139             8.164876
| 46>   H                    : 1.636308             4.135860             6.734283
| 47> *
| 48>
| 49> #Run DFT-D3 single point of the particle with dimer basis set
| 50> $new_job
| 51> %base "18-4_DFT_B"
| 52> ! wB97X-D3 def2-TZVP TIGHTSCF CHELPG PMODEL
| 53>
| 54> %scf
| 55> MaxIter 1000
| 56> end
| 57>
| 58> * xyz 0 1
| 59>   C                    : 0.886549             0.822237             10.406532
| 60>   O                    : -0.359793            0.971877             9.692236
| 61>   H                    : -0.550626            0.048280             9.716713
| 62>   H                    : 1.518922             1.710716             10.116938
| 63>   H                    : 0.664286             0.723875             11.450918
| 64>   H                    : 1.397309             -0.146132            10.165140
| 65>   C                      2.523888             4.676657             7.090738
| 66>   O                      2.566897             6.070124             6.773619
| 67>   H                      1.949694             6.599378             7.303895
| 68>   H                      3.367195             4.206097             6.586594
| 69>   H                      2.634672             4.644139             8.164876
| 70>   H                      1.636308             4.135860             6.734283
| 71> *
| 72>
| 73>                          ****END OF INPUT****
 Total Charge           Charge          ....    0
 Multiplicity           Mult            ....    1
 Number of Electrons    NEL             ....   36
Dispersion correction           -0.000690175
FINAL SINGLE POINT ENERGY      -231.459971172229
Dispersion correction           -0.000209488
FINAL SINGLE POINT ENERGY      -115.725861686361

CARTESIAN COORDINATES (ANGSTROEM)
---------------------------------
  C      0.886549    0.822237   10.406532
  O     -0.359793    0.971877    9.692236
  H     -0.550626    0.048280    9.716713
  H      1.518922    1.710716   10.116938
  H      0.664286    0.723875   11.450918
  H      1.397309   -0.146132   10.165140
  C      2.523888    4.676657    7.090738
  O      2.566897    6.070124    6.773619
  H      1.949694    6.599378    7.303895
  H      3.367195    4.206097    6.586594
  H      2.634672    4.644139    8.164876
  H      1.636308    4.135860    6.734283

 Multiplicity           Mult            ....    1
 Number of Electrons    NEL             ....   18
 Basis Dimension        Dim             ....  172

ORBITAL ENERGIES
----------------

  NO   OCC          E(Eh)            E(eV)
   0   2.0000     -19.225625      -523.1559
   1   2.0000     -10.313199      -280.6364
   2   2.0000      -1.124734       -30.6056
   3   2.0000      -0.796774       -21.6813
   4   2.0000      -0.603700       -16.4275
   5   2.0000      -0.548797       -14.9335
   6   2.0000      -0.523066       -14.2334
   7   2.0000      -0.425179       -11.5697
   8   2.0000      -0.371923       -10.1205
   9   0.0000       0.083537         2.2732
  10   0.0000       0.114964         3.1283
  11   0.0000       0.142393         3.8747
  12   0.0000       0.169056         4.6003
  13   0.0000       0.187405         5.0995

MULLIKEN ATOMIC CHARGES
-----------------------
   0 C :    0.000184
   1 O :   -0.000001
   2 H :    0.000001
   3 H :   -0.000499
   4 H :   -0.000006
   5 H :   -0.000008
   6 C :   -0.150798
   7 O :   -0.494010
   8 H :    0.315565
   9 H :    0.120988
  10 H :    0.106269
  11 H :    0.102317
Sum of atomic charges:   -0.0000000

LOEWDIN ATOMIC CHARGES
----------------------
   0 C :   -0.000042
   1 O :   -0.000005
   2 H :   -0.000000
   3 H :   -0.000243
   4 H :   -0.000000
   5 H :   -0.000000
   6 C :   -0.368736
   7 O :   -0.100066
   8 H :    0.169690
   9 H :    0.109054
  10 H :    0.095509
  11 H :    0.094840

  Mayer bond orders larger than 0.1
B(  6-C ,  7-O ) :   0.9931 B(  6-C ,  9-H ) :   0.9726 B(  6-C , 10-H ) :   0.9891
B(  6-C , 11-H ) :   0.9660 B(  7-O ,  8-H ) :   0.8951

Dispersion correction           -0.000249218
FINAL SINGLE POINT ENERGY      -115.733641525055

DIPOLE MOMENT
-------------
                                X             Y             Z
Electronic contribution:      0.09944       1.63639      -0.46908
Nuclear contribution   :     -0.49640      -1.88038       0.94161
                        -----------------------------------------
Total Dipole Moment    :     -0.39695      -0.24398       0.47253
                        -----------------------------------------
Magnitude (a.u.)       :      0.66361
Magnitude (Debye)      :      1.68677

Rotational constants in cm-1:     4.318749     0.815898     0.789691
Rotational constants in MHz : 129472.848800 24460.004760 23674.332541

                             ****ORCA TERMINATED NORMALLY****
TOTAL RUN TIME: 0 days 0 hours 0 minutes 50 seconds 457 msec
