                         Program Version 4.1.2  - RELEASE  -
|  1> #Run DFT-D3 single point of the dimer
|  2> ! wB97X-D3 def2-TZVP TIGHTSCF CHELPG PMODEL PAL8
|  3>
|  4> %base "10-98_DFT_AB"
|  5>
|  6> %scf
|  7> MaxIter 1000
|  8> end
|  9>
| 10> * xyz 0 1
| 11>   C                      -6.546840            0.074704             9.038280
| 12>   O                      -6.336000            1.429750             8.808845
| 13>   H                      -5.428613            1.515341             8.559811
| 14>   H                      -7.109638            -0.391232            8.240486
| 15>   H                      -5.589320            -0.496312            9.039589
| 16>   H                      -7.081118            -0.070553            9.995042
| 17>   C                      -3.872528            2.001226             10.864595
| 18>   O                      -3.736998            1.696973             9.499086
| 19>   H                      -3.554987            0.750151             9.587223
| 20>   H                      -4.390555            1.165372             11.388547
| 21>   H                      -3.011502            2.207887             11.433390
| 22>   H                      -4.542137            2.906519             11.106688
| 23> *
| 24>
| 25> #Run DFT-D3 single point of the molecule with dimer basis set
| 26> $new_job
| 27> %base "10-98_DFT_A"
| 28> ! wB97X-D3 def2-TZVP TIGHTSCF CHELPG PMODEL
| 29>
| 30> %scf
| 31> MaxIter 1000
| 32> end
| 33>
| 34> * xyz 0 1
| 35>   C                      -6.546840            0.074704             9.038280
| 36>   O                      -6.336000            1.429750             8.808845
| 37>   H                      -5.428613            1.515341             8.559811
| 38>   H                      -7.109638            -0.391232            8.240486
| 39>   H                      -5.589320            -0.496312            9.039589
| 40>   H                      -7.081118            -0.070553            9.995042
| 41>   C                    : -3.872528            2.001226             10.864595
| 42>   O                    : -3.736998            1.696973             9.499086
| 43>   H                    : -3.554987            0.750151             9.587223
| 44>   H                    : -4.390555            1.165372             11.388547
| 45>   H                    : -3.011502            2.207887             11.433390
| 46>   H                    : -4.542137            2.906519             11.106688
| 47> *
| 48>
| 49> #Run DFT-D3 single point of the particle with dimer basis set
| 50> $new_job
| 51> %base "10-98_DFT_B"
| 52> ! wB97X-D3 def2-TZVP TIGHTSCF CHELPG PMODEL
| 53>
| 54> %scf
| 55> MaxIter 1000
| 56> end
| 57>
| 58> * xyz 0 1
| 59>   C                    : -6.546840            0.074704             9.038280
| 60>   O                    : -6.336000            1.429750             8.808845
| 61>   H                    : -5.428613            1.515341             8.559811
| 62>   H                    : -7.109638            -0.391232            8.240486
| 63>   H                    : -5.589320            -0.496312            9.039589
| 64>   H                    : -7.081118            -0.070553            9.995042
| 65>   C                      -3.872528            2.001226             10.864595
| 66>   O                      -3.736998            1.696973             9.499086
| 67>   H                      -3.554987            0.750151             9.587223
| 68>   H                      -4.390555            1.165372             11.388547
| 69>   H                      -3.011502            2.207887             11.433390
| 70>   H                      -4.542137            2.906519             11.106688
| 71> *
| 72>
| 73>                          ****END OF INPUT****
 Total Charge           Charge          ....    0
 Multiplicity           Mult            ....    1
 Number of Electrons    NEL             ....   36
Dispersion correction           -0.002333719
FINAL SINGLE POINT ENERGY      -231.465603007749
Dispersion correction           -0.000234363
FINAL SINGLE POINT ENERGY      -115.734902156130

CARTESIAN COORDINATES (ANGSTROEM)
---------------------------------
  C     -6.546840    0.074704    9.038280
  O     -6.336000    1.429750    8.808845
  H     -5.428613    1.515341    8.559811
  H     -7.109638   -0.391232    8.240486
  H     -5.589320   -0.496312    9.039589
  H     -7.081118   -0.070553    9.995042
  C     -3.872528    2.001226   10.864595
  O     -3.736998    1.696973    9.499086
  H     -3.554987    0.750151    9.587223
  H     -4.390555    1.165372   11.388547
  H     -3.011502    2.207887   11.433390
  H     -4.542137    2.906519   11.106688

 Multiplicity           Mult            ....    1
 Number of Electrons    NEL             ....   18
 Basis Dimension        Dim             ....  172

ORBITAL ENERGIES
----------------

  NO   OCC          E(Eh)            E(eV)
   0   2.0000     -19.241103      -523.5770
   1   2.0000     -10.317294      -280.7478
   2   2.0000      -1.148486       -31.2519
   3   2.0000      -0.791896       -21.5486
   4   2.0000      -0.614284       -16.7155
   5   2.0000      -0.546749       -14.8778
   6   2.0000      -0.527027       -14.3411
   7   2.0000      -0.435275       -11.8444
   8   2.0000      -0.379360       -10.3229
   9   0.0000       0.084583         2.3016
  10   0.0000       0.134240         3.6529
  11   0.0000       0.144972         3.9449
  12   0.0000       0.174781         4.7560
  13   0.0000       0.195359         5.3160

MULLIKEN ATOMIC CHARGES
-----------------------
   0 C :   -0.001555
   1 O :    0.001278
   2 H :   -0.006733
   3 H :   -0.000681
   4 H :   -0.005588
   5 H :   -0.000096
   6 C :   -0.205054
   7 O :   -0.441002
   8 H :    0.320906
   9 H :    0.105698
  10 H :    0.117911
  11 H :    0.114917
Sum of atomic charges:   -0.0000000

LOEWDIN ATOMIC CHARGES
----------------------
   0 C :   -0.008104
   1 O :   -0.010170
   2 H :   -0.041088
   3 H :   -0.000119
   4 H :   -0.003642
   5 H :   -0.000265
   6 C :   -0.409631
   7 O :   -0.017116
   8 H :    0.186486
   9 H :    0.100449
  10 H :    0.085890
  11 H :    0.117312

  Mayer bond orders larger than 0.1
B(  6-C ,  7-O ) :   0.9915 B(  6-C ,  9-H ) :   0.9883 B(  6-C , 10-H ) :   0.9658
B(  6-C , 11-H ) :   0.9773 B(  7-O ,  8-H ) :   0.8983

Dispersion correction           -0.000239851
FINAL SINGLE POINT ENERGY      -115.726875336883

DIPOLE MOMENT
-------------
                                X             Y             Z
Electronic contribution:      0.33818      -0.23343      -2.02124
Nuclear contribution   :     -0.26038      -0.23129       2.59565
                        -----------------------------------------
Total Dipole Moment    :      0.07779      -0.46473       0.57441
                        -----------------------------------------
Magnitude (a.u.)       :      0.74295
Magnitude (Debye)      :      1.88843

Rotational constants in cm-1:     4.333807     0.834951     0.797746
Rotational constants in MHz : 129924.274066 25031.215919 23915.838350

                             ****ORCA TERMINATED NORMALLY****
TOTAL RUN TIME: 0 days 0 hours 1 minutes 1 seconds 328 msec
