                         Program Version 4.1.2  - RELEASE  -
|  1> #Run DFT-D3 single point of the dimer
|  2> ! wB97X-D3 def2-TZVP TIGHTSCF CHELPG PMODEL PAL8
|  3>
|  4> %base "6-59_DFT_AB"
|  5>
|  6> %scf
|  7> MaxIter 1000
|  8> end
|  9>
| 10> * xyz 0 1
| 11>   C                      -6.106169            -7.139025            5.478536
| 12>   O                      -7.250673            -6.358448            5.904261
| 13>   H                      -7.580413            -5.854131            5.158850
| 14>   H                      -5.225424            -6.537199            5.228452
| 15>   H                      -5.853161            -7.888103            6.266709
| 16>   H                      -6.381485            -7.683977            4.536477
| 17>   C                      -9.719189            -10.032494           4.830573
| 18>   O                      -11.066356           -10.337419           5.061166
| 19>   H                      -11.654622           -9.662701            4.681708
| 20>   H                      -9.196766            -10.910601           4.378142
| 21>   H                      -9.503730            -9.203898            4.141991
| 22>   H                      -9.222030            -9.818260            5.799815
| 23> *
| 24>
| 25> #Run DFT-D3 single point of the molecule with dimer basis set
| 26> $new_job
| 27> %base "6-59_DFT_A"
| 28> ! wB97X-D3 def2-TZVP TIGHTSCF CHELPG PMODEL
| 29>
| 30> %scf
| 31> MaxIter 1000
| 32> end
| 33>
| 34> * xyz 0 1
| 35>   C                      -6.106169            -7.139025            5.478536
| 36>   O                      -7.250673            -6.358448            5.904261
| 37>   H                      -7.580413            -5.854131            5.158850
| 38>   H                      -5.225424            -6.537199            5.228452
| 39>   H                      -5.853161            -7.888103            6.266709
| 40>   H                      -6.381485            -7.683977            4.536477
| 41>   C                    : -9.719189            -10.032494           4.830573
| 42>   O                    : -11.066356           -10.337419           5.061166
| 43>   H                    : -11.654622           -9.662701            4.681708
| 44>   H                    : -9.196766            -10.910601           4.378142
| 45>   H                    : -9.503730            -9.203898            4.141991
| 46>   H                    : -9.222030            -9.818260            5.799815
| 47> *
| 48>
| 49> #Run DFT-D3 single point of the particle with dimer basis set
| 50> $new_job
| 51> %base "6-59_DFT_B"
| 52> ! wB97X-D3 def2-TZVP TIGHTSCF CHELPG PMODEL
| 53>
| 54> %scf
| 55> MaxIter 1000
| 56> end
| 57>
| 58> * xyz 0 1
| 59>   C                    : -6.106169            -7.139025            5.478536
| 60>   O                    : -7.250673            -6.358448            5.904261
| 61>   H                    : -7.580413            -5.854131            5.158850
| 62>   H                    : -5.225424            -6.537199            5.228452
| 63>   H                    : -5.853161            -7.888103            6.266709
| 64>   H                    : -6.381485            -7.683977            4.536477
| 65>   C                      -9.719189            -10.032494           4.830573
| 66>   O                      -11.066356           -10.337419           5.061166
| 67>   H                      -11.654622           -9.662701            4.681708
| 68>   H                      -9.196766            -10.910601           4.378142
| 69>   H                      -9.503730            -9.203898            4.141991
| 70>   H                      -9.222030            -9.818260            5.799815
| 71> *
| 72>
| 73>                          ****END OF INPUT****
 Total Charge           Charge          ....    0
 Multiplicity           Mult            ....    1
 Number of Electrons    NEL             ....   36
Dispersion correction           -0.001074841
FINAL SINGLE POINT ENERGY      -231.469594909003
Dispersion correction           -0.000261243
FINAL SINGLE POINT ENERGY      -115.734821505114

CARTESIAN COORDINATES (ANGSTROEM)
---------------------------------
  C     -6.106169   -7.139025    5.478536
  O     -7.250673   -6.358448    5.904261
  H     -7.580413   -5.854131    5.158850
  H     -5.225424   -6.537199    5.228452
  H     -5.853161   -7.888103    6.266709
  H     -6.381485   -7.683977    4.536477
  C     -9.719189  -10.032494    4.830573
  O    -11.066356  -10.337419    5.061166
  H    -11.654622   -9.662701    4.681708
  H     -9.196766  -10.910601    4.378142
  H     -9.503730   -9.203898    4.141991
  H     -9.222030   -9.818260    5.799815

 Multiplicity           Mult            ....    1
 Number of Electrons    NEL             ....   18
 Basis Dimension        Dim             ....  172

ORBITAL ENERGIES
----------------

  NO   OCC          E(Eh)            E(eV)
   0   2.0000     -19.231395      -523.3129
   1   2.0000     -10.315856      -280.7087
   2   2.0000      -1.136461       -30.9247
   3   2.0000      -0.792502       -21.5651
   4   2.0000      -0.615589       -16.7510
   5   2.0000      -0.537184       -14.6175
   6   2.0000      -0.523902       -14.2561
   7   2.0000      -0.430716       -11.7204
   8   2.0000      -0.370555       -10.0833
   9   0.0000       0.079522         2.1639
  10   0.0000       0.115025         3.1300
  11   0.0000       0.149253         4.0614
  12   0.0000       0.159734         4.3466
  13   0.0000       0.176825         4.8117

MULLIKEN ATOMIC CHARGES
-----------------------
   0 C :   -0.000518
   1 O :    0.000110
   2 H :   -0.000030
   3 H :   -0.000023
   4 H :    0.000017
   5 H :   -0.000078
   6 C :   -0.168663
   7 O :   -0.473694
   8 H :    0.319950
   9 H :    0.108226
  10 H :    0.108146
  11 H :    0.106557
Sum of atomic charges:   -0.0000000

LOEWDIN ATOMIC CHARGES
----------------------
   0 C :   -0.000487
   1 O :   -0.000054
   2 H :   -0.000052
   3 H :   -0.000009
   4 H :   -0.000071
   5 H :   -0.000234
   6 C :   -0.405595
   7 O :   -0.073249
   8 H :    0.177088
   9 H :    0.105471
  10 H :    0.096030
  11 H :    0.101162

  Mayer bond orders larger than 0.1
B(  6-C ,  7-O ) :   1.0111 B(  6-C ,  9-H ) :   0.9729 B(  6-C , 10-H ) :   0.9760
B(  6-C , 11-H ) :   0.9772 B(  7-O ,  8-H ) :   0.8943

Dispersion correction           -0.000266113
FINAL SINGLE POINT ENERGY      -115.734287598271

DIPOLE MOMENT
-------------
                                X             Y             Z
Electronic contribution:     -1.81243      -0.43432       0.33486
Nuclear contribution   :      1.94023       1.00722      -0.69318
                        -----------------------------------------
Total Dipole Moment    :      0.12780       0.57290      -0.35832
                        -----------------------------------------
Magnitude (a.u.)       :      0.68771
Magnitude (Debye)      :      1.74803

Rotational constants in cm-1:     4.290753     0.829492     0.802935
Rotational constants in MHz : 128633.553138 24867.557813 24071.374156

                             ****ORCA TERMINATED NORMALLY****
TOTAL RUN TIME: 0 days 0 hours 0 minutes 56 seconds 11 msec
