                         Program Version 4.1.2  - RELEASE  -
|  1> #Run DFT geometry optimization
|  2> ! wB97X-D3 def2-TZVP TIGHTSCF Grid5 FinalGrid6 Opt CHELPG PAL4
|  3>
|  4> %base "1_geo_opt"
|  5> %geom MaxIter 500
|  6> end
|  7>
|  8> %geom
|  9>   Constraints
| 10>     { A 5 0 1 C }
| 11>   end
| 12> end
| 13>
| 14>
| 15> * xyz 0 1
| 16>   C                    3.011308             -1.180897            0.598492
| 17>   O                    4.395248             -1.132479            0.872226
| 18>   H                    4.772196             -0.379022            0.412493
| 19>   H                    2.806434             -1.318965            -0.469350
| 20>   H                    2.611632             -2.040265            1.135898
| 21>   H                    2.481461             -0.285930            0.944354
| 22> *
| 23>
| 24>                          ****END OF INPUT****
 Total Charge           Charge          ....    0
 Multiplicity           Mult            ....    1
 Number of Electrons    NEL             ....   18
Dispersion correction           -0.000239806
FINAL SINGLE POINT ENERGY      -115.738040189404
Dispersion correction            ... done
Dispersion correction           -0.000239838
FINAL SINGLE POINT ENERGY      -115.738045590322
Dispersion correction            ... done
                    ***********************HURRAY********************

CARTESIAN COORDINATES (ANGSTROEM)
---------------------------------
  C      3.011594   -1.180711    0.598519
  O      4.395328   -1.131167    0.871767
  H      4.772566   -0.380133    0.413076
  H      2.805901   -1.319171   -0.469213
  H      2.611744   -2.040297    1.135586
  H      2.481146   -0.286080    0.944379

 Multiplicity           Mult            ....    1
 Number of Electrons    NEL             ....   18
 Basis Dimension        Dim             ....   86

ORBITAL ENERGIES
----------------

  NO   OCC          E(Eh)            E(eV)
   0   2.0000     -19.228270      -523.2278
   1   2.0000     -10.315100      -280.6881
   2   2.0000      -1.136975       -30.9387
   3   2.0000      -0.795397       -21.6439
   4   2.0000      -0.611818       -16.6484
   5   2.0000      -0.541599       -14.7377
   6   2.0000      -0.526260       -14.3203
   7   2.0000      -0.433910       -11.8073
   8   2.0000      -0.373711       -10.1692
   9   0.0000       0.116681         3.1751
  10   0.0000       0.156558         4.2602
  11   0.0000       0.202506         5.5105
  12   0.0000       0.205217         5.5842
  13   0.0000       0.226567         6.1652

MULLIKEN ATOMIC CHARGES
-----------------------
   0 C :   -0.151076
   1 O :   -0.477303
   2 H :    0.313025
   3 H :    0.098554
   4 H :    0.118188
   5 H :    0.098612
Sum of atomic charges:   -0.0000000

LOEWDIN ATOMIC CHARGES
----------------------
   0 C :   -0.385641
   1 O :   -0.075634
   2 H :    0.165830
   3 H :    0.093414
   4 H :    0.108728
   5 H :    0.093303

  Mayer bond orders larger than 0.1
B(  0-C ,  1-O ) :   0.9990 B(  0-C ,  3-H ) :   0.9757 B(  0-C ,  4-H ) :   0.9751
B(  0-C ,  5-H ) :   0.9750 B(  1-O ,  2-H ) :   0.9002

Dispersion correction           -0.000239946
FINAL SINGLE POINT ENERGY      -115.738045869842

DIPOLE MOMENT
-------------
                                X             Y             Z
Electronic contribution:      1.76071      -0.02873       0.41902
Nuclear contribution   :     -2.07029       0.47897      -0.81346
                        -----------------------------------------
Total Dipole Moment    :     -0.30959       0.45023      -0.39444
                        -----------------------------------------
Magnitude (a.u.)       :      0.67390
Magnitude (Debye)      :      1.71291

Rotational constants in cm-1:     4.296817     0.833702     0.804768
Rotational constants in MHz : 128815.326211 24993.759477 24126.350627

                             ****ORCA TERMINATED NORMALLY****
TOTAL RUN TIME: 0 days 0 hours 0 minutes 48 seconds 13 msec
