                         Program Version 4.1.2  - RELEASE  -
|  1> #Run DFT-D3 single point of the dimer
|  2> ! wB97X-D3 def2-TZVP TIGHTSCF  CHELPG PAL8
|  3>
|  4> %base "152_charges"
|  5>
|  6> %scf
|  7> MaxIter 1000
|  8> end
|  9> %output
| 10>   Print[ P_Mayer ] 1
| 11>   Print[ P_NatPop ] 1
| 12>   Print[ P_Hirshfeld ] 1
| 13>   Print[ P_Mulliken ] 1
| 14>   Print [ P_Loewdin ] 1
| 15> end
| 16>
| 17> * xyz 0 1
| 18>   C                      -10.527551           7.001715             1.778338
| 19>   O                      -11.287848           6.662608             2.904182
| 20>   H                      -11.836816           7.360346             3.120991
| 21>   H                      -10.052959           6.158899             1.291260
| 22>   H                      -11.187744           7.387912             1.079305
| 23>   H                      -9.733866            7.696013             2.052305
| 24> *
| 25>
| 26>                          ****END OF INPUT****

CARTESIAN COORDINATES (ANGSTROEM)
---------------------------------
  C    -10.527551    7.001715    1.778338
  O    -11.287848    6.662608    2.904182
  H    -11.836816    7.360346    3.120991
  H    -10.052959    6.158899    1.291260
  H    -11.187744    7.387912    1.079305
  H     -9.733866    7.696013    2.052305

 Total Charge           Charge          ....    0
 Multiplicity           Mult            ....    1
 Number of Electrons    NEL             ....   18
 Basis Dimension        Dim             ....   86

ORBITAL ENERGIES
----------------

  NO   OCC          E(Eh)            E(eV)
   0   2.0000     -19.220977      -523.0294
   1   2.0000     -10.303891      -280.3831
   2   2.0000      -1.147292       -31.2194
   3   2.0000      -0.804774       -21.8990
   4   2.0000      -0.616599       -16.7785
   5   2.0000      -0.554476       -15.0880
   6   2.0000      -0.535161       -14.5625
   7   2.0000      -0.426998       -11.6192
   8   2.0000      -0.373988       -10.1767
   9   0.0000       0.121761         3.3133
  10   0.0000       0.160065         4.3556
  11   0.0000       0.207364         5.6427
  12   0.0000       0.210461         5.7269
  13   0.0000       0.225581         6.1384

MULLIKEN ATOMIC CHARGES
-----------------------
   0 C :   -0.154216
   1 O :   -0.472575
   2 H :    0.306226
   3 H :    0.114405
   4 H :    0.107432
   5 H :    0.098729
Sum of atomic charges:   -0.0000000

LOEWDIN ATOMIC CHARGES
----------------------
   0 C :   -0.378299
   1 O :   -0.047658
   2 H :    0.138247
   3 H :    0.106914
   4 H :    0.085442
   5 H :    0.095355

  Mayer bond orders larger than 0.1
B(  0-C ,  1-O ) :   0.9917 B(  0-C ,  3-H ) :   0.9721 B(  0-C ,  4-H ) :   0.9899
B(  0-C ,  5-H ) :   0.9787 B(  1-O ,  2-H ) :   0.9103

Dispersion correction           -0.000214385
FINAL SINGLE POINT ENERGY      -115.729919505234

DIPOLE MOMENT
-------------
                                X             Y             Z
Electronic contribution:     -0.90993      -0.53581       1.40844
Nuclear contribution   :      0.84427       1.12167      -1.74837
                        -----------------------------------------
Total Dipole Moment    :     -0.06566       0.58586      -0.33994
                        -----------------------------------------
Magnitude (a.u.)       :      0.68051
Magnitude (Debye)      :      1.72973

Rotational constants in cm-1:     4.566338     0.847001     0.827181
Rotational constants in MHz : 136895.358017 25392.455244 24798.252382

                             ****ORCA TERMINATED NORMALLY****
TOTAL RUN TIME: 0 days 0 hours 0 minutes 41 seconds 68 msec
