                         Program Version 4.1.2  - RELEASE  -
|  1> #Run DFT-D3 single point of the dimer
|  2> ! wB97X-D3 def2-TZVP TIGHTSCF CHELPG PMODEL PAL8
|  3>
|  4> %base "12-186_DFT_AB"
|  5>
|  6> %scf
|  7> MaxIter 1000
|  8> end
|  9>
| 10> * xyz 0 1
| 11>   C                      -0.578593            -4.590266            -11.286552
| 12>   O                      -0.826494            -3.380639            -10.623791
| 13>   H                      -1.176707            -3.622127            -9.780503
| 14>   H                      0.000340             -4.523567            -12.235142
| 15>   H                      -0.051351            -5.265744            -10.605710
| 16>   H                      -1.444858            -5.068640            -11.659935
| 17>   C                      -2.536524            -5.092368            -7.937010
| 18>   O                      -2.490493            -3.661079            -7.850409
| 19>   H                      -1.765617            -3.529473            -7.212944
| 20>   H                      -3.324037            -5.370341            -8.616925
| 21>   H                      -1.589571            -5.589738            -8.198997
| 22>   H                      -2.937698            -5.591596            -7.043664
| 23> *
| 24>
| 25> #Run DFT-D3 single point of the molecule with dimer basis set
| 26> $new_job
| 27> %base "12-186_DFT_A"
| 28> ! wB97X-D3 def2-TZVP TIGHTSCF CHELPG PMODEL
| 29>
| 30> %scf
| 31> MaxIter 1000
| 32> end
| 33>
| 34> * xyz 0 1
| 35>   C                      -0.578593            -4.590266            -11.286552
| 36>   O                      -0.826494            -3.380639            -10.623791
| 37>   H                      -1.176707            -3.622127            -9.780503
| 38>   H                      0.000340             -4.523567            -12.235142
| 39>   H                      -0.051351            -5.265744            -10.605710
| 40>   H                      -1.444858            -5.068640            -11.659935
| 41>   C                    : -2.536524            -5.092368            -7.937010
| 42>   O                    : -2.490493            -3.661079            -7.850409
| 43>   H                    : -1.765617            -3.529473            -7.212944
| 44>   H                    : -3.324037            -5.370341            -8.616925
| 45>   H                    : -1.589571            -5.589738            -8.198997
| 46>   H                    : -2.937698            -5.591596            -7.043664
| 47> *
| 48>
| 49> #Run DFT-D3 single point of the particle with dimer basis set
| 50> $new_job
| 51> %base "12-186_DFT_B"
| 52> ! wB97X-D3 def2-TZVP TIGHTSCF CHELPG PMODEL
| 53>
| 54> %scf
| 55> MaxIter 1000
| 56> end
| 57>
| 58> * xyz 0 1
| 59>   C                    : -0.578593            -4.590266            -11.286552
| 60>   O                    : -0.826494            -3.380639            -10.623791
| 61>   H                    : -1.176707            -3.622127            -9.780503
| 62>   H                    : 0.000340             -4.523567            -12.235142
| 63>   H                    : -0.051351            -5.265744            -10.605710
| 64>   H                    : -1.444858            -5.068640            -11.659935
| 65>   C                      -2.536524            -5.092368            -7.937010
| 66>   O                      -2.490493            -3.661079            -7.850409
| 67>   H                      -1.765617            -3.529473            -7.212944
| 68>   H                      -3.324037            -5.370341            -8.616925
| 69>   H                      -1.589571            -5.589738            -8.198997
| 70>   H                      -2.937698            -5.591596            -7.043664
| 71> *
| 72>
| 73>                          ****END OF INPUT****
 Total Charge           Charge          ....    0
 Multiplicity           Mult            ....    1
 Number of Electrons    NEL             ....   36
Dispersion correction           -0.002009241
FINAL SINGLE POINT ENERGY      -231.468437678885
Dispersion correction           -0.000230918
FINAL SINGLE POINT ENERGY      -115.731535285777

CARTESIAN COORDINATES (ANGSTROEM)
---------------------------------
  C     -0.578593   -4.590266  -11.286552
  O     -0.826494   -3.380639  -10.623791
  H     -1.176707   -3.622127   -9.780503
  H      0.000340   -4.523567  -12.235142
  H     -0.051351   -5.265744  -10.605710
  H     -1.444858   -5.068640  -11.659935
  C     -2.536524   -5.092368   -7.937010
  O     -2.490493   -3.661079   -7.850409
  H     -1.765617   -3.529473   -7.212944
  H     -3.324037   -5.370341   -8.616925
  H     -1.589571   -5.589738   -8.198997
  H     -2.937698   -5.591596   -7.043664

 Multiplicity           Mult            ....    1
 Number of Electrons    NEL             ....   18
 Basis Dimension        Dim             ....  172

ORBITAL ENERGIES
----------------

  NO   OCC          E(Eh)            E(eV)
   0   2.0000     -19.238611      -523.5092
   1   2.0000     -10.313797      -280.6527
   2   2.0000      -1.133822       -30.8529
   3   2.0000      -0.796532       -21.6747
   4   2.0000      -0.606813       -16.5122
   5   2.0000      -0.542114       -14.7517
   6   2.0000      -0.519152       -14.1268
   7   2.0000      -0.443616       -12.0714
   8   2.0000      -0.377402       -10.2696
   9   0.0000       0.089985         2.4486
  10   0.0000       0.121964         3.3188
  11   0.0000       0.149839         4.0773
  12   0.0000       0.180676         4.9165
  13   0.0000       0.193397         5.2626

MULLIKEN ATOMIC CHARGES
-----------------------
   0 C :    0.002860
   1 O :    0.000414
   2 H :   -0.012557
   3 H :    0.000088
   4 H :   -0.000469
   5 H :   -0.000432
   6 C :   -0.197951
   7 O :   -0.456635
   8 H :    0.315758
   9 H :    0.123441
  10 H :    0.113996
  11 H :    0.111486
Sum of atomic charges:   -0.0000000

LOEWDIN ATOMIC CHARGES
----------------------
   0 C :   -0.002031
   1 O :   -0.002178
   2 H :   -0.019535
   3 H :   -0.000005
   4 H :   -0.000976
   5 H :   -0.000180
   6 C :   -0.384672
   7 O :   -0.075466
   8 H :    0.180274
   9 H :    0.107544
  10 H :    0.099420
  11 H :    0.097803

  Mayer bond orders larger than 0.1
B(  6-C ,  7-O ) :   0.9910 B(  6-C ,  9-H ) :   0.9790 B(  6-C , 10-H ) :   0.9724
B(  6-C , 11-H ) :   0.9689 B(  7-O ,  8-H ) :   0.9010

Dispersion correction           -0.000252979
FINAL SINGLE POINT ENERGY      -115.732437904786

DIPOLE MOMENT
-------------
                                X             Y             Z
Electronic contribution:      0.04408       1.94648      -0.02695
Nuclear contribution   :      0.34783      -2.43499       0.39206
                        -----------------------------------------
Total Dipole Moment    :      0.39191      -0.48851       0.36510
                        -----------------------------------------
Magnitude (a.u.)       :      0.72494
Magnitude (Debye)      :      1.84264

Rotational constants in cm-1:     4.329193     0.810733     0.779151
Rotational constants in MHz : 129785.951773 24305.160858 23358.347088

                             ****ORCA TERMINATED NORMALLY****
TOTAL RUN TIME: 0 days 0 hours 1 minutes 8 seconds 328 msec
