                         Program Version 4.1.2  - RELEASE  -
|  1> #Run DFT-D3 single point of the dimer
|  2> ! wB97X-D3 def2-TZVP TIGHTSCF CHELPG PMODEL PAL8
|  3>
|  4> %base "1-80_DFT_AB"
|  5>
|  6> %scf
|  7> MaxIter 1000
|  8> end
|  9>
| 10> * xyz 0 1
| 11>   C                      -2.564663            -10.829491           0.819036
| 12>   O                      -1.332082            -11.025152           1.444712
| 13>   H                      -1.579110            -11.609815           2.161669
| 14>   H                      -2.334350            -10.176657           -0.055430
| 15>   H                      -2.996839            -11.752730           0.453297
| 16>   H                      -3.253794            -10.236978           1.399588
| 17>   C                      2.069134             -11.515355           3.438142
| 18>   O                      3.262056             -11.881117           4.186591
| 19>   H                      3.862214             -11.172021           4.410279
| 20>   H                      1.440542             -12.472208           3.328094
| 21>   H                      1.493230             -10.708871           3.889730
| 22>   H                      2.379055             -11.127397           2.419613
| 23> *
| 24>
| 25> #Run DFT-D3 single point of the molecule with dimer basis set
| 26> $new_job
| 27> %base "1-80_DFT_A"
| 28> ! wB97X-D3 def2-TZVP TIGHTSCF CHELPG PMODEL
| 29>
| 30> %scf
| 31> MaxIter 1000
| 32> end
| 33>
| 34> * xyz 0 1
| 35>   C                      -2.564663            -10.829491           0.819036
| 36>   O                      -1.332082            -11.025152           1.444712
| 37>   H                      -1.579110            -11.609815           2.161669
| 38>   H                      -2.334350            -10.176657           -0.055430
| 39>   H                      -2.996839            -11.752730           0.453297
| 40>   H                      -3.253794            -10.236978           1.399588
| 41>   C                    : 2.069134             -11.515355           3.438142
| 42>   O                    : 3.262056             -11.881117           4.186591
| 43>   H                    : 3.862214             -11.172021           4.410279
| 44>   H                    : 1.440542             -12.472208           3.328094
| 45>   H                    : 1.493230             -10.708871           3.889730
| 46>   H                    : 2.379055             -11.127397           2.419613
| 47> *
| 48>
| 49> #Run DFT-D3 single point of the particle with dimer basis set
| 50> $new_job
| 51> %base "1-80_DFT_B"
| 52> ! wB97X-D3 def2-TZVP TIGHTSCF CHELPG PMODEL
| 53>
| 54> %scf
| 55> MaxIter 1000
| 56> end
| 57>
| 58> * xyz 0 1
| 59>   C                    : -2.564663            -10.829491           0.819036
| 60>   O                    : -1.332082            -11.025152           1.444712
| 61>   H                    : -1.579110            -11.609815           2.161669
| 62>   H                    : -2.334350            -10.176657           -0.055430
| 63>   H                    : -2.996839            -11.752730           0.453297
| 64>   H                    : -3.253794            -10.236978           1.399588
| 65>   C                      2.069134             -11.515355           3.438142
| 66>   O                      3.262056             -11.881117           4.186591
| 67>   H                      3.862214             -11.172021           4.410279
| 68>   H                      1.440542             -12.472208           3.328094
| 69>   H                      1.493230             -10.708871           3.889730
| 70>   H                      2.379055             -11.127397           2.419613
| 71> *
| 72>
| 73>                          ****END OF INPUT****
 Total Charge           Charge          ....    0
 Multiplicity           Mult            ....    1
 Number of Electrons    NEL             ....   36
Dispersion correction           -0.001022542
FINAL SINGLE POINT ENERGY      -231.465389488589
Dispersion correction           -0.000214971
FINAL SINGLE POINT ENERGY      -115.733853030675

CARTESIAN COORDINATES (ANGSTROEM)
---------------------------------
  C     -2.564663  -10.829491    0.819036
  O     -1.332082  -11.025152    1.444712
  H     -1.579110  -11.609815    2.161669
  H     -2.334350  -10.176657   -0.055430
  H     -2.996839  -11.752730    0.453297
  H     -3.253794  -10.236978    1.399588
  C      2.069134  -11.515355    3.438142
  O      3.262056  -11.881117    4.186591
  H      3.862214  -11.172021    4.410279
  H      1.440542  -12.472208    3.328094
  H      1.493230  -10.708871    3.889730
  H      2.379055  -11.127397    2.419613

 Multiplicity           Mult            ....    1
 Number of Electrons    NEL             ....   18
 Basis Dimension        Dim             ....  172

ORBITAL ENERGIES
----------------

  NO   OCC          E(Eh)            E(eV)
   0   2.0000     -19.225156      -523.1431
   1   2.0000     -10.328125      -281.0426
   2   2.0000      -1.118908       -30.4470
   3   2.0000      -0.793619       -21.5955
   4   2.0000      -0.606681       -16.5086
   5   2.0000      -0.528792       -14.3892
   6   2.0000      -0.518723       -14.1152
   7   2.0000      -0.426992       -11.6190
   8   2.0000      -0.371452       -10.1077
   9   0.0000       0.083220         2.2645
  10   0.0000       0.116238         3.1630
  11   0.0000       0.132337         3.6011
  12   0.0000       0.182583         4.9683
  13   0.0000       0.185187         5.0392

MULLIKEN ATOMIC CHARGES
-----------------------
   0 C :    0.000052
   1 O :    0.000135
   2 H :   -0.000269
   3 H :   -0.000000
   4 H :   -0.000002
   5 H :   -0.000003
   6 C :   -0.156675
   7 O :   -0.499590
   8 H :    0.315018
   9 H :    0.129544
  10 H :    0.111125
  11 H :    0.100664
Sum of atomic charges:    0.0000000

LOEWDIN ATOMIC CHARGES
----------------------
   0 C :   -0.000012
   1 O :   -0.000170
   2 H :   -0.000303
   3 H :   -0.000001
   4 H :   -0.000000
   5 H :   -0.000000
   6 C :   -0.361980
   7 O :   -0.111112
   8 H :    0.157883
   9 H :    0.122991
  10 H :    0.092135
  11 H :    0.100570

  Mayer bond orders larger than 0.1
B(  6-C ,  7-O ) :   0.9860 B(  6-C ,  9-H ) :   0.9693 B(  6-C , 10-H ) :   0.9673
B(  6-C , 11-H ) :   0.9748 B(  7-O ,  8-H ) :   0.8949

Dispersion correction           -0.000287531
FINAL SINGLE POINT ENERGY      -115.730532552459

DIPOLE MOMENT
-------------
                                X             Y             Z
Electronic contribution:      1.36668      -0.52458       0.98866
Nuclear contribution   :     -1.48997       1.15880      -1.15496
                        -----------------------------------------
Total Dipole Moment    :     -0.12329       0.63423      -0.16630
                        -----------------------------------------
Magnitude (a.u.)       :      0.66716
Magnitude (Debye)      :      1.69579

Rotational constants in cm-1:     4.170243     0.783974     0.752930
Rotational constants in MHz : 125020.743597 23502.938196 22572.260015

                             ****ORCA TERMINATED NORMALLY****
TOTAL RUN TIME: 0 days 0 hours 5 minutes 50 seconds 908 msec
