                         Program Version 4.1.2  - RELEASE  -
|  1> #Run DFT-D3 single point of the dimer
|  2> ! wB97X-D3 def2-TZVP TIGHTSCF CHELPG PMODEL PAL8
|  3>
|  4> %base "19-27_DFT_AB"
|  5>
|  6> %scf
|  7> MaxIter 1000
|  8> end
|  9>
| 10> * xyz 0 1
| 11>   C                      -9.778594            2.584819             -7.098236
| 12>   O                      -10.503116           3.623638             -6.480022
| 13>   H                      -10.501269           4.334988             -7.158476
| 14>   H                      -9.911806            2.435577             -8.131833
| 15>   H                      -8.678102            2.671316             -7.052734
| 16>   H                      -9.924804            1.624095             -6.681747
| 17>   C                      -7.953406            5.982523             -7.280825
| 18>   O                      -7.359437            5.843078             -5.989491
| 19>   H                      -6.422112            5.970046             -6.083202
| 20>   H                      -7.363661            5.353396             -8.045738
| 21>   H                      -8.952876            5.610469             -7.321396
| 22>   H                      -8.057900            7.016053             -7.638671
| 23> *
| 24>
| 25> #Run DFT-D3 single point of the molecule with dimer basis set
| 26> $new_job
| 27> %base "19-27_DFT_A"
| 28> ! wB97X-D3 def2-TZVP TIGHTSCF CHELPG PMODEL
| 29>
| 30> %scf
| 31> MaxIter 1000
| 32> end
| 33>
| 34> * xyz 0 1
| 35>   C                      -9.778594            2.584819             -7.098236
| 36>   O                      -10.503116           3.623638             -6.480022
| 37>   H                      -10.501269           4.334988             -7.158476
| 38>   H                      -9.911806            2.435577             -8.131833
| 39>   H                      -8.678102            2.671316             -7.052734
| 40>   H                      -9.924804            1.624095             -6.681747
| 41>   C                    : -7.953406            5.982523             -7.280825
| 42>   O                    : -7.359437            5.843078             -5.989491
| 43>   H                    : -6.422112            5.970046             -6.083202
| 44>   H                    : -7.363661            5.353396             -8.045738
| 45>   H                    : -8.952876            5.610469             -7.321396
| 46>   H                    : -8.057900            7.016053             -7.638671
| 47> *
| 48>
| 49> #Run DFT-D3 single point of the particle with dimer basis set
| 50> $new_job
| 51> %base "19-27_DFT_B"
| 52> ! wB97X-D3 def2-TZVP TIGHTSCF CHELPG PMODEL
| 53>
| 54> %scf
| 55> MaxIter 1000
| 56> end
| 57>
| 58> * xyz 0 1
| 59>   C                    : -9.778594            2.584819             -7.098236
| 60>   O                    : -10.503116           3.623638             -6.480022
| 61>   H                    : -10.501269           4.334988             -7.158476
| 62>   H                    : -9.911806            2.435577             -8.131833
| 63>   H                    : -8.678102            2.671316             -7.052734
| 64>   H                    : -9.924804            1.624095             -6.681747
| 65>   C                      -7.953406            5.982523             -7.280825
| 66>   O                      -7.359437            5.843078             -5.989491
| 67>   H                      -6.422112            5.970046             -6.083202
| 68>   H                      -7.363661            5.353396             -8.045738
| 69>   H                      -8.952876            5.610469             -7.321396
| 70>   H                      -8.057900            7.016053             -7.638671
| 71> *
| 72>
| 73>                          ****END OF INPUT****
 Total Charge           Charge          ....    0
 Multiplicity           Mult            ....    1
 Number of Electrons    NEL             ....   36
Dispersion correction           -0.001933569
FINAL SINGLE POINT ENERGY      -231.460640421673
Dispersion correction           -0.000251189
FINAL SINGLE POINT ENERGY      -115.729081611195

CARTESIAN COORDINATES (ANGSTROEM)
---------------------------------
  C     -9.778594    2.584819   -7.098236
  O    -10.503116    3.623638   -6.480022
  H    -10.501269    4.334988   -7.158476
  H     -9.911806    2.435577   -8.131833
  H     -8.678102    2.671316   -7.052734
  H     -9.924804    1.624095   -6.681747
  C     -7.953406    5.982523   -7.280825
  O     -7.359437    5.843078   -5.989491
  H     -6.422112    5.970046   -6.083202
  H     -7.363661    5.353396   -8.045738
  H     -8.952876    5.610469   -7.321396
  H     -8.057900    7.016053   -7.638671

 Multiplicity           Mult            ....    1
 Number of Electrons    NEL             ....   18
 Basis Dimension        Dim             ....  172

ORBITAL ENERGIES
----------------

  NO   OCC          E(Eh)            E(eV)
   0   2.0000     -19.231817      -523.3244
   1   2.0000     -10.318877      -280.7909
   2   2.0000      -1.134801       -30.8795
   3   2.0000      -0.796742       -21.6805
   4   2.0000      -0.606846       -16.5131
   5   2.0000      -0.538224       -14.6458
   6   2.0000      -0.530329       -14.4310
   7   2.0000      -0.431067       -11.7299
   8   2.0000      -0.376122       -10.2348
   9   0.0000       0.089513         2.4358
  10   0.0000       0.119940         3.2637
  11   0.0000       0.152808         4.1581
  12   0.0000       0.166887         4.5412
  13   0.0000       0.196606         5.3499

MULLIKEN ATOMIC CHARGES
-----------------------
   0 C :   -0.001768
   1 O :    0.000870
   2 H :    0.000179
   3 H :    0.000342
   4 H :    0.000591
   5 H :   -0.000016
   6 C :   -0.171053
   7 O :   -0.472408
   8 H :    0.315817
   9 H :    0.097602
  10 H :    0.122498
  11 H :    0.107345
Sum of atomic charges:   -0.0000000

LOEWDIN ATOMIC CHARGES
----------------------
   0 C :   -0.002988
   1 O :   -0.001936
   2 H :   -0.009175
   3 H :   -0.000086
   4 H :   -0.000837
   5 H :   -0.000022
   6 C :   -0.376529
   7 O :   -0.079572
   8 H :    0.162857
   9 H :    0.106498
  10 H :    0.106172
  11 H :    0.095620

  Mayer bond orders larger than 0.1
B(  6-C ,  7-O ) :   1.0074 B(  6-C ,  9-H ) :   0.9857 B(  6-C , 10-H ) :   0.9753
B(  6-C , 11-H ) :   0.9691 B(  7-O ,  8-H ) :   0.9010

Dispersion correction           -0.000262245
FINAL SINGLE POINT ENERGY      -115.733004360980

DIPOLE MOMENT
-------------
                                X             Y             Z
Electronic contribution:      0.60528      -0.14310       1.81665
Nuclear contribution   :     -0.27492       0.27654      -2.38200
                        -----------------------------------------
Total Dipole Moment    :      0.33037       0.13344      -0.56535
                        -----------------------------------------
Magnitude (a.u.)       :      0.66826
Magnitude (Debye)      :      1.69858

Rotational constants in cm-1:     4.313031     0.806482     0.782974
Rotational constants in MHz : 129301.427001 24177.714584 23472.979380

                             ****ORCA TERMINATED NORMALLY****
TOTAL RUN TIME: 0 days 0 hours 0 minutes 53 seconds 469 msec
