                         Program Version 4.1.2  - RELEASE  -
|  1> #Run DFT-D3 single point of the dimer
|  2> ! wB97X-D3 def2-TZVP TIGHTSCF CHELPG PMODEL PAL8
|  3>
|  4> %base "2-114_DFT_AB"
|  5>
|  6> %scf
|  7> MaxIter 1000
|  8> end
|  9>
| 10> * xyz 0 1
| 11>   C                      -9.194448            -7.165680            8.606012
| 12>   O                      -9.483807            -8.443194            7.922237
| 13>   H                      -8.780202            -9.018449            8.087057
| 14>   H                      -8.510834            -6.560886            7.980636
| 15>   H                      -10.076085           -6.566288            8.744051
| 16>   H                      -8.775180            -7.380842            9.649389
| 17>   C                      -6.024622            -8.783032            8.677513
| 18>   O                      -5.122256            -9.820005            8.826240
| 19>   H                      -5.097211            -10.097129           9.725060
| 20>   H                      -5.825973            -7.938720            9.366395
| 21>   H                      -5.925312            -8.372173            7.687259
| 22>   H                      -7.041324            -9.053854            8.939854
| 23> *
| 24>
| 25> #Run DFT-D3 single point of the molecule with dimer basis set
| 26> $new_job
| 27> %base "2-114_DFT_A"
| 28> ! wB97X-D3 def2-TZVP TIGHTSCF CHELPG PMODEL
| 29>
| 30> %scf
| 31> MaxIter 1000
| 32> end
| 33>
| 34> * xyz 0 1
| 35>   C                      -9.194448            -7.165680            8.606012
| 36>   O                      -9.483807            -8.443194            7.922237
| 37>   H                      -8.780202            -9.018449            8.087057
| 38>   H                      -8.510834            -6.560886            7.980636
| 39>   H                      -10.076085           -6.566288            8.744051
| 40>   H                      -8.775180            -7.380842            9.649389
| 41>   C                    : -6.024622            -8.783032            8.677513
| 42>   O                    : -5.122256            -9.820005            8.826240
| 43>   H                    : -5.097211            -10.097129           9.725060
| 44>   H                    : -5.825973            -7.938720            9.366395
| 45>   H                    : -5.925312            -8.372173            7.687259
| 46>   H                    : -7.041324            -9.053854            8.939854
| 47> *
| 48>
| 49> #Run DFT-D3 single point of the particle with dimer basis set
| 50> $new_job
| 51> %base "2-114_DFT_B"
| 52> ! wB97X-D3 def2-TZVP TIGHTSCF CHELPG PMODEL
| 53>
| 54> %scf
| 55> MaxIter 1000
| 56> end
| 57>
| 58> * xyz 0 1
| 59>   C                    : -9.194448            -7.165680            8.606012
| 60>   O                    : -9.483807            -8.443194            7.922237
| 61>   H                    : -8.780202            -9.018449            8.087057
| 62>   H                    : -8.510834            -6.560886            7.980636
| 63>   H                    : -10.076085           -6.566288            8.744051
| 64>   H                    : -8.775180            -7.380842            9.649389
| 65>   C                      -6.024622            -8.783032            8.677513
| 66>   O                      -5.122256            -9.820005            8.826240
| 67>   H                      -5.097211            -10.097129           9.725060
| 68>   H                      -5.825973            -7.938720            9.366395
| 69>   H                      -5.925312            -8.372173            7.687259
| 70>   H                      -7.041324            -9.053854            8.939854
| 71> *
| 72>
| 73>                          ****END OF INPUT****
 Total Charge           Charge          ....    0
 Multiplicity           Mult            ....    1
 Number of Electrons    NEL             ....   36
Dispersion correction           -0.002046639
FINAL SINGLE POINT ENERGY      -231.465951131300
Dispersion correction           -0.000270809
FINAL SINGLE POINT ENERGY      -115.730830631376

CARTESIAN COORDINATES (ANGSTROEM)
---------------------------------
  C     -9.194448   -7.165680    8.606012
  O     -9.483807   -8.443194    7.922237
  H     -8.780202   -9.018449    8.087057
  H     -8.510834   -6.560886    7.980636
  H    -10.076085   -6.566288    8.744051
  H     -8.775180   -7.380842    9.649389
  C     -6.024622   -8.783032    8.677513
  O     -5.122256   -9.820005    8.826240
  H     -5.097211  -10.097129    9.725060
  H     -5.825973   -7.938720    9.366395
  H     -5.925312   -8.372173    7.687259
  H     -7.041324   -9.053854    8.939854

 Multiplicity           Mult            ....    1
 Number of Electrons    NEL             ....   18
 Basis Dimension        Dim             ....  172

ORBITAL ENERGIES
----------------

  NO   OCC          E(Eh)            E(eV)
   0   2.0000     -19.228673      -523.2388
   1   2.0000     -10.309027      -280.5229
   2   2.0000      -1.149178       -31.2707
   3   2.0000      -0.798854       -21.7379
   4   2.0000      -0.624110       -16.9829
   5   2.0000      -0.543594       -14.7919
   6   2.0000      -0.529304       -14.4031
   7   2.0000      -0.435518       -11.8511
   8   2.0000      -0.370434       -10.0800
   9   0.0000       0.086181         2.3451
  10   0.0000       0.119238         3.2446
  11   0.0000       0.162974         4.4347
  12   0.0000       0.164548         4.4776
  13   0.0000       0.187739         5.1086

MULLIKEN ATOMIC CHARGES
-----------------------
   0 C :   -0.000949
   1 O :    0.000675
   2 H :   -0.001011
   3 H :    0.000104
   4 H :   -0.000193
   5 H :   -0.001883
   6 C :   -0.156967
   7 O :   -0.464646
   8 H :    0.311887
   9 H :    0.092354
  10 H :    0.122910
  11 H :    0.097717
Sum of atomic charges:    0.0000000

LOEWDIN ATOMIC CHARGES
----------------------
   0 C :   -0.007545
   1 O :   -0.001799
   2 H :   -0.013448
   3 H :   -0.000468
   4 H :   -0.000068
   5 H :   -0.002429
   6 C :   -0.398513
   7 O :   -0.039688
   8 H :    0.158714
   9 H :    0.095489
  10 H :    0.109007
  11 H :    0.100749

  Mayer bond orders larger than 0.1
B(  6-C ,  7-O ) :   1.0011 B(  6-C ,  9-H ) :   0.9744 B(  6-C , 10-H ) :   0.9708
B(  6-C , 11-H ) :   0.9758 B(  7-O ,  8-H ) :   0.9018

Dispersion correction           -0.000228354
FINAL SINGLE POINT ENERGY      -115.734947246891

DIPOLE MOMENT
-------------
                                X             Y             Z
Electronic contribution:      1.19862      -1.44879      -0.02308
Nuclear contribution   :     -1.51311       1.66510       0.54906
                        -----------------------------------------
Total Dipole Moment    :     -0.31449       0.21630       0.52598
                        -----------------------------------------
Magnitude (a.u.)       :      0.64988
Magnitude (Debye)      :      1.65187

Rotational constants in cm-1:     4.415781     0.862192     0.825445
Rotational constants in MHz : 132381.772516 25847.858737 24746.223563

                             ****ORCA TERMINATED NORMALLY****
TOTAL RUN TIME: 0 days 0 hours 6 minutes 1 seconds 775 msec
