                         Program Version 4.1.2  - RELEASE  -
|  1> #Run DFT-D3 single point of the dimer
|  2> ! wB97X-D3 def2-TZVP TIGHTSCF CHELPG PMODEL PAL8
|  3>
|  4> %base "4-103_DFT_AB"
|  5>
|  6> %scf
|  7> MaxIter 1000
|  8> end
|  9>
| 10> * xyz 0 1
| 11>   C                      -2.198624            9.615270             1.579089
| 12>   O                      -2.591249            8.515751             2.357670
| 13>   H                      -3.042198            8.817431             3.150511
| 14>   H                      -2.964768            10.342810            1.400862
| 15>   H                      -1.380174            10.190098            2.092665
| 16>   H                      -1.801923            9.420872             0.610234
| 17>   C                      -7.741579            6.502765             4.708709
| 18>   O                      -6.830187            6.464121             3.627101
| 19>   H                      -7.199528            5.893680             2.878585
| 20>   H                      -7.395939            7.084489             5.532735
| 21>   H                      -8.659942            7.097401             4.333355
| 22>   H                      -7.927630            5.517504             5.124690
| 23> *
| 24>
| 25> #Run DFT-D3 single point of the molecule with dimer basis set
| 26> $new_job
| 27> %base "4-103_DFT_A"
| 28> ! wB97X-D3 def2-TZVP TIGHTSCF CHELPG PMODEL
| 29>
| 30> %scf
| 31> MaxIter 1000
| 32> end
| 33>
| 34> * xyz 0 1
| 35>   C                      -2.198624            9.615270             1.579089
| 36>   O                      -2.591249            8.515751             2.357670
| 37>   H                      -3.042198            8.817431             3.150511
| 38>   H                      -2.964768            10.342810            1.400862
| 39>   H                      -1.380174            10.190098            2.092665
| 40>   H                      -1.801923            9.420872             0.610234
| 41>   C                    : -7.741579            6.502765             4.708709
| 42>   O                    : -6.830187            6.464121             3.627101
| 43>   H                    : -7.199528            5.893680             2.878585
| 44>   H                    : -7.395939            7.084489             5.532735
| 45>   H                    : -8.659942            7.097401             4.333355
| 46>   H                    : -7.927630            5.517504             5.124690
| 47> *
| 48>
| 49> #Run DFT-D3 single point of the particle with dimer basis set
| 50> $new_job
| 51> %base "4-103_DFT_B"
| 52> ! wB97X-D3 def2-TZVP TIGHTSCF CHELPG PMODEL
| 53>
| 54> %scf
| 55> MaxIter 1000
| 56> end
| 57>
| 58> * xyz 0 1
| 59>   C                    : -2.198624            9.615270             1.579089
| 60>   O                    : -2.591249            8.515751             2.357670
| 61>   H                    : -3.042198            8.817431             3.150511
| 62>   H                    : -2.964768            10.342810            1.400862
| 63>   H                    : -1.380174            10.190098            2.092665
| 64>   H                    : -1.801923            9.420872             0.610234
| 65>   C                      -7.741579            6.502765             4.708709
| 66>   O                      -6.830187            6.464121             3.627101
| 67>   H                      -7.199528            5.893680             2.878585
| 68>   H                      -7.395939            7.084489             5.532735
| 69>   H                      -8.659942            7.097401             4.333355
| 70>   H                      -7.927630            5.517504             5.124690
| 71> *
| 72>
| 73>                          ****END OF INPUT****
 Total Charge           Charge          ....    0
 Multiplicity           Mult            ....    1
 Number of Electrons    NEL             ....   36
Dispersion correction           -0.000610348
FINAL SINGLE POINT ENERGY      -231.460273919482
Dispersion correction           -0.000249903
FINAL SINGLE POINT ENERGY      -115.731888085837

CARTESIAN COORDINATES (ANGSTROEM)
---------------------------------
  C     -2.198624    9.615270    1.579089
  O     -2.591249    8.515751    2.357670
  H     -3.042198    8.817431    3.150511
  H     -2.964768   10.342810    1.400862
  H     -1.380174   10.190098    2.092665
  H     -1.801923    9.420872    0.610234
  C     -7.741579    6.502765    4.708709
  O     -6.830187    6.464121    3.627101
  H     -7.199528    5.893680    2.878585
  H     -7.395939    7.084489    5.532735
  H     -8.659942    7.097401    4.333355
  H     -7.927630    5.517504    5.124690

 Multiplicity           Mult            ....    1
 Number of Electrons    NEL             ....   18
 Basis Dimension        Dim             ....  172

ORBITAL ENERGIES
----------------

  NO   OCC          E(Eh)            E(eV)
   0   2.0000     -19.231889      -523.3263
   1   2.0000     -10.315154      -280.6896
   2   2.0000      -1.124509       -30.5994
   3   2.0000      -0.791274       -21.5317
   4   2.0000      -0.597937       -16.2707
   5   2.0000      -0.545089       -14.8326
   6   2.0000      -0.530386       -14.4325
   7   2.0000      -0.420998       -11.4559
   8   2.0000      -0.370860       -10.0916
   9   0.0000       0.092610         2.5200
  10   0.0000       0.109597         2.9823
  11   0.0000       0.151409         4.1200
  12   0.0000       0.171875         4.6770
  13   0.0000       0.197229         5.3669

MULLIKEN ATOMIC CHARGES
-----------------------
   0 C :    0.000031
   1 O :    0.000005
   2 H :   -0.000275
   3 H :   -0.000005
   4 H :   -0.000001
   5 H :    0.000002
   6 C :   -0.161157
   7 O :   -0.481760
   8 H :    0.320564
   9 H :    0.123843
  10 H :    0.096057
  11 H :    0.102697
Sum of atomic charges:    0.0000000

LOEWDIN ATOMIC CHARGES
----------------------
   0 C :   -0.000002
   1 O :   -0.000014
   2 H :   -0.000132
   3 H :   -0.000000
   4 H :   -0.000000
   5 H :   -0.000000
   6 C :   -0.392469
   7 O :   -0.105599
   8 H :    0.197532
   9 H :    0.101011
  10 H :    0.106921
  11 H :    0.092752

  Mayer bond orders larger than 0.1
B(  6-C ,  7-O ) :   1.0000 B(  6-C ,  9-H ) :   0.9697 B(  6-C , 10-H ) :   0.9843
B(  6-C , 11-H ) :   0.9735 B(  7-O ,  8-H ) :   0.8877

Dispersion correction           -0.000251658
FINAL SINGLE POINT ENERGY      -115.728233984440

DIPOLE MOMENT
-------------
                                X             Y             Z
Electronic contribution:      1.31677      -0.06336      -1.23210
Nuclear contribution   :     -1.87863      -0.27048       1.22733
                        -----------------------------------------
Total Dipole Moment    :     -0.56186      -0.33384      -0.00477
                        -----------------------------------------
Magnitude (a.u.)       :      0.65358
Magnitude (Debye)      :      1.66126

Rotational constants in cm-1:     4.180309     0.815339     0.802259
Rotational constants in MHz : 125322.518048 24443.235700 24051.132962

                             ****ORCA TERMINATED NORMALLY****
TOTAL RUN TIME: 0 days 0 hours 1 minutes 34 seconds 695 msec
