                         Program Version 4.1.2  - RELEASE  -
|  1> #Run DFT-D3 single point of the dimer
|  2> ! wB97X-D3 def2-TZVP TIGHTSCF CHELPG PMODEL PAL8
|  3>
|  4> %base "2-1_DFT_AB"
|  5>
|  6> %scf
|  7> MaxIter 1000
|  8> end
|  9>
| 10> * xyz 0 1
| 11>   C                      8.949076             -5.978823            1.374421
| 12>   O                      8.061541             -5.195316            2.119433
| 13>   H                      7.149420             -5.531842            2.087189
| 14>   H                      8.545516             -6.842409            0.887766
| 15>   H                      9.373425             -5.345801            0.537664
| 16>   H                      9.797121             -6.359743            1.900939
| 17>   C                      7.861879             -4.496772            6.753961
| 18>   O                      9.034566             -3.777852            6.843670
| 19>   H                      9.748829             -4.155394            6.258686
| 20>   H                      8.176064             -5.511829            6.913816
| 21>   H                      7.103023             -4.122016            7.543424
| 22>   H                      7.464956             -4.472462            5.788678
| 23> *
| 24>
| 25> #Run DFT-D3 single point of the molecule with dimer basis set
| 26> $new_job
| 27> %base "2-1_DFT_A"
| 28> ! wB97X-D3 def2-TZVP TIGHTSCF CHELPG PMODEL
| 29>
| 30> %scf
| 31> MaxIter 1000
| 32> end
| 33>
| 34> * xyz 0 1
| 35>   C                      8.949076             -5.978823            1.374421
| 36>   O                      8.061541             -5.195316            2.119433
| 37>   H                      7.149420             -5.531842            2.087189
| 38>   H                      8.545516             -6.842409            0.887766
| 39>   H                      9.373425             -5.345801            0.537664
| 40>   H                      9.797121             -6.359743            1.900939
| 41>   C                    : 7.861879             -4.496772            6.753961
| 42>   O                    : 9.034566             -3.777852            6.843670
| 43>   H                    : 9.748829             -4.155394            6.258686
| 44>   H                    : 8.176064             -5.511829            6.913816
| 45>   H                    : 7.103023             -4.122016            7.543424
| 46>   H                    : 7.464956             -4.472462            5.788678
| 47> *
| 48>
| 49> #Run DFT-D3 single point of the particle with dimer basis set
| 50> $new_job
| 51> %base "2-1_DFT_B"
| 52> ! wB97X-D3 def2-TZVP TIGHTSCF CHELPG PMODEL
| 53>
| 54> %scf
| 55> MaxIter 1000
| 56> end
| 57>
| 58> * xyz 0 1
| 59>   C                    : 8.949076             -5.978823            1.374421
| 60>   O                    : 8.061541             -5.195316            2.119433
| 61>   H                    : 7.149420             -5.531842            2.087189
| 62>   H                    : 8.545516             -6.842409            0.887766
| 63>   H                    : 9.373425             -5.345801            0.537664
| 64>   H                    : 9.797121             -6.359743            1.900939
| 65>   C                      7.861879             -4.496772            6.753961
| 66>   O                      9.034566             -3.777852            6.843670
| 67>   H                      9.748829             -4.155394            6.258686
| 68>   H                      8.176064             -5.511829            6.913816
| 69>   H                      7.103023             -4.122016            7.543424
| 70>   H                      7.464956             -4.472462            5.788678
| 71> *
| 72>
| 73>                          ****END OF INPUT****
 Total Charge           Charge          ....    0
 Multiplicity           Mult            ....    1
 Number of Electrons    NEL             ....   36
Dispersion correction           -0.000766985
FINAL SINGLE POINT ENERGY      -231.458003504595
Dispersion correction           -0.000265437
FINAL SINGLE POINT ENERGY      -115.731552697577

CARTESIAN COORDINATES (ANGSTROEM)
---------------------------------
  C      8.949076   -5.978823    1.374421
  O      8.061541   -5.195316    2.119433
  H      7.149420   -5.531842    2.087189
  H      8.545516   -6.842409    0.887766
  H      9.373425   -5.345801    0.537664
  H      9.797121   -6.359743    1.900939
  C      7.861879   -4.496772    6.753961
  O      9.034566   -3.777852    6.843670
  H      9.748829   -4.155394    6.258686
  H      8.176064   -5.511829    6.913816
  H      7.103023   -4.122016    7.543424
  H      7.464956   -4.472462    5.788678

 Multiplicity           Mult            ....    1
 Number of Electrons    NEL             ....   18
 Basis Dimension        Dim             ....  172

ORBITAL ENERGIES
----------------

  NO   OCC          E(Eh)            E(eV)
   0   2.0000     -19.225862      -523.1623
   1   2.0000     -10.308060      -280.4966
   2   2.0000      -1.137156       -30.9436
   3   2.0000      -0.789867       -21.4934
   4   2.0000      -0.615344       -16.7444
   5   2.0000      -0.549239       -14.9456
   6   2.0000      -0.527427       -14.3520
   7   2.0000      -0.423598       -11.5267
   8   2.0000      -0.364719        -9.9245
   9   0.0000       0.078609         2.1391
  10   0.0000       0.110259         3.0003
  11   0.0000       0.144649         3.9361
  12   0.0000       0.166567         4.5325
  13   0.0000       0.192650         5.2423

MULLIKEN ATOMIC CHARGES
-----------------------
   0 C :    0.000024
   1 O :   -0.000003
   2 H :   -0.000074
   3 H :   -0.000000
   4 H :   -0.000001
   5 H :   -0.000002
   6 C :   -0.144414
   7 O :   -0.485705
   8 H :    0.318104
   9 H :    0.095249
  10 H :    0.115869
  11 H :    0.100953
Sum of atomic charges:    0.0000000

LOEWDIN ATOMIC CHARGES
----------------------
   0 C :   -0.000013
   1 O :   -0.000105
   2 H :   -0.000104
   3 H :   -0.000000
   4 H :   -0.000000
   5 H :   -0.000002
   6 C :   -0.408538
   7 O :   -0.076618
   8 H :    0.190949
   9 H :    0.091328
  10 H :    0.122749
  11 H :    0.080354

  Mayer bond orders larger than 0.1
B(  6-C ,  7-O ) :   0.9876 B(  6-C ,  9-H ) :   0.9959 B(  6-C , 10-H ) :   0.9658
B(  6-C , 11-H ) :   0.9738 B(  7-O ,  8-H ) :   0.8873

Dispersion correction           -0.000210232
FINAL SINGLE POINT ENERGY      -115.725590904923

DIPOLE MOMENT
-------------
                                X             Y             Z
Electronic contribution:      1.33809       1.03963       0.16391
Nuclear contribution   :     -1.33184      -1.56686      -0.58647
                        -----------------------------------------
Total Dipole Moment    :      0.00625      -0.52723      -0.42257
                        -----------------------------------------
Magnitude (a.u.)       :      0.67570
Magnitude (Debye)      :      1.71750

Rotational constants in cm-1:     4.215263     0.878877     0.829388
Rotational constants in MHz : 126370.398656 26348.059960 24864.414966

                             ****ORCA TERMINATED NORMALLY****
TOTAL RUN TIME: 0 days 0 hours 4 minutes 44 seconds 399 msec
