                         Program Version 4.1.2  - RELEASE  -
|  1> #Run DFT-D3 single point of the dimer
|  2> ! wB97X-D3 def2-TZVP TIGHTSCF CHELPG PMODEL PAL8
|  3>
|  4> %base "17-128_DFT_AB"
|  5>
|  6> %scf
|  7> MaxIter 1000
|  8> end
|  9>
| 10> * xyz 0 1
| 11>   C                      1.263298             8.071151             1.297706
| 12>   O                      1.107930             8.673241             2.604837
| 13>   H                      1.560115             9.489564             2.538540
| 14>   H                      2.336274             7.912194             1.074222
| 15>   H                      0.795633             7.135600             1.198332
| 16>   H                      0.729675             8.716011             0.583347
| 17>   C                      -0.445932            5.554974             3.372551
| 18>   O                      -0.663592            6.769137             4.080344
| 19>   H                      0.032541             7.339053             3.796839
| 20>   H                      -0.915059            5.486285             2.342016
| 21>   H                      0.646634             5.279527             3.239497
| 22>   H                      -0.797470            4.678995             3.995883
| 23> *
| 24>
| 25> #Run DFT-D3 single point of the molecule with dimer basis set
| 26> $new_job
| 27> %base "17-128_DFT_A"
| 28> ! wB97X-D3 def2-TZVP TIGHTSCF CHELPG PMODEL
| 29>
| 30> %scf
| 31> MaxIter 1000
| 32> end
| 33>
| 34> * xyz 0 1
| 35>   C                      1.263298             8.071151             1.297706
| 36>   O                      1.107930             8.673241             2.604837
| 37>   H                      1.560115             9.489564             2.538540
| 38>   H                      2.336274             7.912194             1.074222
| 39>   H                      0.795633             7.135600             1.198332
| 40>   H                      0.729675             8.716011             0.583347
| 41>   C                    : -0.445932            5.554974             3.372551
| 42>   O                    : -0.663592            6.769137             4.080344
| 43>   H                    : 0.032541             7.339053             3.796839
| 44>   H                    : -0.915059            5.486285             2.342016
| 45>   H                    : 0.646634             5.279527             3.239497
| 46>   H                    : -0.797470            4.678995             3.995883
| 47> *
| 48>
| 49> #Run DFT-D3 single point of the particle with dimer basis set
| 50> $new_job
| 51> %base "17-128_DFT_B"
| 52> ! wB97X-D3 def2-TZVP TIGHTSCF CHELPG PMODEL
| 53>
| 54> %scf
| 55> MaxIter 1000
| 56> end
| 57>
| 58> * xyz 0 1
| 59>   C                    : 1.263298             8.071151             1.297706
| 60>   O                    : 1.107930             8.673241             2.604837
| 61>   H                    : 1.560115             9.489564             2.538540
| 62>   H                    : 2.336274             7.912194             1.074222
| 63>   H                    : 0.795633             7.135600             1.198332
| 64>   H                    : 0.729675             8.716011             0.583347
| 65>   C                      -0.445932            5.554974             3.372551
| 66>   O                      -0.663592            6.769137             4.080344
| 67>   H                      0.032541             7.339053             3.796839
| 68>   H                      -0.915059            5.486285             2.342016
| 69>   H                      0.646634             5.279527             3.239497
| 70>   H                      -0.797470            4.678995             3.995883
| 71> *
| 72>
| 73>                          ****END OF INPUT****
 Total Charge           Charge          ....    0
 Multiplicity           Mult            ....    1
 Number of Electrons    NEL             ....   36
Dispersion correction           -0.002128762
FINAL SINGLE POINT ENERGY      -231.471281715433
Dispersion correction           -0.000233096
FINAL SINGLE POINT ENERGY      -115.732112198822

CARTESIAN COORDINATES (ANGSTROEM)
---------------------------------
  C      1.263298    8.071151    1.297706
  O      1.107930    8.673241    2.604837
  H      1.560115    9.489564    2.538540
  H      2.336274    7.912194    1.074222
  H      0.795633    7.135600    1.198332
  H      0.729675    8.716011    0.583347
  C     -0.445932    5.554974    3.372551
  O     -0.663592    6.769137    4.080344
  H      0.032541    7.339053    3.796839
  H     -0.915059    5.486285    2.342016
  H      0.646634    5.279527    3.239497
  H     -0.797470    4.678995    3.995883

 Multiplicity           Mult            ....    1
 Number of Electrons    NEL             ....   18
 Basis Dimension        Dim             ....  172

ORBITAL ENERGIES
----------------

  NO   OCC          E(Eh)            E(eV)
   0   2.0000     -19.236553      -523.4532
   1   2.0000     -10.326693      -281.0036
   2   2.0000      -1.142909       -31.1001
   3   2.0000      -0.789038       -21.4708
   4   2.0000      -0.612827       -16.6759
   5   2.0000      -0.537075       -14.6145
   6   2.0000      -0.520787       -14.1713
   7   2.0000      -0.433225       -11.7887
   8   2.0000      -0.379550       -10.3281
   9   0.0000       0.070639         1.9222
  10   0.0000       0.134479         3.6593
  11   0.0000       0.140184         3.8146
  12   0.0000       0.173212         4.7133
  13   0.0000       0.181374         4.9354

MULLIKEN ATOMIC CHARGES
-----------------------
   0 C :   -0.004132
   1 O :   -0.002088
   2 H :   -0.000277
   3 H :   -0.000025
   4 H :   -0.000446
   5 H :    0.000272
   6 C :   -0.191370
   7 O :   -0.452673
   8 H :    0.313974
   9 H :    0.106072
  10 H :    0.105216
  11 H :    0.125478
Sum of atomic charges:   -0.0000000

LOEWDIN ATOMIC CHARGES
----------------------
   0 C :   -0.006456
   1 O :   -0.013720
   2 H :   -0.000597
   3 H :   -0.000098
   4 H :   -0.003586
   5 H :   -0.000065
   6 C :   -0.399253
   7 O :   -0.059584
   8 H :    0.165140
   9 H :    0.102321
  10 H :    0.102354
  11 H :    0.113546

  Mayer bond orders larger than 0.1
B(  6-C ,  7-O ) :   1.0028 B(  6-C ,  9-H ) :   0.9641 B(  6-C , 10-H ) :   0.9757
B(  6-C , 11-H ) :   0.9733 B(  7-O ,  8-H ) :   0.9093

Dispersion correction           -0.000275556
FINAL SINGLE POINT ENERGY      -115.731853335686

DIPOLE MOMENT
-------------
                                X             Y             Z
Electronic contribution:     -0.48102       1.69009       0.99023
Nuclear contribution   :      1.02128      -1.80382      -1.41606
                        -----------------------------------------
Total Dipole Moment    :      0.54027      -0.11374      -0.42583
                        -----------------------------------------
Magnitude (a.u.)       :      0.69725
Magnitude (Debye)      :      1.77227

Rotational constants in cm-1:     4.177191     0.805148     0.784119
Rotational constants in MHz : 125229.028220 24137.739046 23507.288183

                             ****ORCA TERMINATED NORMALLY****
TOTAL RUN TIME: 0 days 0 hours 1 minutes 14 seconds 170 msec
