                         Program Version 4.1.2  - RELEASE  -
|  1> #Run DFT-D3 single point of the dimer
|  2> ! wB97X-D3 def2-TZVP TIGHTSCF CHELPG PMODEL PAL8
|  3>
|  4> %base "4-58_DFT_AB"
|  5>
|  6> %scf
|  7> MaxIter 1000
|  8> end
|  9>
| 10> * xyz 0 1
| 11>   C                      -10.731025           2.823541             -1.194444
| 12>   O                      -10.503371           3.750135             -0.081358
| 13>   H                      -9.717192            3.611297             0.489731
| 14>   H                      -10.037854           3.038673             -2.059465
| 15>   H                      -10.587128           1.762189             -0.946121
| 16>   H                      -11.729911           2.863897             -1.670803
| 17>   C                      -8.175799            0.173329             -0.703508
| 18>   O                      -7.712172            0.355606             0.610750
| 19>   H                      -8.296216            -0.066847            1.230191
| 20>   H                      -8.674358            1.059910             -1.034051
| 21>   H                      -7.405601            -0.116866            -1.395031
| 22>   H                      -8.910950            -0.641238            -0.730880
| 23> *
| 24>
| 25> #Run DFT-D3 single point of the molecule with dimer basis set
| 26> $new_job
| 27> %base "4-58_DFT_A"
| 28> ! wB97X-D3 def2-TZVP TIGHTSCF CHELPG PMODEL
| 29>
| 30> %scf
| 31> MaxIter 1000
| 32> end
| 33>
| 34> * xyz 0 1
| 35>   C                      -10.731025           2.823541             -1.194444
| 36>   O                      -10.503371           3.750135             -0.081358
| 37>   H                      -9.717192            3.611297             0.489731
| 38>   H                      -10.037854           3.038673             -2.059465
| 39>   H                      -10.587128           1.762189             -0.946121
| 40>   H                      -11.729911           2.863897             -1.670803
| 41>   C                    : -8.175799            0.173329             -0.703508
| 42>   O                    : -7.712172            0.355606             0.610750
| 43>   H                    : -8.296216            -0.066847            1.230191
| 44>   H                    : -8.674358            1.059910             -1.034051
| 45>   H                    : -7.405601            -0.116866            -1.395031
| 46>   H                    : -8.910950            -0.641238            -0.730880
| 47> *
| 48>
| 49> #Run DFT-D3 single point of the particle with dimer basis set
| 50> $new_job
| 51> %base "4-58_DFT_B"
| 52> ! wB97X-D3 def2-TZVP TIGHTSCF CHELPG PMODEL
| 53>
| 54> %scf
| 55> MaxIter 1000
| 56> end
| 57>
| 58> * xyz 0 1
| 59>   C                    : -10.731025           2.823541             -1.194444
| 60>   O                    : -10.503371           3.750135             -0.081358
| 61>   H                    : -9.717192            3.611297             0.489731
| 62>   H                    : -10.037854           3.038673             -2.059465
| 63>   H                    : -10.587128           1.762189             -0.946121
| 64>   H                    : -11.729911           2.863897             -1.670803
| 65>   C                      -8.175799            0.173329             -0.703508
| 66>   O                      -7.712172            0.355606             0.610750
| 67>   H                      -8.296216            -0.066847            1.230191
| 68>   H                      -8.674358            1.059910             -1.034051
| 69>   H                      -7.405601            -0.116866            -1.395031
| 70>   H                      -8.910950            -0.641238            -0.730880
| 71> *
| 72>
| 73>                          ****END OF INPUT****
 Total Charge           Charge          ....    0
 Multiplicity           Mult            ....    1
 Number of Electrons    NEL             ....   36
Dispersion correction           -0.001794526
FINAL SINGLE POINT ENERGY      -231.461125506129
Dispersion correction           -0.000319201
FINAL SINGLE POINT ENERGY      -115.726295621858

CARTESIAN COORDINATES (ANGSTROEM)
---------------------------------
  C    -10.731025    2.823541   -1.194444
  O    -10.503371    3.750135   -0.081358
  H     -9.717192    3.611297    0.489731
  H    -10.037854    3.038673   -2.059465
  H    -10.587128    1.762189   -0.946121
  H    -11.729911    2.863897   -1.670803
  C     -8.175799    0.173329   -0.703508
  O     -7.712172    0.355606    0.610750
  H     -8.296216   -0.066847    1.230191
  H     -8.674358    1.059910   -1.034051
  H     -7.405601   -0.116866   -1.395031
  H     -8.910950   -0.641238   -0.730880

 Multiplicity           Mult            ....    1
 Number of Electrons    NEL             ....   18
 Basis Dimension        Dim             ....  172

ORBITAL ENERGIES
----------------

  NO   OCC          E(Eh)            E(eV)
   0   2.0000     -19.226373      -523.1762
   1   2.0000     -10.308435      -280.5068
   2   2.0000      -1.138171       -30.9712
   3   2.0000      -0.799814       -21.7640
   4   2.0000      -0.614407       -16.7189
   5   2.0000      -0.548470       -14.9246
   6   2.0000      -0.530148       -14.4261
   7   2.0000      -0.426879       -11.6160
   8   2.0000      -0.374274       -10.1845
   9   0.0000       0.086001         2.3402
  10   0.0000       0.119586         3.2541
  11   0.0000       0.152792         4.1577
  12   0.0000       0.170651         4.6436
  13   0.0000       0.193109         5.2548

MULLIKEN ATOMIC CHARGES
-----------------------
   0 C :    0.008895
   1 O :   -0.000434
   2 H :   -0.000491
   3 H :   -0.001747
   4 H :   -0.004757
   5 H :    0.000501
   6 C :   -0.150073
   7 O :   -0.479040
   8 H :    0.317428
   9 H :    0.093153
  10 H :    0.119037
  11 H :    0.097527
Sum of atomic charges:    0.0000000

LOEWDIN ATOMIC CHARGES
----------------------
   0 C :   -0.010156
   1 O :   -0.000041
   2 H :   -0.000504
   3 H :   -0.001741
   4 H :   -0.008152
   5 H :   -0.000054
   6 C :   -0.375232
   7 O :   -0.067399
   8 H :    0.163546
   9 H :    0.100901
  10 H :    0.100370
  11 H :    0.098463

  Mayer bond orders larger than 0.1
B(  6-C ,  7-O ) :   1.0105 B(  6-C ,  9-H ) :   0.9758 B(  6-C , 10-H ) :   0.9752
B(  6-C , 11-H ) :   0.9928 B(  7-O ,  8-H ) :   0.8998

Dispersion correction           -0.000236293
FINAL SINGLE POINT ENERGY      -115.734499506712

DIPOLE MOMENT
-------------
                                X             Y             Z
Electronic contribution:      0.77192       0.34488       1.60716
Nuclear contribution   :     -1.34392      -0.71589      -1.72810
                        -----------------------------------------
Total Dipole Moment    :     -0.57200      -0.37101      -0.12094
                        -----------------------------------------
Magnitude (a.u.)       :      0.69243
Magnitude (Debye)      :      1.76001

Rotational constants in cm-1:     4.435452     0.837926     0.811758
Rotational constants in MHz : 132971.508292 25120.393197 24335.879597

                             ****ORCA TERMINATED NORMALLY****
TOTAL RUN TIME: 0 days 0 hours 1 minutes 35 seconds 946 msec
