                         Program Version 4.1.2  - RELEASE  -
|  1> #Run DFT-D3 single point of the dimer
|  2> ! wB97X-D3 def2-TZVP TIGHTSCF CHELPG PMODEL PAL8
|  3>
|  4> %base "19-60_DFT_AB"
|  5>
|  6> %scf
|  7> MaxIter 1000
|  8> end
|  9>
| 10> * xyz 0 1
| 11>   C                      7.735640             -3.628557            -5.394134
| 12>   O                      6.374040             -3.628548            -5.142410
| 13>   H                      5.933957             -4.477045            -5.105908
| 14>   H                      8.304852             -3.877057            -4.570331
| 15>   H                      7.857922             -4.475036            -6.074864
| 16>   H                      8.076524             -2.769222            -5.967372
| 17>   C                      3.148017             -4.071481            -7.203145
| 18>   O                      4.198127             -4.963453            -7.655729
| 19>   H                      4.425559             -4.809309            -8.546313
| 20>   H                      2.432921             -4.641483            -6.612205
| 21>   H                      3.665549             -3.264366            -6.604897
| 22>   H                      2.568764             -3.566599            -8.053060
| 23> *
| 24>
| 25> #Run DFT-D3 single point of the molecule with dimer basis set
| 26> $new_job
| 27> %base "19-60_DFT_A"
| 28> ! wB97X-D3 def2-TZVP TIGHTSCF CHELPG PMODEL
| 29>
| 30> %scf
| 31> MaxIter 1000
| 32> end
| 33>
| 34> * xyz 0 1
| 35>   C                      7.735640             -3.628557            -5.394134
| 36>   O                      6.374040             -3.628548            -5.142410
| 37>   H                      5.933957             -4.477045            -5.105908
| 38>   H                      8.304852             -3.877057            -4.570331
| 39>   H                      7.857922             -4.475036            -6.074864
| 40>   H                      8.076524             -2.769222            -5.967372
| 41>   C                    : 3.148017             -4.071481            -7.203145
| 42>   O                    : 4.198127             -4.963453            -7.655729
| 43>   H                    : 4.425559             -4.809309            -8.546313
| 44>   H                    : 2.432921             -4.641483            -6.612205
| 45>   H                    : 3.665549             -3.264366            -6.604897
| 46>   H                    : 2.568764             -3.566599            -8.053060
| 47> *
| 48>
| 49> #Run DFT-D3 single point of the particle with dimer basis set
| 50> $new_job
| 51> %base "19-60_DFT_B"
| 52> ! wB97X-D3 def2-TZVP TIGHTSCF CHELPG PMODEL
| 53>
| 54> %scf
| 55> MaxIter 1000
| 56> end
| 57>
| 58> * xyz 0 1
| 59>   C                    : 7.735640             -3.628557            -5.394134
| 60>   O                    : 6.374040             -3.628548            -5.142410
| 61>   H                    : 5.933957             -4.477045            -5.105908
| 62>   H                    : 8.304852             -3.877057            -4.570331
| 63>   H                    : 7.857922             -4.475036            -6.074864
| 64>   H                    : 8.076524             -2.769222            -5.967372
| 65>   C                      3.148017             -4.071481            -7.203145
| 66>   O                      4.198127             -4.963453            -7.655729
| 67>   H                      4.425559             -4.809309            -8.546313
| 68>   H                      2.432921             -4.641483            -6.612205
| 69>   H                      3.665549             -3.264366            -6.604897
| 70>   H                      2.568764             -3.566599            -8.053060
| 71> *
| 72>
| 73>                          ****END OF INPUT****
 Total Charge           Charge          ....    0
 Multiplicity           Mult            ....    1
 Number of Electrons    NEL             ....   36
Dispersion correction           -0.001461397
FINAL SINGLE POINT ENERGY      -231.460024666640
Dispersion correction           -0.000222511
FINAL SINGLE POINT ENERGY      -115.725534913738

CARTESIAN COORDINATES (ANGSTROEM)
---------------------------------
  C      7.735640   -3.628557   -5.394134
  O      6.374040   -3.628548   -5.142410
  H      5.933957   -4.477045   -5.105908
  H      8.304852   -3.877057   -4.570331
  H      7.857922   -4.475036   -6.074864
  H      8.076524   -2.769222   -5.967372
  C      3.148017   -4.071481   -7.203145
  O      4.198127   -4.963453   -7.655729
  H      4.425559   -4.809309   -8.546313
  H      2.432921   -4.641483   -6.612205
  H      3.665549   -3.264366   -6.604897
  H      2.568764   -3.566599   -8.053060

 Multiplicity           Mult            ....    1
 Number of Electrons    NEL             ....   18
 Basis Dimension        Dim             ....  172

ORBITAL ENERGIES
----------------

  NO   OCC          E(Eh)            E(eV)
   0   2.0000     -19.225206      -523.1445
   1   2.0000     -10.326154      -280.9889
   2   2.0000      -1.128551       -30.7094
   3   2.0000      -0.794503       -21.6195
   4   2.0000      -0.605191       -16.4681
   5   2.0000      -0.540323       -14.7029
   6   2.0000      -0.516506       -14.0549
   7   2.0000      -0.431847       -11.7512
   8   2.0000      -0.373823       -10.1722
   9   0.0000       0.092270         2.5108
  10   0.0000       0.121601         3.3089
  11   0.0000       0.149781         4.0758
  12   0.0000       0.172996         4.7074
  13   0.0000       0.191160         5.2017

MULLIKEN ATOMIC CHARGES
-----------------------
   0 C :   -0.000302
   1 O :    0.000123
   2 H :   -0.000986
   3 H :   -0.000094
   4 H :   -0.000772
   5 H :    0.000073
   6 C :   -0.171120
   7 O :   -0.484048
   8 H :    0.311018
   9 H :    0.124353
  10 H :    0.113833
  11 H :    0.107922
Sum of atomic charges:    0.0000000

LOEWDIN ATOMIC CHARGES
----------------------
   0 C :   -0.000607
   1 O :   -0.001039
   2 H :   -0.002393
   3 H :   -0.000012
   4 H :   -0.000329
   5 H :   -0.000007
   6 C :   -0.362726
   7 O :   -0.091565
   8 H :    0.144788
   9 H :    0.102713
  10 H :    0.105939
  11 H :    0.105240

  Mayer bond orders larger than 0.1
B(  6-C ,  7-O ) :   0.9870 B(  6-C ,  9-H ) :   0.9717 B(  6-C , 10-H ) :   0.9754
B(  6-C , 11-H ) :   0.9744 B(  7-O ,  8-H ) :   0.9050

Dispersion correction           -0.000276373
FINAL SINGLE POINT ENERGY      -115.731633582043

DIPOLE MOMENT
-------------
                                X             Y             Z
Electronic contribution:      1.24373      -1.20269      -0.43790
Nuclear contribution   :     -1.54947       1.66817       0.02184
                        -----------------------------------------
Total Dipole Moment    :     -0.30574       0.46548      -0.41606
                        -----------------------------------------
Magnitude (a.u.)       :      0.69517
Magnitude (Debye)      :      1.76697

Rotational constants in cm-1:     4.150095     0.790803     0.769531
Rotational constants in MHz : 124416.731717 23707.679323 23069.954072

                             ****ORCA TERMINATED NORMALLY****
TOTAL RUN TIME: 0 days 0 hours 0 minutes 49 seconds 542 msec
