                         Program Version 4.1.2  - RELEASE  -
|  1> #Run DFT-D3 single point of the dimer
|  2> ! wB97X-D3 def2-TZVP TIGHTSCF CHELPG PMODEL PAL8
|  3>
|  4> %base "21-33_DFT_AB"
|  5>
|  6> %scf
|  7> MaxIter 1000
|  8> end
|  9>
| 10> * xyz 0 1
| 11>   C                      2.453454             1.166860             -5.874115
| 12>   O                      3.686145             1.240109             -5.184784
| 13>   H                      3.920853             2.166736             -5.242162
| 14>   H                      1.624176             1.779049             -5.362332
| 15>   H                      2.542419             1.779453             -6.767790
| 16>   H                      2.112095             0.179773             -6.170195
| 17>   C                      4.300986             3.277837             -0.779412
| 18>   O                      4.135071             1.899110             -0.580720
| 19>   H                      3.524675             1.661113             -1.263119
| 20>   H                      4.367841             3.429824             -1.873879
| 21>   H                      3.404084             3.864418             -0.389898
| 22>   H                      5.150771             3.684024             -0.288864
| 23> *
| 24>
| 25> #Run DFT-D3 single point of the molecule with dimer basis set
| 26> $new_job
| 27> %base "21-33_DFT_A"
| 28> ! wB97X-D3 def2-TZVP TIGHTSCF CHELPG PMODEL
| 29>
| 30> %scf
| 31> MaxIter 1000
| 32> end
| 33>
| 34> * xyz 0 1
| 35>   C                      2.453454             1.166860             -5.874115
| 36>   O                      3.686145             1.240109             -5.184784
| 37>   H                      3.920853             2.166736             -5.242162
| 38>   H                      1.624176             1.779049             -5.362332
| 39>   H                      2.542419             1.779453             -6.767790
| 40>   H                      2.112095             0.179773             -6.170195
| 41>   C                    : 4.300986             3.277837             -0.779412
| 42>   O                    : 4.135071             1.899110             -0.580720
| 43>   H                    : 3.524675             1.661113             -1.263119
| 44>   H                    : 4.367841             3.429824             -1.873879
| 45>   H                    : 3.404084             3.864418             -0.389898
| 46>   H                    : 5.150771             3.684024             -0.288864
| 47> *
| 48>
| 49> #Run DFT-D3 single point of the particle with dimer basis set
| 50> $new_job
| 51> %base "21-33_DFT_B"
| 52> ! wB97X-D3 def2-TZVP TIGHTSCF CHELPG PMODEL
| 53>
| 54> %scf
| 55> MaxIter 1000
| 56> end
| 57>
| 58> * xyz 0 1
| 59>   C                    : 2.453454             1.166860             -5.874115
| 60>   O                    : 3.686145             1.240109             -5.184784
| 61>   H                    : 3.920853             2.166736             -5.242162
| 62>   H                    : 1.624176             1.779049             -5.362332
| 63>   H                    : 2.542419             1.779453             -6.767790
| 64>   H                    : 2.112095             0.179773             -6.170195
| 65>   C                      4.300986             3.277837             -0.779412
| 66>   O                      4.135071             1.899110             -0.580720
| 67>   H                      3.524675             1.661113             -1.263119
| 68>   H                      4.367841             3.429824             -1.873879
| 69>   H                      3.404084             3.864418             -0.389898
| 70>   H                      5.150771             3.684024             -0.288864
| 71> *
| 72>
| 73>                          ****END OF INPUT****
 Total Charge           Charge          ....    0
 Multiplicity           Mult            ....    1
 Number of Electrons    NEL             ....   36
Dispersion correction           -0.000794434
FINAL SINGLE POINT ENERGY      -231.461530094400
Dispersion correction           -0.000230652
FINAL SINGLE POINT ENERGY      -115.728513269354

CARTESIAN COORDINATES (ANGSTROEM)
---------------------------------
  C      2.453454    1.166860   -5.874115
  O      3.686145    1.240109   -5.184784
  H      3.920853    2.166736   -5.242162
  H      1.624176    1.779049   -5.362332
  H      2.542419    1.779453   -6.767790
  H      2.112095    0.179773   -6.170195
  C      4.300986    3.277837   -0.779412
  O      4.135071    1.899110   -0.580720
  H      3.524675    1.661113   -1.263119
  H      4.367841    3.429824   -1.873879
  H      3.404084    3.864418   -0.389898
  H      5.150771    3.684024   -0.288864

 Multiplicity           Mult            ....    1
 Number of Electrons    NEL             ....   18
 Basis Dimension        Dim             ....  172

ORBITAL ENERGIES
----------------

  NO   OCC          E(Eh)            E(eV)
   0   2.0000     -19.229526      -523.2620
   1   2.0000     -10.315665      -280.7035
   2   2.0000      -1.146653       -31.2020
   3   2.0000      -0.791918       -21.5492
   4   2.0000      -0.612189       -16.6585
   5   2.0000      -0.541571       -14.7369
   6   2.0000      -0.535329       -14.5671
   7   2.0000      -0.438237       -11.9250
   8   2.0000      -0.370561       -10.0835
   9   0.0000       0.074023         2.0143
  10   0.0000       0.114140         3.1059
  11   0.0000       0.155162         4.2222
  12   0.0000       0.163954         4.4614
  13   0.0000       0.189271         5.1503

MULLIKEN ATOMIC CHARGES
-----------------------
   0 C :   -0.000017
   1 O :   -0.000002
   2 H :   -0.000037
   3 H :   -0.000007
   4 H :   -0.000001
   5 H :    0.000001
   6 C :   -0.173561
   7 O :   -0.456791
   8 H :    0.313265
   9 H :    0.099572
  10 H :    0.093985
  11 H :    0.123592
Sum of atomic charges:    0.0000000

LOEWDIN ATOMIC CHARGES
----------------------
   0 C :   -0.000025
   1 O :   -0.000043
   2 H :   -0.000129
   3 H :   -0.000004
   4 H :   -0.000001
   5 H :   -0.000000
   6 C :   -0.396121
   7 O :   -0.063823
   8 H :    0.164136
   9 H :    0.097739
  10 H :    0.100094
  11 H :    0.098177

  Mayer bond orders larger than 0.1
B(  6-C ,  7-O ) :   1.0022 B(  6-C ,  9-H ) :   0.9892 B(  6-C , 10-H ) :   0.9712
B(  6-C , 11-H ) :   0.9725 B(  7-O ,  8-H ) :   0.9052

Dispersion correction           -0.000219188
FINAL SINGLE POINT ENERGY      -115.732230049624

DIPOLE MOMENT
-------------
                                X             Y             Z
Electronic contribution:      0.02098      -1.81830       0.43837
Nuclear contribution   :     -0.31047       2.18636      -0.94304
                        -----------------------------------------
Total Dipole Moment    :     -0.28949       0.36806      -0.50468
                        -----------------------------------------
Magnitude (a.u.)       :      0.68846
Magnitude (Debye)      :      1.74992

Rotational constants in cm-1:     4.208317     0.848079     0.818299
Rotational constants in MHz : 126162.176830 25424.757497 24531.980444

                             ****ORCA TERMINATED NORMALLY****
TOTAL RUN TIME: 0 days 0 hours 1 minutes 0 seconds 188 msec
