                         Program Version 4.1.2  - RELEASE  -
|  1> #Run DFT-D3 single point of the dimer
|  2> ! wB97X-D3 def2-TZVP TIGHTSCF CHELPG PMODEL PAL8
|  3>
|  4> %base "9-122_DFT_AB"
|  5>
|  6> %scf
|  7> MaxIter 1000
|  8> end
|  9>
| 10> * xyz 0 1
| 11>   C                      9.572446             10.475268            -8.562947
| 12>   O                      10.798079            10.308892            -9.289003
| 13>   H                      10.586593            10.330603            -10.240084
| 14>   H                      9.851286             10.567804            -7.528635
| 15>   H                      8.970476             11.413618            -8.826023
| 16>   H                      8.896146             9.621918             -8.749906
| 17>   C                      10.075611            6.830938             -8.894365
| 18>   O                      8.833961             6.302375             -8.430890
| 19>   H                      8.378268             6.007736             -9.213528
| 20>   H                      10.782056            7.052458             -8.123057
| 21>   H                      10.633551            6.010513             -9.486578
| 22>   H                      10.056742            7.765154             -9.460617
| 23> *
| 24>
| 25> #Run DFT-D3 single point of the molecule with dimer basis set
| 26> $new_job
| 27> %base "9-122_DFT_A"
| 28> ! wB97X-D3 def2-TZVP TIGHTSCF CHELPG PMODEL
| 29>
| 30> %scf
| 31> MaxIter 1000
| 32> end
| 33>
| 34> * xyz 0 1
| 35>   C                      9.572446             10.475268            -8.562947
| 36>   O                      10.798079            10.308892            -9.289003
| 37>   H                      10.586593            10.330603            -10.240084
| 38>   H                      9.851286             10.567804            -7.528635
| 39>   H                      8.970476             11.413618            -8.826023
| 40>   H                      8.896146             9.621918             -8.749906
| 41>   C                    : 10.075611            6.830938             -8.894365
| 42>   O                    : 8.833961             6.302375             -8.430890
| 43>   H                    : 8.378268             6.007736             -9.213528
| 44>   H                    : 10.782056            7.052458             -8.123057
| 45>   H                    : 10.633551            6.010513             -9.486578
| 46>   H                    : 10.056742            7.765154             -9.460617
| 47> *
| 48>
| 49> #Run DFT-D3 single point of the particle with dimer basis set
| 50> $new_job
| 51> %base "9-122_DFT_B"
| 52> ! wB97X-D3 def2-TZVP TIGHTSCF CHELPG PMODEL
| 53>
| 54> %scf
| 55> MaxIter 1000
| 56> end
| 57>
| 58> * xyz 0 1
| 59>   C                    : 9.572446             10.475268            -8.562947
| 60>   O                    : 10.798079            10.308892            -9.289003
| 61>   H                    : 10.586593            10.330603            -10.240084
| 62>   H                    : 9.851286             10.567804            -7.528635
| 63>   H                    : 8.970476             11.413618            -8.826023
| 64>   H                    : 8.896146             9.621918             -8.749906
| 65>   C                      10.075611            6.830938             -8.894365
| 66>   O                      8.833961             6.302375             -8.430890
| 67>   H                      8.378268             6.007736             -9.213528
| 68>   H                      10.782056            7.052458             -8.123057
| 69>   H                      10.633551            6.010513             -9.486578
| 70>   H                      10.056742            7.765154             -9.460617
| 71> *
| 72>
| 73>                          ****END OF INPUT****
 Total Charge           Charge          ....    0
 Multiplicity           Mult            ....    1
 Number of Electrons    NEL             ....   36
Dispersion correction           -0.001928034
FINAL SINGLE POINT ENERGY      -231.467576315644
Dispersion correction           -0.000261017
FINAL SINGLE POINT ENERGY      -115.735132327717

CARTESIAN COORDINATES (ANGSTROEM)
---------------------------------
  C      9.572446   10.475268   -8.562947
  O     10.798079   10.308892   -9.289003
  H     10.586593   10.330603  -10.240084
  H      9.851286   10.567804   -7.528635
  H      8.970476   11.413618   -8.826023
  H      8.896146    9.621918   -8.749906
  C     10.075611    6.830938   -8.894365
  O      8.833961    6.302375   -8.430890
  H      8.378268    6.007736   -9.213528
  H     10.782056    7.052458   -8.123057
  H     10.633551    6.010513   -9.486578
  H     10.056742    7.765154   -9.460617

 Multiplicity           Mult            ....    1
 Number of Electrons    NEL             ....   18
 Basis Dimension        Dim             ....  172

ORBITAL ENERGIES
----------------

  NO   OCC          E(Eh)            E(eV)
   0   2.0000     -19.235389      -523.4215
   1   2.0000     -10.318119      -280.7703
   2   2.0000      -1.137885       -30.9634
   3   2.0000      -0.797198       -21.6929
   4   2.0000      -0.607752       -16.5378
   5   2.0000      -0.539396       -14.6777
   6   2.0000      -0.530330       -14.4310
   7   2.0000      -0.431724       -11.7478
   8   2.0000      -0.378038       -10.2869
   9   0.0000       0.085696         2.3319
  10   0.0000       0.120472         3.2782
  11   0.0000       0.150247         4.0884
  12   0.0000       0.164541         4.4774
  13   0.0000       0.195043         5.3074

MULLIKEN ATOMIC CHARGES
-----------------------
   0 C :   -0.004433
   1 O :    0.000859
   2 H :   -0.000187
   3 H :    0.000001
   4 H :    0.000243
   5 H :    0.004288
   6 C :   -0.194360
   7 O :   -0.465919
   8 H :    0.318817
   9 H :    0.123930
  10 H :    0.108468
  11 H :    0.108292
Sum of atomic charges:    0.0000000

LOEWDIN ATOMIC CHARGES
----------------------
   0 C :   -0.006660
   1 O :   -0.003016
   2 H :   -0.001466
   3 H :   -0.000143
   4 H :   -0.000032
   5 H :   -0.003630
   6 C :   -0.385658
   7 O :   -0.076168
   8 H :    0.166851
   9 H :    0.103533
  10 H :    0.106985
  11 H :    0.099404

  Mayer bond orders larger than 0.1
B(  6-C ,  7-O ) :   0.9993 B(  6-C ,  9-H ) :   0.9732 B(  6-C , 10-H ) :   0.9834
B(  6-C , 11-H ) :   0.9640 B(  7-O ,  8-H ) :   0.8995

Dispersion correction           -0.000262798
FINAL SINGLE POINT ENERGY      -115.730622443102

DIPOLE MOMENT
-------------
                                X             Y             Z
Electronic contribution:     -1.73496      -0.55594       0.80452
Nuclear contribution   :      1.94704       0.58659      -1.44396
                        -----------------------------------------
Total Dipole Moment    :      0.21208       0.03065      -0.63943
                        -----------------------------------------
Magnitude (a.u.)       :      0.67438
Magnitude (Debye)      :      1.71414

Rotational constants in cm-1:     4.360558     0.802801     0.784615
Rotational constants in MHz : 130726.249090 24067.372905 23522.155177

                             ****ORCA TERMINATED NORMALLY****
TOTAL RUN TIME: 0 days 0 hours 0 minutes 43 seconds 693 msec
