                         Program Version 4.1.2  - RELEASE  -
|  1> #Run DFT-D3 single point of the dimer
|  2> ! wB97X-D3 def2-TZVP TIGHTSCF CHELPG PMODEL PAL8
|  3>
|  4> %base "14-49_DFT_AB"
|  5>
|  6> %scf
|  7> MaxIter 1000
|  8> end
|  9>
| 10> * xyz 0 1
| 11>   C                      -3.823675            4.289136             -8.766144
| 12>   O                      -4.377185            5.267155             -9.559197
| 13>   H                      -4.576584            6.000657             -8.961619
| 14>   H                      -2.831440            4.544331             -8.466993
| 15>   H                      -4.245802            4.234392             -7.782589
| 16>   H                      -3.906820            3.308003             -9.284825
| 17>   C                      -7.605909            2.443021             -5.622041
| 18>   O                      -8.394434            3.474753             -5.066151
| 19>   H                      -8.746984            3.268596             -4.163043
| 20>   H                      -6.908455            2.024404             -4.832031
| 21>   H                      -8.242513            1.688588             -6.000919
| 22>   H                      -7.027775            2.828739             -6.512241
| 23> *
| 24>
| 25> #Run DFT-D3 single point of the molecule with dimer basis set
| 26> $new_job
| 27> %base "14-49_DFT_A"
| 28> ! wB97X-D3 def2-TZVP TIGHTSCF CHELPG PMODEL
| 29>
| 30> %scf
| 31> MaxIter 1000
| 32> end
| 33>
| 34> * xyz 0 1
| 35>   C                      -3.823675            4.289136             -8.766144
| 36>   O                      -4.377185            5.267155             -9.559197
| 37>   H                      -4.576584            6.000657             -8.961619
| 38>   H                      -2.831440            4.544331             -8.466993
| 39>   H                      -4.245802            4.234392             -7.782589
| 40>   H                      -3.906820            3.308003             -9.284825
| 41>   C                    : -7.605909            2.443021             -5.622041
| 42>   O                    : -8.394434            3.474753             -5.066151
| 43>   H                    : -8.746984            3.268596             -4.163043
| 44>   H                    : -6.908455            2.024404             -4.832031
| 45>   H                    : -8.242513            1.688588             -6.000919
| 46>   H                    : -7.027775            2.828739             -6.512241
| 47> *
| 48>
| 49> #Run DFT-D3 single point of the particle with dimer basis set
| 50> $new_job
| 51> %base "14-49_DFT_B"
| 52> ! wB97X-D3 def2-TZVP TIGHTSCF CHELPG PMODEL
| 53>
| 54> %scf
| 55> MaxIter 1000
| 56> end
| 57>
| 58> * xyz 0 1
| 59>   C                    : -3.823675            4.289136             -8.766144
| 60>   O                    : -4.377185            5.267155             -9.559197
| 61>   H                    : -4.576584            6.000657             -8.961619
| 62>   H                    : -2.831440            4.544331             -8.466993
| 63>   H                    : -4.245802            4.234392             -7.782589
| 64>   H                    : -3.906820            3.308003             -9.284825
| 65>   C                      -7.605909            2.443021             -5.622041
| 66>   O                      -8.394434            3.474753             -5.066151
| 67>   H                      -8.746984            3.268596             -4.163043
| 68>   H                      -6.908455            2.024404             -4.832031
| 69>   H                      -8.242513            1.688588             -6.000919
| 70>   H                      -7.027775            2.828739             -6.512241
| 71> *
| 72>
| 73>                          ****END OF INPUT****
 Total Charge           Charge          ....    0
 Multiplicity           Mult            ....    1
 Number of Electrons    NEL             ....   36
Dispersion correction           -0.000737639
FINAL SINGLE POINT ENERGY      -231.461901829448
Dispersion correction           -0.000209828
FINAL SINGLE POINT ENERGY      -115.730001875019

CARTESIAN COORDINATES (ANGSTROEM)
---------------------------------
  C     -3.823675    4.289136   -8.766144
  O     -4.377185    5.267155   -9.559197
  H     -4.576584    6.000657   -8.961619
  H     -2.831440    4.544331   -8.466993
  H     -4.245802    4.234392   -7.782589
  H     -3.906820    3.308003   -9.284825
  C     -7.605909    2.443021   -5.622041
  O     -8.394434    3.474753   -5.066151
  H     -8.746984    3.268596   -4.163043
  H     -6.908455    2.024404   -4.832031
  H     -8.242513    1.688588   -6.000919
  H     -7.027775    2.828739   -6.512241

 Multiplicity           Mult            ....    1
 Number of Electrons    NEL             ....   18
 Basis Dimension        Dim             ....  172

ORBITAL ENERGIES
----------------

  NO   OCC          E(Eh)            E(eV)
   0   2.0000     -19.227610      -523.2099
   1   2.0000     -10.316866      -280.7362
   2   2.0000      -1.125963       -30.6390
   3   2.0000      -0.791233       -21.5305
   4   2.0000      -0.604046       -16.4369
   5   2.0000      -0.543809       -14.7978
   6   2.0000      -0.525971       -14.3124
   7   2.0000      -0.421605       -11.4725
   8   2.0000      -0.369966       -10.0673
   9   0.0000       0.086508         2.3540
  10   0.0000       0.112151         3.0518
  11   0.0000       0.148482         4.0404
  12   0.0000       0.170799         4.6477
  13   0.0000       0.186074         5.0633

MULLIKEN ATOMIC CHARGES
-----------------------
   0 C :   -0.000124
   1 O :   -0.000003
   2 H :   -0.000003
   3 H :    0.000003
   4 H :    0.000045
   5 H :   -0.000012
   6 C :   -0.154571
   7 O :   -0.494963
   8 H :    0.321016
   9 H :    0.099705
  10 H :    0.108822
  11 H :    0.120086
Sum of atomic charges:    0.0000000

LOEWDIN ATOMIC CHARGES
----------------------
   0 C :   -0.000240
   1 O :   -0.000001
   2 H :   -0.000002
   3 H :   -0.000001
   4 H :   -0.000316
   5 H :   -0.000015
   6 C :   -0.388361
   7 O :   -0.098917
   8 H :    0.184679
   9 H :    0.102001
  10 H :    0.085554
  11 H :    0.115618

  Mayer bond orders larger than 0.1
B(  6-C ,  7-O ) :   0.9928 B(  6-C ,  9-H ) :   0.9804 B(  6-C , 10-H ) :   0.9765
B(  6-C , 11-H ) :   0.9684 B(  7-O ,  8-H ) :   0.8874

Dispersion correction           -0.000251405
FINAL SINGLE POINT ENERGY      -115.731414828290

DIPOLE MOMENT
-------------
                                X             Y             Z
Electronic contribution:     -0.97896       1.33706       0.57565
Nuclear contribution   :      1.06014      -1.89425      -0.23429
                        -----------------------------------------
Total Dipole Moment    :      0.08118      -0.55719       0.34136
                        -----------------------------------------
Magnitude (a.u.)       :      0.65846
Magnitude (Debye)      :      1.67368

Rotational constants in cm-1:     4.193030     0.828499     0.793079
Rotational constants in MHz : 125703.863218 24837.770610 23775.905730

                             ****ORCA TERMINATED NORMALLY****
TOTAL RUN TIME: 0 days 0 hours 0 minutes 59 seconds 358 msec
