                         Program Version 4.1.2  - RELEASE  -
|  1> #Run DFT-D3 single point of the dimer
|  2> ! wB97X-D3 def2-TZVP TIGHTSCF CHELPG PMODEL PAL8
|  3>
|  4> %base "22-92_DFT_AB"
|  5>
|  6> %scf
|  7> MaxIter 1000
|  8> end
|  9>
| 10> * xyz 0 1
| 11>   C                      2.808889             0.844054             -8.414163
| 12>   O                      2.751306             -0.322919            -7.643315
| 13>   H                      2.321928             -0.062151            -6.767259
| 14>   H                      3.391022             0.885911             -9.374107
| 15>   H                      1.750066             0.987597             -8.760820
| 16>   H                      3.044555             1.683032             -7.747926
| 17>   C                      0.159550             -0.695446            -5.283339
| 18>   O                      1.357969             0.049257             -5.214653
| 19>   H                      1.669129             -0.184117            -4.308228
| 20>   H                      0.216482             -1.496743            -6.077616
| 21>   H                      -0.113872            -1.182281            -4.345292
| 22>   H                      -0.685406            -0.138870            -5.644733
| 23> *
| 24>
| 25> #Run DFT-D3 single point of the molecule with dimer basis set
| 26> $new_job
| 27> %base "22-92_DFT_A"
| 28> ! wB97X-D3 def2-TZVP TIGHTSCF CHELPG PMODEL
| 29>
| 30> %scf
| 31> MaxIter 1000
| 32> end
| 33>
| 34> * xyz 0 1
| 35>   C                      2.808889             0.844054             -8.414163
| 36>   O                      2.751306             -0.322919            -7.643315
| 37>   H                      2.321928             -0.062151            -6.767259
| 38>   H                      3.391022             0.885911             -9.374107
| 39>   H                      1.750066             0.987597             -8.760820
| 40>   H                      3.044555             1.683032             -7.747926
| 41>   C                    : 0.159550             -0.695446            -5.283339
| 42>   O                    : 1.357969             0.049257             -5.214653
| 43>   H                    : 1.669129             -0.184117            -4.308228
| 44>   H                    : 0.216482             -1.496743            -6.077616
| 45>   H                    : -0.113872            -1.182281            -4.345292
| 46>   H                    : -0.685406            -0.138870            -5.644733
| 47> *
| 48>
| 49> #Run DFT-D3 single point of the particle with dimer basis set
| 50> $new_job
| 51> %base "22-92_DFT_B"
| 52> ! wB97X-D3 def2-TZVP TIGHTSCF CHELPG PMODEL
| 53>
| 54> %scf
| 55> MaxIter 1000
| 56> end
| 57>
| 58> * xyz 0 1
| 59>   C                    : 2.808889             0.844054             -8.414163
| 60>   O                    : 2.751306             -0.322919            -7.643315
| 61>   H                    : 2.321928             -0.062151            -6.767259
| 62>   H                    : 3.391022             0.885911             -9.374107
| 63>   H                    : 1.750066             0.987597             -8.760820
| 64>   H                    : 3.044555             1.683032             -7.747926
| 65>   C                      0.159550             -0.695446            -5.283339
| 66>   O                      1.357969             0.049257             -5.214653
| 67>   H                      1.669129             -0.184117            -4.308228
| 68>   H                      0.216482             -1.496743            -6.077616
| 69>   H                      -0.113872            -1.182281            -4.345292
| 70>   H                      -0.685406            -0.138870            -5.644733
| 71> *
| 72>
| 73>                          ****END OF INPUT****
 Total Charge           Charge          ....    0
 Multiplicity           Mult            ....    1
 Number of Electrons    NEL             ....   36
Dispersion correction           -0.001766534
FINAL SINGLE POINT ENERGY      -231.464917202510
Dispersion correction           -0.000226306
FINAL SINGLE POINT ENERGY      -115.724235616411

CARTESIAN COORDINATES (ANGSTROEM)
---------------------------------
  C      2.808889    0.844054   -8.414163
  O      2.751306   -0.322919   -7.643315
  H      2.321928   -0.062151   -6.767259
  H      3.391022    0.885911   -9.374107
  H      1.750066    0.987597   -8.760820
  H      3.044555    1.683032   -7.747926
  C      0.159550   -0.695446   -5.283339
  O      1.357969    0.049257   -5.214653
  H      1.669129   -0.184117   -4.308228
  H      0.216482   -1.496743   -6.077616
  H     -0.113872   -1.182281   -4.345292
  H     -0.685406   -0.138870   -5.644733

 Multiplicity           Mult            ....    1
 Number of Electrons    NEL             ....   18
 Basis Dimension        Dim             ....  172

ORBITAL ENERGIES
----------------

  NO   OCC          E(Eh)            E(eV)
   0   2.0000     -19.238726      -523.5124
   1   2.0000     -10.314702      -280.6773
   2   2.0000      -1.138829       -30.9891
   3   2.0000      -0.791984       -21.5510
   4   2.0000      -0.612371       -16.6635
   5   2.0000      -0.535332       -14.5671
   6   2.0000      -0.527448       -14.3526
   7   2.0000      -0.446068       -12.1381
   8   2.0000      -0.370997       -10.0953
   9   0.0000       0.096775         2.6334
  10   0.0000       0.120371         3.2754
  11   0.0000       0.149511         4.0684
  12   0.0000       0.183282         4.9874
  13   0.0000       0.199774         5.4361

MULLIKEN ATOMIC CHARGES
-----------------------
   0 C :    0.001059
   1 O :   -0.001871
   2 H :   -0.003683
   3 H :   -0.000057
   4 H :   -0.000268
   5 H :   -0.001299
   6 C :   -0.179913
   7 O :   -0.454828
   8 H :    0.319052
   9 H :    0.101222
  10 H :    0.105984
  11 H :    0.114602
Sum of atomic charges:   -0.0000000

LOEWDIN ATOMIC CHARGES
----------------------
   0 C :   -0.002074
   1 O :   -0.005581
   2 H :   -0.052086
   3 H :   -0.000022
   4 H :   -0.000084
   5 H :   -0.000529
   6 C :   -0.396023
   7 O :   -0.033086
   8 H :    0.191566
   9 H :    0.103977
  10 H :    0.097131
  11 H :    0.096811

  Mayer bond orders larger than 0.1
B(  6-C ,  7-O ) :   1.0054 B(  6-C ,  9-H ) :   0.9825 B(  6-C , 10-H ) :   0.9804
B(  6-C , 11-H ) :   0.9754 B(  7-O ,  8-H ) :   0.8969

Dispersion correction           -0.000250624
FINAL SINGLE POINT ENERGY      -115.730747360791

DIPOLE MOMENT
-------------
                                X             Y             Z
Electronic contribution:      1.59443       1.15508       0.05962
Nuclear contribution   :     -1.86938      -1.57040       0.49269
                        -----------------------------------------
Total Dipole Moment    :     -0.27495      -0.41533       0.55230
                        -----------------------------------------
Magnitude (a.u.)       :      0.74373
Magnitude (Debye)      :      1.89041

Rotational constants in cm-1:     4.270335     0.834591     0.793069
Rotational constants in MHz : 128021.410084 25020.418283 23775.598464

                             ****ORCA TERMINATED NORMALLY****
TOTAL RUN TIME: 0 days 0 hours 0 minutes 59 seconds 576 msec
