                         Program Version 4.1.2  - RELEASE  -
|  1> #Run DFT-D3 single point of the dimer
|  2> ! wB97X-D3 def2-TZVP TIGHTSCF CHELPG PMODEL PAL8
|  3>
|  4> %base "19-5_DFT_AB"
|  5>
|  6> %scf
|  7> MaxIter 1000
|  8> end
|  9>
| 10> * xyz 0 1
| 11>   C                      4.218830             -7.367409            10.092198
| 12>   O                      4.342444             -8.557732            10.803951
| 13>   H                      4.070487             -8.609899            11.692965
| 14>   H                      3.801504             -7.551489            9.084576
| 15>   H                      3.484433             -6.691170            10.435203
| 16>   H                      5.199852             -6.817999            10.009492
| 17>   C                      3.083637             -10.890021           6.927653
| 18>   O                      4.135061             -9.953050            7.196196
| 19>   H                      4.164866             -9.765137            8.121274
| 20>   H                      2.550669             -10.815411           5.993026
| 21>   H                      3.414156             -11.902974           6.897666
| 22>   H                      2.344302             -10.905381           7.724454
| 23> *
| 24>
| 25> #Run DFT-D3 single point of the molecule with dimer basis set
| 26> $new_job
| 27> %base "19-5_DFT_A"
| 28> ! wB97X-D3 def2-TZVP TIGHTSCF CHELPG PMODEL
| 29>
| 30> %scf
| 31> MaxIter 1000
| 32> end
| 33>
| 34> * xyz 0 1
| 35>   C                      4.218830             -7.367409            10.092198
| 36>   O                      4.342444             -8.557732            10.803951
| 37>   H                      4.070487             -8.609899            11.692965
| 38>   H                      3.801504             -7.551489            9.084576
| 39>   H                      3.484433             -6.691170            10.435203
| 40>   H                      5.199852             -6.817999            10.009492
| 41>   C                    : 3.083637             -10.890021           6.927653
| 42>   O                    : 4.135061             -9.953050            7.196196
| 43>   H                    : 4.164866             -9.765137            8.121274
| 44>   H                    : 2.550669             -10.815411           5.993026
| 45>   H                    : 3.414156             -11.902974           6.897666
| 46>   H                    : 2.344302             -10.905381           7.724454
| 47> *
| 48>
| 49> #Run DFT-D3 single point of the particle with dimer basis set
| 50> $new_job
| 51> %base "19-5_DFT_B"
| 52> ! wB97X-D3 def2-TZVP TIGHTSCF CHELPG PMODEL
| 53>
| 54> %scf
| 55> MaxIter 1000
| 56> end
| 57>
| 58> * xyz 0 1
| 59>   C                    : 4.218830             -7.367409            10.092198
| 60>   O                    : 4.342444             -8.557732            10.803951
| 61>   H                    : 4.070487             -8.609899            11.692965
| 62>   H                    : 3.801504             -7.551489            9.084576
| 63>   H                    : 3.484433             -6.691170            10.435203
| 64>   H                    : 5.199852             -6.817999            10.009492
| 65>   C                      3.083637             -10.890021           6.927653
| 66>   O                      4.135061             -9.953050            7.196196
| 67>   H                      4.164866             -9.765137            8.121274
| 68>   H                      2.550669             -10.815411           5.993026
| 69>   H                      3.414156             -11.902974           6.897666
| 70>   H                      2.344302             -10.905381           7.724454
| 71> *
| 72>
| 73>                          ****END OF INPUT****
 Total Charge           Charge          ....    0
 Multiplicity           Mult            ....    1
 Number of Electrons    NEL             ....   36
Dispersion correction           -0.001463454
FINAL SINGLE POINT ENERGY      -231.462158368305
Dispersion correction           -0.000273839
FINAL SINGLE POINT ENERGY      -115.728356829273

CARTESIAN COORDINATES (ANGSTROEM)
---------------------------------
  C      4.218830   -7.367409   10.092198
  O      4.342444   -8.557732   10.803951
  H      4.070487   -8.609899   11.692965
  H      3.801504   -7.551489    9.084576
  H      3.484433   -6.691170   10.435203
  H      5.199852   -6.817999   10.009492
  C      3.083637  -10.890021    6.927653
  O      4.135061   -9.953050    7.196196
  H      4.164866   -9.765137    8.121274
  H      2.550669  -10.815411    5.993026
  H      3.414156  -11.902974    6.897666
  H      2.344302  -10.905381    7.724454

 Multiplicity           Mult            ....    1
 Number of Electrons    NEL             ....   18
 Basis Dimension        Dim             ....  172

ORBITAL ENERGIES
----------------

  NO   OCC          E(Eh)            E(eV)
   0   2.0000     -19.231899      -523.3266
   1   2.0000     -10.310868      -280.5730
   2   2.0000      -1.133696       -30.8494
   3   2.0000      -0.806310       -21.9408
   4   2.0000      -0.615074       -16.7370
   5   2.0000      -0.537201       -14.6180
   6   2.0000      -0.530814       -14.4442
   7   2.0000      -0.435066       -11.8387
   8   2.0000      -0.375320       -10.2130
   9   0.0000       0.074936         2.0391
  10   0.0000       0.129035         3.5112
  11   0.0000       0.149060         4.0561
  12   0.0000       0.160242         4.3604
  13   0.0000       0.195425         5.3178

MULLIKEN ATOMIC CHARGES
-----------------------
   0 C :    0.003683
   1 O :   -0.000140
   2 H :   -0.000009
   3 H :   -0.009378
   4 H :   -0.000170
   5 H :   -0.000150
   6 C :   -0.173530
   7 O :   -0.471846
   8 H :    0.317322
   9 H :    0.121499
  10 H :    0.107500
  11 H :    0.105219
Sum of atomic charges:   -0.0000000

LOEWDIN ATOMIC CHARGES
----------------------
   0 C :   -0.002598
   1 O :   -0.000792
   2 H :   -0.000039
   3 H :   -0.004417
   4 H :   -0.000013
   5 H :   -0.000030
   6 C :   -0.368073
   7 O :   -0.075759
   8 H :    0.159832
   9 H :    0.103662
  10 H :    0.091658
  11 H :    0.096570

  Mayer bond orders larger than 0.1
B(  6-C ,  7-O ) :   1.0026 B(  6-C ,  9-H ) :   0.9743 B(  6-C , 10-H ) :   0.9771
B(  6-C , 11-H ) :   0.9864 B(  7-O ,  8-H ) :   0.9013

Dispersion correction           -0.000262735
FINAL SINGLE POINT ENERGY      -115.730360648916

DIPOLE MOMENT
-------------
                                X             Y             Z
Electronic contribution:      1.42143       1.31607       0.14807
Nuclear contribution   :     -1.84805      -1.60843       0.33961
                        -----------------------------------------
Total Dipole Moment    :     -0.42662      -0.29236       0.48768
                        -----------------------------------------
Magnitude (a.u.)       :      0.71085
Magnitude (Debye)      :      1.80685

Rotational constants in cm-1:     4.668202     0.803120     0.770263
Rotational constants in MHz : 139949.188196 24076.935496 23091.898956

                             ****ORCA TERMINATED NORMALLY****
TOTAL RUN TIME: 0 days 0 hours 0 minutes 42 seconds 695 msec
