                         Program Version 4.1.2  - RELEASE  -
|  1> #Run DFT-D3 single point of the dimer
|  2> ! wB97X-D3 def2-TZVP TIGHTSCF CHELPG PMODEL PAL8
|  3>
|  4> %base "16-123_DFT_AB"
|  5>
|  6> %scf
|  7> MaxIter 1000
|  8> end
|  9>
| 10> * xyz 0 1
| 11>   C                      9.332024             -7.825781            -3.804788
| 12>   O                      8.953421             -7.722838            -5.139420
| 13>   H                      8.371526             -8.481379            -5.322820
| 14>   H                      10.157458            -8.605935            -3.657025
| 15>   H                      9.700460             -6.873416            -3.434979
| 16>   H                      8.503247             -8.036935            -3.181149
| 17>   C                      8.380588             -5.907847            -8.572776
| 18>   O                      8.022990             -6.933117            -7.660695
| 19>   H                      8.461206             -6.706394            -6.841734
| 20>   H                      9.130769             -5.181895            -8.143659
| 21>   H                      8.797686             -6.332623            -9.494423
| 22>   H                      7.489045             -5.367509            -8.950615
| 23> *
| 24>
| 25> #Run DFT-D3 single point of the molecule with dimer basis set
| 26> $new_job
| 27> %base "16-123_DFT_A"
| 28> ! wB97X-D3 def2-TZVP TIGHTSCF CHELPG PMODEL
| 29>
| 30> %scf
| 31> MaxIter 1000
| 32> end
| 33>
| 34> * xyz 0 1
| 35>   C                      9.332024             -7.825781            -3.804788
| 36>   O                      8.953421             -7.722838            -5.139420
| 37>   H                      8.371526             -8.481379            -5.322820
| 38>   H                      10.157458            -8.605935            -3.657025
| 39>   H                      9.700460             -6.873416            -3.434979
| 40>   H                      8.503247             -8.036935            -3.181149
| 41>   C                    : 8.380588             -5.907847            -8.572776
| 42>   O                    : 8.022990             -6.933117            -7.660695
| 43>   H                    : 8.461206             -6.706394            -6.841734
| 44>   H                    : 9.130769             -5.181895            -8.143659
| 45>   H                    : 8.797686             -6.332623            -9.494423
| 46>   H                    : 7.489045             -5.367509            -8.950615
| 47> *
| 48>
| 49> #Run DFT-D3 single point of the particle with dimer basis set
| 50> $new_job
| 51> %base "16-123_DFT_B"
| 52> ! wB97X-D3 def2-TZVP TIGHTSCF CHELPG PMODEL
| 53>
| 54> %scf
| 55> MaxIter 1000
| 56> end
| 57>
| 58> * xyz 0 1
| 59>   C                    : 9.332024             -7.825781            -3.804788
| 60>   O                    : 8.953421             -7.722838            -5.139420
| 61>   H                    : 8.371526             -8.481379            -5.322820
| 62>   H                    : 10.157458            -8.605935            -3.657025
| 63>   H                    : 9.700460             -6.873416            -3.434979
| 64>   H                    : 8.503247             -8.036935            -3.181149
| 65>   C                      8.380588             -5.907847            -8.572776
| 66>   O                      8.022990             -6.933117            -7.660695
| 67>   H                      8.461206             -6.706394            -6.841734
| 68>   H                      9.130769             -5.181895            -8.143659
| 69>   H                      8.797686             -6.332623            -9.494423
| 70>   H                      7.489045             -5.367509            -8.950615
| 71> *
| 72>
| 73>                          ****END OF INPUT****
 Total Charge           Charge          ....    0
 Multiplicity           Mult            ....    1
 Number of Electrons    NEL             ....   36
Dispersion correction           -0.001330719
FINAL SINGLE POINT ENERGY      -231.474866989106
Dispersion correction           -0.000232792
FINAL SINGLE POINT ENERGY      -115.734124216062

CARTESIAN COORDINATES (ANGSTROEM)
---------------------------------
  C      9.332024   -7.825781   -3.804788
  O      8.953421   -7.722838   -5.139420
  H      8.371526   -8.481379   -5.322820
  H     10.157458   -8.605935   -3.657025
  H      9.700460   -6.873416   -3.434979
  H      8.503247   -8.036935   -3.181149
  C      8.380588   -5.907847   -8.572776
  O      8.022990   -6.933117   -7.660695
  H      8.461206   -6.706394   -6.841734
  H      9.130769   -5.181895   -8.143659
  H      8.797686   -6.332623   -9.494423
  H      7.489045   -5.367509   -8.950615

 Multiplicity           Mult            ....    1
 Number of Electrons    NEL             ....   18
 Basis Dimension        Dim             ....  172

ORBITAL ENERGIES
----------------

  NO   OCC          E(Eh)            E(eV)
   0   2.0000     -19.232861      -523.3528
   1   2.0000     -10.319369      -280.8043
   2   2.0000      -1.138809       -30.9886
   3   2.0000      -0.791974       -21.5507
   4   2.0000      -0.610662       -16.6170
   5   2.0000      -0.532908       -14.5012
   6   2.0000      -0.530671       -14.4403
   7   2.0000      -0.439494       -11.9592
   8   2.0000      -0.372075       -10.1247
   9   0.0000       0.077006         2.0954
  10   0.0000       0.121088         3.2950
  11   0.0000       0.149480         4.0675
  12   0.0000       0.178264         4.8508
  13   0.0000       0.196203         5.3390

MULLIKEN ATOMIC CHARGES
-----------------------
   0 C :   -0.000639
   1 O :   -0.001850
   2 H :   -0.001357
   3 H :    0.000019
   4 H :   -0.000013
   5 H :    0.000020
   6 C :   -0.178677
   7 O :   -0.454170
   8 H :    0.313142
   9 H :    0.105847
  10 H :    0.110302
  11 H :    0.107376
Sum of atomic charges:    0.0000000

LOEWDIN ATOMIC CHARGES
----------------------
   0 C :   -0.001065
   1 O :   -0.016687
   2 H :   -0.003560
   3 H :   -0.000026
   4 H :   -0.000053
   5 H :   -0.000028
   6 C :   -0.391395
   7 O :   -0.067433
   8 H :    0.175890
   9 H :    0.103629
  10 H :    0.099713
  11 H :    0.101018

  Mayer bond orders larger than 0.1
B(  6-C ,  7-O ) :   1.0109 B(  6-C ,  9-H ) :   0.9823 B(  6-C , 10-H ) :   0.9763
B(  6-C , 11-H ) :   0.9745 B(  7-O ,  8-H ) :   0.9016

Dispersion correction           -0.000258177
FINAL SINGLE POINT ENERGY      -115.733925049994

DIPOLE MOMENT
-------------
                                X             Y             Z
Electronic contribution:     -0.53584      -1.41014       1.15490
Nuclear contribution   :      0.95950       1.94875      -0.99683
                        -----------------------------------------
Total Dipole Moment    :      0.42366       0.53861       0.15807
                        -----------------------------------------
Magnitude (a.u.)       :      0.70326
Magnitude (Debye)      :      1.78754

Rotational constants in cm-1:     4.212994     0.828213     0.788292
Rotational constants in MHz : 126302.371587 24829.213815 23632.386623

                             ****ORCA TERMINATED NORMALLY****
TOTAL RUN TIME: 0 days 0 hours 0 minutes 54 seconds 553 msec
