                         Program Version 4.1.2  - RELEASE  -
|  1> #Run DFT-D3 single point of the dimer
|  2> ! wB97X-D3 def2-TZVP TIGHTSCF CHELPG PMODEL PAL8
|  3>
|  4> %base "12-16_DFT_AB"
|  5>
|  6> %scf
|  7> MaxIter 1000
|  8> end
|  9>
| 10> * xyz 0 1
| 11>   C                      7.783129             -4.327830            -2.139949
| 12>   O                      8.538829             -3.183352            -2.235793
| 13>   H                      9.186373             -3.113510            -1.593900
| 14>   H                      8.386808             -5.185219            -2.334048
| 15>   H                      7.505781             -4.489280            -1.123958
| 16>   H                      6.890016             -4.297037            -2.756172
| 17>   C                      10.311949            -0.204251            -2.808328
| 18>   O                      10.231334            1.100341             -2.321599
| 19>   H                      10.876962            1.230900             -1.592367
| 20>   H                      9.962635             -0.245599            -3.763337
| 21>   H                      11.283199            -0.694497            -2.911589
| 22>   H                      9.708854             -0.907636            -2.254651
| 23> *
| 24>
| 25> #Run DFT-D3 single point of the molecule with dimer basis set
| 26> $new_job
| 27> %base "12-16_DFT_A"
| 28> ! wB97X-D3 def2-TZVP TIGHTSCF CHELPG PMODEL
| 29>
| 30> %scf
| 31> MaxIter 1000
| 32> end
| 33>
| 34> * xyz 0 1
| 35>   C                      7.783129             -4.327830            -2.139949
| 36>   O                      8.538829             -3.183352            -2.235793
| 37>   H                      9.186373             -3.113510            -1.593900
| 38>   H                      8.386808             -5.185219            -2.334048
| 39>   H                      7.505781             -4.489280            -1.123958
| 40>   H                      6.890016             -4.297037            -2.756172
| 41>   C                    : 10.311949            -0.204251            -2.808328
| 42>   O                    : 10.231334            1.100341             -2.321599
| 43>   H                    : 10.876962            1.230900             -1.592367
| 44>   H                    : 9.962635             -0.245599            -3.763337
| 45>   H                    : 11.283199            -0.694497            -2.911589
| 46>   H                    : 9.708854             -0.907636            -2.254651
| 47> *
| 48>
| 49> #Run DFT-D3 single point of the particle with dimer basis set
| 50> $new_job
| 51> %base "12-16_DFT_B"
| 52> ! wB97X-D3 def2-TZVP TIGHTSCF CHELPG PMODEL
| 53>
| 54> %scf
| 55> MaxIter 1000
| 56> end
| 57>
| 58> * xyz 0 1
| 59>   C                    : 7.783129             -4.327830            -2.139949
| 60>   O                    : 8.538829             -3.183352            -2.235793
| 61>   H                    : 9.186373             -3.113510            -1.593900
| 62>   H                    : 8.386808             -5.185219            -2.334048
| 63>   H                    : 7.505781             -4.489280            -1.123958
| 64>   H                    : 6.890016             -4.297037            -2.756172
| 65>   C                      10.311949            -0.204251            -2.808328
| 66>   O                      10.231334            1.100341             -2.321599
| 67>   H                      10.876962            1.230900             -1.592367
| 68>   H                      9.962635             -0.245599            -3.763337
| 69>   H                      11.283199            -0.694497            -2.911589
| 70>   H                      9.708854             -0.907636            -2.254651
| 71> *
| 72>
| 73>                          ****END OF INPUT****
 Total Charge           Charge          ....    0
 Multiplicity           Mult            ....    1
 Number of Electrons    NEL             ....   36
Dispersion correction           -0.001282732
FINAL SINGLE POINT ENERGY      -231.459441995275
Dispersion correction           -0.000211017
FINAL SINGLE POINT ENERGY      -115.729990082598

CARTESIAN COORDINATES (ANGSTROEM)
---------------------------------
  C      7.783129   -4.327830   -2.139949
  O      8.538829   -3.183352   -2.235793
  H      9.186373   -3.113510   -1.593900
  H      8.386808   -5.185219   -2.334048
  H      7.505781   -4.489280   -1.123958
  H      6.890016   -4.297037   -2.756172
  C     10.311949   -0.204251   -2.808328
  O     10.231334    1.100341   -2.321599
  H     10.876962    1.230900   -1.592367
  H      9.962635   -0.245599   -3.763337
  H     11.283199   -0.694497   -2.911589
  H      9.708854   -0.907636   -2.254651

 Multiplicity           Mult            ....    1
 Number of Electrons    NEL             ....   18
 Basis Dimension        Dim             ....  172

ORBITAL ENERGIES
----------------

  NO   OCC          E(Eh)            E(eV)
   0   2.0000     -19.234756      -523.4043
   1   2.0000     -10.300105      -280.2801
   2   2.0000      -1.137366       -30.9493
   3   2.0000      -0.805439       -21.9171
   4   2.0000      -0.616841       -16.7851
   5   2.0000      -0.543648       -14.7934
   6   2.0000      -0.529268       -14.4021
   7   2.0000      -0.433124       -11.7859
   8   2.0000      -0.374321       -10.1858
   9   0.0000       0.085733         2.3329
  10   0.0000       0.115635         3.1466
  11   0.0000       0.144104         3.9213
  12   0.0000       0.183510         4.9936
  13   0.0000       0.193784         5.2731

MULLIKEN ATOMIC CHARGES
-----------------------
   0 C :   -0.000173
   1 O :    0.000029
   2 H :   -0.001825
   3 H :   -0.000023
   4 H :   -0.000008
   5 H :    0.000014
   6 C :   -0.159190
   7 O :   -0.477187
   8 H :    0.319678
   9 H :    0.121373
  10 H :    0.099454
  11 H :    0.097859
Sum of atomic charges:    0.0000000

LOEWDIN ATOMIC CHARGES
----------------------
   0 C :   -0.000307
   1 O :   -0.005606
   2 H :   -0.004967
   3 H :   -0.000010
   4 H :   -0.000008
   5 H :   -0.000010
   6 C :   -0.396883
   7 O :   -0.064730
   8 H :    0.184784
   9 H :    0.092349
  10 H :    0.097954
  11 H :    0.097435

  Mayer bond orders larger than 0.1
B(  6-C ,  7-O ) :   1.0060 B(  6-C ,  9-H ) :   0.9719 B(  6-C , 10-H ) :   0.9748
B(  6-C , 11-H ) :   0.9823 B(  7-O ,  8-H ) :   0.8935

Dispersion correction           -0.000258789
FINAL SINGLE POINT ENERGY      -115.729152199808

DIPOLE MOMENT
-------------
                                X             Y             Z
Electronic contribution:     -0.18255       1.85045       0.56773
Nuclear contribution   :      0.62902      -2.27078      -0.32534
                        -----------------------------------------
Total Dipole Moment    :      0.44646      -0.42034       0.24239
                        -----------------------------------------
Magnitude (a.u.)       :      0.65937
Magnitude (Debye)      :      1.67597

Rotational constants in cm-1:     4.691031     0.834808     0.809821
Rotational constants in MHz : 140633.581428 25026.906000 24277.821767

                             ****ORCA TERMINATED NORMALLY****
TOTAL RUN TIME: 0 days 0 hours 1 minutes 10 seconds 68 msec
