                         Program Version 4.1.2  - RELEASE  -
|  1> #Run DFT-D3 single point of the dimer
|  2> ! wB97X-D3 def2-TZVP TIGHTSCF CHELPG PMODEL PAL8
|  3>
|  4> %base "6-170_DFT_AB"
|  5>
|  6> %scf
|  7> MaxIter 1000
|  8> end
|  9>
| 10> * xyz 0 1
| 11>   C                      -10.012217           -3.260761            3.612046
| 12>   O                      -9.049971            -2.258443            3.290814
| 13>   H                      -9.544630            -1.524157            2.939896
| 14>   H                      -10.761917           -3.336044            2.835439
| 15>   H                      -9.516522            -4.196883            3.682263
| 16>   H                      -10.539423           -3.049926            4.482328
| 17>   C                      -10.357683           -0.084677            -0.253793
| 18>   O                      -9.776782            -0.685714            0.902436
| 19>   H                      -9.322493            -1.494436            0.622660
| 20>   H                      -10.958135           0.874211             0.006161
| 21>   H                      -9.623629            -0.086504            -1.114253
| 22>   H                      -11.087415           -0.760737            -0.628077
| 23> *
| 24>
| 25> #Run DFT-D3 single point of the molecule with dimer basis set
| 26> $new_job
| 27> %base "6-170_DFT_A"
| 28> ! wB97X-D3 def2-TZVP TIGHTSCF CHELPG PMODEL
| 29>
| 30> %scf
| 31> MaxIter 1000
| 32> end
| 33>
| 34> * xyz 0 1
| 35>   C                      -10.012217           -3.260761            3.612046
| 36>   O                      -9.049971            -2.258443            3.290814
| 37>   H                      -9.544630            -1.524157            2.939896
| 38>   H                      -10.761917           -3.336044            2.835439
| 39>   H                      -9.516522            -4.196883            3.682263
| 40>   H                      -10.539423           -3.049926            4.482328
| 41>   C                    : -10.357683           -0.084677            -0.253793
| 42>   O                    : -9.776782            -0.685714            0.902436
| 43>   H                    : -9.322493            -1.494436            0.622660
| 44>   H                    : -10.958135           0.874211             0.006161
| 45>   H                    : -9.623629            -0.086504            -1.114253
| 46>   H                    : -11.087415           -0.760737            -0.628077
| 47> *
| 48>
| 49> #Run DFT-D3 single point of the particle with dimer basis set
| 50> $new_job
| 51> %base "6-170_DFT_B"
| 52> ! wB97X-D3 def2-TZVP TIGHTSCF CHELPG PMODEL
| 53>
| 54> %scf
| 55> MaxIter 1000
| 56> end
| 57>
| 58> * xyz 0 1
| 59>   C                    : -10.012217           -3.260761            3.612046
| 60>   O                    : -9.049971            -2.258443            3.290814
| 61>   H                    : -9.544630            -1.524157            2.939896
| 62>   H                    : -10.761917           -3.336044            2.835439
| 63>   H                    : -9.516522            -4.196883            3.682263
| 64>   H                    : -10.539423           -3.049926            4.482328
| 65>   C                      -10.357683           -0.084677            -0.253793
| 66>   O                      -9.776782            -0.685714            0.902436
| 67>   H                      -9.322493            -1.494436            0.622660
| 68>   H                      -10.958135           0.874211             0.006161
| 69>   H                      -9.623629            -0.086504            -1.114253
| 70>   H                      -11.087415           -0.760737            -0.628077
| 71> *
| 72>
| 73>                          ****END OF INPUT****
 Total Charge           Charge          ....    0
 Multiplicity           Mult            ....    1
 Number of Electrons    NEL             ....   36
Dispersion correction           -0.001490821
FINAL SINGLE POINT ENERGY      -231.466753371137
Dispersion correction           -0.000222187
FINAL SINGLE POINT ENERGY      -115.734396843569

CARTESIAN COORDINATES (ANGSTROEM)
---------------------------------
  C    -10.012217   -3.260761    3.612046
  O     -9.049971   -2.258443    3.290814
  H     -9.544630   -1.524157    2.939896
  H    -10.761917   -3.336044    2.835439
  H     -9.516522   -4.196883    3.682263
  H    -10.539423   -3.049926    4.482328
  C    -10.357683   -0.084677   -0.253793
  O     -9.776782   -0.685714    0.902436
  H     -9.322493   -1.494436    0.622660
  H    -10.958135    0.874211    0.006161
  H     -9.623629   -0.086504   -1.114253
  H    -11.087415   -0.760737   -0.628077

 Multiplicity           Mult            ....    1
 Number of Electrons    NEL             ....   18
 Basis Dimension        Dim             ....  172

ORBITAL ENERGIES
----------------

  NO   OCC          E(Eh)            E(eV)
   0   2.0000     -19.230678      -523.2934
   1   2.0000     -10.322591      -280.8920
   2   2.0000      -1.131419       -30.7875
   3   2.0000      -0.790835       -21.5197
   4   2.0000      -0.611274       -16.6336
   5   2.0000      -0.536063       -14.5870
   6   2.0000      -0.519508       -14.1365
   7   2.0000      -0.437535       -11.9059
   8   2.0000      -0.367674       -10.0049
   9   0.0000       0.090498         2.4626
  10   0.0000       0.121643         3.3101
  11   0.0000       0.150239         4.0882
  12   0.0000       0.187196         5.0939
  13   0.0000       0.192887         5.2487

MULLIKEN ATOMIC CHARGES
-----------------------
   0 C :    0.001504
   1 O :   -0.000689
   2 H :   -0.007899
   3 H :   -0.003337
   4 H :   -0.000101
   5 H :   -0.000196
   6 C :   -0.184567
   7 O :   -0.465677
   8 H :    0.317005
   9 H :    0.129520
  10 H :    0.102347
  11 H :    0.112091
Sum of atomic charges:    0.0000000

LOEWDIN ATOMIC CHARGES
----------------------
   0 C :   -0.002274
   1 O :   -0.003920
   2 H :   -0.021142
   3 H :   -0.001352
   4 H :   -0.000022
   5 H :   -0.000021
   6 C :   -0.387457
   7 O :   -0.075207
   8 H :    0.176407
   9 H :    0.125759
  10 H :    0.102441
  11 H :    0.086789

  Mayer bond orders larger than 0.1
B(  6-C ,  7-O ) :   0.9847 B(  6-C ,  9-H ) :   0.9678 B(  6-C , 10-H ) :   0.9746
B(  6-C , 11-H ) :   0.9776 B(  7-O ,  8-H ) :   0.8925

Dispersion correction           -0.000238867
FINAL SINGLE POINT ENERGY      -115.725782679442

DIPOLE MOMENT
-------------
                                X             Y             Z
Electronic contribution:      0.73754      -0.49593       1.57936
Nuclear contribution   :     -0.72430       0.19657      -2.23856
                        -----------------------------------------
Total Dipole Moment    :      0.01324      -0.29936      -0.65920
                        -----------------------------------------
Magnitude (a.u.)       :      0.72411
Magnitude (Debye)      :      1.84054

Rotational constants in cm-1:     4.105494     0.829015     0.776293
Rotational constants in MHz : 123079.622772 24853.242165 23272.665485

                             ****ORCA TERMINATED NORMALLY****
TOTAL RUN TIME: 0 days 0 hours 1 minutes 7 seconds 307 msec
