                         Program Version 4.1.2  - RELEASE  -
|  1> #Run DFT-D3 single point of the dimer
|  2> ! wB97X-D3 def2-TZVP TIGHTSCF CHELPG PMODEL PAL8
|  3>
|  4> %base "6-162_DFT_AB"
|  5>
|  6> %scf
|  7> MaxIter 1000
|  8> end
|  9>
| 10> * xyz 0 1
| 11>   C                      5.890683             -3.792645            -3.899730
| 12>   O                      7.139683             -3.398593            -4.503209
| 13>   H                      7.846260             -3.774391            -3.995121
| 14>   H                      5.910107             -3.919907            -2.837656
| 15>   H                      5.013322             -3.162493            -3.961290
| 16>   H                      5.576193             -4.798254            -4.168236
| 17>   C                      6.824095             -4.085569            -8.586297
| 18>   O                      6.613971             -4.489802            -7.269020
| 19>   H                      6.635865             -3.771162            -6.595867
| 20>   H                      5.963133             -3.488712            -9.022146
| 21>   H                      7.700060             -3.488874            -8.759919
| 22>   H                      6.991725             -4.954480            -9.156936
| 23> *
| 24>
| 25> #Run DFT-D3 single point of the molecule with dimer basis set
| 26> $new_job
| 27> %base "6-162_DFT_A"
| 28> ! wB97X-D3 def2-TZVP TIGHTSCF CHELPG PMODEL
| 29>
| 30> %scf
| 31> MaxIter 1000
| 32> end
| 33>
| 34> * xyz 0 1
| 35>   C                      5.890683             -3.792645            -3.899730
| 36>   O                      7.139683             -3.398593            -4.503209
| 37>   H                      7.846260             -3.774391            -3.995121
| 38>   H                      5.910107             -3.919907            -2.837656
| 39>   H                      5.013322             -3.162493            -3.961290
| 40>   H                      5.576193             -4.798254            -4.168236
| 41>   C                    : 6.824095             -4.085569            -8.586297
| 42>   O                    : 6.613971             -4.489802            -7.269020
| 43>   H                    : 6.635865             -3.771162            -6.595867
| 44>   H                    : 5.963133             -3.488712            -9.022146
| 45>   H                    : 7.700060             -3.488874            -8.759919
| 46>   H                    : 6.991725             -4.954480            -9.156936
| 47> *
| 48>
| 49> #Run DFT-D3 single point of the particle with dimer basis set
| 50> $new_job
| 51> %base "6-162_DFT_B"
| 52> ! wB97X-D3 def2-TZVP TIGHTSCF CHELPG PMODEL
| 53>
| 54> %scf
| 55> MaxIter 1000
| 56> end
| 57>
| 58> * xyz 0 1
| 59>   C                    : 5.890683             -3.792645            -3.899730
| 60>   O                    : 7.139683             -3.398593            -4.503209
| 61>   H                    : 7.846260             -3.774391            -3.995121
| 62>   H                    : 5.910107             -3.919907            -2.837656
| 63>   H                    : 5.013322             -3.162493            -3.961290
| 64>   H                    : 5.576193             -4.798254            -4.168236
| 65>   C                      6.824095             -4.085569            -8.586297
| 66>   O                      6.613971             -4.489802            -7.269020
| 67>   H                      6.635865             -3.771162            -6.595867
| 68>   H                      5.963133             -3.488712            -9.022146
| 69>   H                      7.700060             -3.488874            -8.759919
| 70>   H                      6.991725             -4.954480            -9.156936
| 71> *
| 72>
| 73>                          ****END OF INPUT****
 Total Charge           Charge          ....    0
 Multiplicity           Mult            ....    1
 Number of Electrons    NEL             ....   36
Dispersion correction           -0.001590926
FINAL SINGLE POINT ENERGY      -231.465131664092
Dispersion correction           -0.000275265
FINAL SINGLE POINT ENERGY      -115.725633648864

CARTESIAN COORDINATES (ANGSTROEM)
---------------------------------
  C      5.890683   -3.792645   -3.899730
  O      7.139683   -3.398593   -4.503209
  H      7.846260   -3.774391   -3.995121
  H      5.910107   -3.919907   -2.837656
  H      5.013322   -3.162493   -3.961290
  H      5.576193   -4.798254   -4.168236
  C      6.824095   -4.085569   -8.586297
  O      6.613971   -4.489802   -7.269020
  H      6.635865   -3.771162   -6.595867
  H      5.963133   -3.488712   -9.022146
  H      7.700060   -3.488874   -8.759919
  H      6.991725   -4.954480   -9.156936

 Multiplicity           Mult            ....    1
 Number of Electrons    NEL             ....   18
 Basis Dimension        Dim             ....  172

ORBITAL ENERGIES
----------------

  NO   OCC          E(Eh)            E(eV)
   0   2.0000     -19.231996      -523.3292
   1   2.0000     -10.308972      -280.5214
   2   2.0000      -1.134049       -30.8590
   3   2.0000      -0.799539       -21.7566
   4   2.0000      -0.616525       -16.7765
   5   2.0000      -0.540042       -14.6953
   6   2.0000      -0.528516       -14.3817
   7   2.0000      -0.427115       -11.6224
   8   2.0000      -0.371934       -10.1208
   9   0.0000       0.075988         2.0677
  10   0.0000       0.130568         3.5529
  11   0.0000       0.153309         4.1718
  12   0.0000       0.166864         4.5406
  13   0.0000       0.197326         5.3695

MULLIKEN ATOMIC CHARGES
-----------------------
   0 C :   -0.001082
   1 O :   -0.000630
   2 H :   -0.000386
   3 H :   -0.000026
   4 H :    0.000026
   5 H :   -0.000830
   6 C :   -0.153693
   7 O :   -0.479469
   8 H :    0.317124
   9 H :    0.093390
  10 H :    0.102817
  11 H :    0.122759
Sum of atomic charges:   -0.0000000

LOEWDIN ATOMIC CHARGES
----------------------
   0 C :   -0.005946
   1 O :   -0.009852
   2 H :   -0.000806
   3 H :   -0.000077
   4 H :   -0.000197
   5 H :   -0.000983
   6 C :   -0.398216
   7 O :   -0.064013
   8 H :    0.188594
   9 H :    0.100114
  10 H :    0.089671
  11 H :    0.101712

  Mayer bond orders larger than 0.1
B(  6-C ,  7-O ) :   1.0042 B(  6-C ,  9-H ) :   0.9758 B(  6-C , 10-H ) :   0.9732
B(  6-C , 11-H ) :   0.9735 B(  7-O ,  8-H ) :   0.8899

Dispersion correction           -0.000265631
FINAL SINGLE POINT ENERGY      -115.732992416950

DIPOLE MOMENT
-------------
                                X             Y             Z
Electronic contribution:     -0.25108      -0.67622       1.69794
Nuclear contribution   :      0.38758       1.27825      -1.79434
                        -----------------------------------------
Total Dipole Moment    :      0.13650       0.60203      -0.09641
                        -----------------------------------------
Magnitude (a.u.)       :      0.62479
Magnitude (Debye)      :      1.58809

Rotational constants in cm-1:     4.466088     0.833552     0.808839
Rotational constants in MHz : 133889.946523 24989.247447 24248.373669

                             ****ORCA TERMINATED NORMALLY****
TOTAL RUN TIME: 0 days 0 hours 1 minutes 6 seconds 105 msec
