                         Program Version 4.1.2  - RELEASE  -
|  1> #Run DFT-D3 single point of the dimer
|  2> ! wB97X-D3 def2-TZVP TIGHTSCF CHELPG PMODEL PAL8
|  3>
|  4> %base "14-27_DFT_AB"
|  5>
|  6> %scf
|  7> MaxIter 1000
|  8> end
|  9>
| 10> * xyz 0 1
| 11>   C                      -0.612086            2.931693             -2.166030
| 12>   O                      -1.917891            3.394526             -2.096503
| 13>   H                      -2.283379            3.362468             -1.200627
| 14>   H                      -0.456620            1.838111             -2.061463
| 15>   H                      -0.083063            3.269453             -3.069938
| 16>   H                      -0.006313            3.238354             -1.311755
| 17>   C                      -5.012732            4.651737             -4.015420
| 18>   O                      -5.313746            6.068341             -3.824211
| 19>   H                      -5.792739            6.296180             -4.612807
| 20>   H                      -4.509524            4.441952             -4.946995
| 21>   H                      -4.294382            4.316787             -3.213413
| 22>   H                      -5.939629            4.108769             -3.953471
| 23> *
| 24>
| 25> #Run DFT-D3 single point of the molecule with dimer basis set
| 26> $new_job
| 27> %base "14-27_DFT_A"
| 28> ! wB97X-D3 def2-TZVP TIGHTSCF CHELPG PMODEL
| 29>
| 30> %scf
| 31> MaxIter 1000
| 32> end
| 33>
| 34> * xyz 0 1
| 35>   C                      -0.612086            2.931693             -2.166030
| 36>   O                      -1.917891            3.394526             -2.096503
| 37>   H                      -2.283379            3.362468             -1.200627
| 38>   H                      -0.456620            1.838111             -2.061463
| 39>   H                      -0.083063            3.269453             -3.069938
| 40>   H                      -0.006313            3.238354             -1.311755
| 41>   C                    : -5.012732            4.651737             -4.015420
| 42>   O                    : -5.313746            6.068341             -3.824211
| 43>   H                    : -5.792739            6.296180             -4.612807
| 44>   H                    : -4.509524            4.441952             -4.946995
| 45>   H                    : -4.294382            4.316787             -3.213413
| 46>   H                    : -5.939629            4.108769             -3.953471
| 47> *
| 48>
| 49> #Run DFT-D3 single point of the particle with dimer basis set
| 50> $new_job
| 51> %base "14-27_DFT_B"
| 52> ! wB97X-D3 def2-TZVP TIGHTSCF CHELPG PMODEL
| 53>
| 54> %scf
| 55> MaxIter 1000
| 56> end
| 57>
| 58> * xyz 0 1
| 59>   C                    : -0.612086            2.931693             -2.166030
| 60>   O                    : -1.917891            3.394526             -2.096503
| 61>   H                    : -2.283379            3.362468             -1.200627
| 62>   H                    : -0.456620            1.838111             -2.061463
| 63>   H                    : -0.083063            3.269453             -3.069938
| 64>   H                    : -0.006313            3.238354             -1.311755
| 65>   C                      -5.012732            4.651737             -4.015420
| 66>   O                      -5.313746            6.068341             -3.824211
| 67>   H                      -5.792739            6.296180             -4.612807
| 68>   H                      -4.509524            4.441952             -4.946995
| 69>   H                      -4.294382            4.316787             -3.213413
| 70>   H                      -5.939629            4.108769             -3.953471
| 71> *
| 72>
| 73>                          ****END OF INPUT****
 Total Charge           Charge          ....    0
 Multiplicity           Mult            ....    1
 Number of Electrons    NEL             ....   36
Dispersion correction           -0.001110505
FINAL SINGLE POINT ENERGY      -231.467375373444
Dispersion correction           -0.000258881
FINAL SINGLE POINT ENERGY      -115.732259967000

CARTESIAN COORDINATES (ANGSTROEM)
---------------------------------
  C     -0.612086    2.931693   -2.166030
  O     -1.917891    3.394526   -2.096503
  H     -2.283379    3.362468   -1.200627
  H     -0.456620    1.838111   -2.061463
  H     -0.083063    3.269453   -3.069938
  H     -0.006313    3.238354   -1.311755
  C     -5.012732    4.651737   -4.015420
  O     -5.313746    6.068341   -3.824211
  H     -5.792739    6.296180   -4.612807
  H     -4.509524    4.441952   -4.946995
  H     -4.294382    4.316787   -3.213413
  H     -5.939629    4.108769   -3.953471

 Multiplicity           Mult            ....    1
 Number of Electrons    NEL             ....   18
 Basis Dimension        Dim             ....  172

ORBITAL ENERGIES
----------------

  NO   OCC          E(Eh)            E(eV)
   0   2.0000     -19.229151      -523.2518
   1   2.0000     -10.316759      -280.7333
   2   2.0000      -1.126838       -30.6628
   3   2.0000      -0.795484       -21.6462
   4   2.0000      -0.601469       -16.3668
   5   2.0000      -0.546569       -14.8729
   6   2.0000      -0.514402       -13.9976
   7   2.0000      -0.440312       -11.9815
   8   2.0000      -0.376760       -10.2522
   9   0.0000       0.084397         2.2966
  10   0.0000       0.117041         3.1849
  11   0.0000       0.145580         3.9614
  12   0.0000       0.167530         4.5587
  13   0.0000       0.193395         5.2625

MULLIKEN ATOMIC CHARGES
-----------------------
   0 C :   -0.000012
   1 O :    0.000151
   2 H :   -0.000198
   3 H :   -0.000007
   4 H :    0.000000
   5 H :   -0.000004
   6 C :   -0.182746
   7 O :   -0.473743
   8 H :    0.309350
   9 H :    0.111687
  10 H :    0.123415
  11 H :    0.112107
Sum of atomic charges:    0.0000000

LOEWDIN ATOMIC CHARGES
----------------------
   0 C :   -0.000201
   1 O :   -0.002378
   2 H :   -0.000738
   3 H :   -0.000004
   4 H :   -0.000009
   5 H :   -0.000005
   6 C :   -0.354062
   7 O :   -0.106001
   8 H :    0.158989
   9 H :    0.092983
  10 H :    0.117953
  11 H :    0.093472

  Mayer bond orders larger than 0.1
B(  6-C ,  7-O ) :   0.9960 B(  6-C ,  9-H ) :   0.9724 B(  6-C , 10-H ) :   0.9734
B(  6-C , 11-H ) :   0.9777 B(  7-O ,  8-H ) :   0.9067

Dispersion correction           -0.000240838
FINAL SINGLE POINT ENERGY      -115.733687604827

DIPOLE MOMENT
-------------
                                X             Y             Z
Electronic contribution:     -0.33064       1.73507       0.32300
Nuclear contribution   :      0.16399      -2.18757      -0.90194
                        -----------------------------------------
Total Dipole Moment    :     -0.16665      -0.45250      -0.57894
                        -----------------------------------------
Magnitude (a.u.)       :      0.75346
Magnitude (Debye)      :      1.91514

Rotational constants in cm-1:     4.235314     0.795776     0.766998
Rotational constants in MHz : 126971.514534 23856.767306 22994.009781

                             ****ORCA TERMINATED NORMALLY****
TOTAL RUN TIME: 0 days 0 hours 1 minutes 9 seconds 832 msec
