                         Program Version 4.1.2  - RELEASE  -
|  1> #Run DFT-D3 single point of the dimer
|  2> ! wB97X-D3 def2-TZVP TIGHTSCF CHELPG PMODEL PAL8
|  3>
|  4> %base "6-18_DFT_AB"
|  5>
|  6> %scf
|  7> MaxIter 1000
|  8> end
|  9>
| 10> * xyz 0 1
| 11>   C                      -0.715228            1.050743             2.453242
| 12>   O                      -1.854007            0.340821             2.144338
| 13>   H                      -2.633239            0.803480             2.639829
| 14>   H                      -0.871798            2.130612             2.284487
| 15>   H                      -0.449429            0.971583             3.539397
| 16>   H                      0.102194             0.804007             1.757111
| 17>   C                      -4.761511            4.033597             0.644561
| 18>   O                      -5.840978            3.433233             0.049642
| 19>   H                      -5.492849            2.523633             0.104784
| 20>   H                      -3.783085            3.629081             0.423102
| 21>   H                      -4.640133            5.102742             0.387107
| 22>   H                      -4.887416            4.115966             1.738798
| 23> *
| 24>
| 25> #Run DFT-D3 single point of the molecule with dimer basis set
| 26> $new_job
| 27> %base "6-18_DFT_A"
| 28> ! wB97X-D3 def2-TZVP TIGHTSCF CHELPG PMODEL
| 29>
| 30> %scf
| 31> MaxIter 1000
| 32> end
| 33>
| 34> * xyz 0 1
| 35>   C                      -0.715228            1.050743             2.453242
| 36>   O                      -1.854007            0.340821             2.144338
| 37>   H                      -2.633239            0.803480             2.639829
| 38>   H                      -0.871798            2.130612             2.284487
| 39>   H                      -0.449429            0.971583             3.539397
| 40>   H                      0.102194             0.804007             1.757111
| 41>   C                    : -4.761511            4.033597             0.644561
| 42>   O                    : -5.840978            3.433233             0.049642
| 43>   H                    : -5.492849            2.523633             0.104784
| 44>   H                    : -3.783085            3.629081             0.423102
| 45>   H                    : -4.640133            5.102742             0.387107
| 46>   H                    : -4.887416            4.115966             1.738798
| 47> *
| 48>
| 49> #Run DFT-D3 single point of the particle with dimer basis set
| 50> $new_job
| 51> %base "6-18_DFT_B"
| 52> ! wB97X-D3 def2-TZVP TIGHTSCF CHELPG PMODEL
| 53>
| 54> %scf
| 55> MaxIter 1000
| 56> end
| 57>
| 58> * xyz 0 1
| 59>   C                    : -0.715228            1.050743             2.453242
| 60>   O                    : -1.854007            0.340821             2.144338
| 61>   H                    : -2.633239            0.803480             2.639829
| 62>   H                    : -0.871798            2.130612             2.284487
| 63>   H                    : -0.449429            0.971583             3.539397
| 64>   H                    : 0.102194             0.804007             1.757111
| 65>   C                      -4.761511            4.033597             0.644561
| 66>   O                      -5.840978            3.433233             0.049642
| 67>   H                      -5.492849            2.523633             0.104784
| 68>   H                      -3.783085            3.629081             0.423102
| 69>   H                      -4.640133            5.102742             0.387107
| 70>   H                      -4.887416            4.115966             1.738798
| 71> *
| 72>
| 73>                          ****END OF INPUT****
 Total Charge           Charge          ....    0
 Multiplicity           Mult            ....    1
 Number of Electrons    NEL             ....   36
Dispersion correction           -0.000809287
FINAL SINGLE POINT ENERGY      -231.456376944224
Dispersion correction           -0.000228270
FINAL SINGLE POINT ENERGY      -115.729153312728

CARTESIAN COORDINATES (ANGSTROEM)
---------------------------------
  C     -0.715228    1.050743    2.453242
  O     -1.854007    0.340821    2.144338
  H     -2.633239    0.803480    2.639829
  H     -0.871798    2.130612    2.284487
  H     -0.449429    0.971583    3.539397
  H      0.102194    0.804007    1.757111
  C     -4.761511    4.033597    0.644561
  O     -5.840978    3.433233    0.049642
  H     -5.492849    2.523633    0.104784
  H     -3.783085    3.629081    0.423102
  H     -4.640133    5.102742    0.387107
  H     -4.887416    4.115966    1.738798

 Multiplicity           Mult            ....    1
 Number of Electrons    NEL             ....   18
 Basis Dimension        Dim             ....  172

ORBITAL ENERGIES
----------------

  NO   OCC          E(Eh)            E(eV)
   0   2.0000     -19.239360      -523.5296
   1   2.0000     -10.310678      -280.5678
   2   2.0000      -1.159050       -31.5393
   3   2.0000      -0.789453       -21.4821
   4   2.0000      -0.619562       -16.8591
   5   2.0000      -0.545794       -14.8518
   6   2.0000      -0.534477       -14.5439
   7   2.0000      -0.438612       -11.9352
   8   2.0000      -0.372852       -10.1458
   9   0.0000       0.076477         2.0811
  10   0.0000       0.112816         3.0699
  11   0.0000       0.150070         4.0836
  12   0.0000       0.165470         4.5027
  13   0.0000       0.183093         4.9822

MULLIKEN ATOMIC CHARGES
-----------------------
   0 C :    0.000020
   1 O :    0.000006
   2 H :    0.000010
   3 H :   -0.000155
   4 H :   -0.000004
   5 H :   -0.000003
   6 C :   -0.188647
   7 O :   -0.440887
   8 H :    0.322139
   9 H :    0.103060
  10 H :    0.107295
  11 H :    0.097166
Sum of atomic charges:   -0.0000000

LOEWDIN ATOMIC CHARGES
----------------------
   0 C :   -0.000097
   1 O :   -0.000015
   2 H :   -0.000081
   3 H :   -0.000134
   4 H :   -0.000001
   5 H :   -0.000001
   6 C :   -0.444017
   7 O :   -0.043297
   8 H :    0.193688
   9 H :    0.091653
  10 H :    0.106891
  11 H :    0.095409

  Mayer bond orders larger than 0.1
B(  6-C ,  7-O ) :   1.0199 B(  6-C ,  9-H ) :   0.9792 B(  6-C , 10-H ) :   0.9750
B(  6-C , 11-H ) :   0.9770 B(  7-O ,  8-H ) :   0.8980

Dispersion correction           -0.000218104
FINAL SINGLE POINT ENERGY      -115.726732976266

DIPOLE MOMENT
-------------
                                X             Y             Z
Electronic contribution:     -1.61784      -0.83064      -0.95670
Nuclear contribution   :      2.21350       0.49513       1.17226
                        -----------------------------------------
Total Dipole Moment    :      0.59566      -0.33550       0.21556
                        -----------------------------------------
Magnitude (a.u.)       :      0.71683
Magnitude (Debye)      :      1.82203

Rotational constants in cm-1:     4.334158     0.872871     0.838129
Rotational constants in MHz : 129934.786078 26168.029056 25126.485620

                             ****ORCA TERMINATED NORMALLY****
TOTAL RUN TIME: 0 days 0 hours 1 minutes 0 seconds 470 msec
