                         Program Version 4.1.2  - RELEASE  -
|  1> #Run DFT-D3 single point of the dimer
|  2> ! wB97X-D3 def2-TZVP TIGHTSCF CHELPG PMODEL PAL8
|  3>
|  4> %base "17-33_DFT_AB"
|  5>
|  6> %scf
|  7> MaxIter 1000
|  8> end
|  9>
| 10> * xyz 0 1
| 11>   C                      -1.552654            -0.347999            4.263472
| 12>   O                      -0.675985            -0.786314            3.238730
| 13>   H                      -1.311521            -0.903148            2.507645
| 14>   H                      -1.893925            0.644904             3.934240
| 15>   H                      -2.420135            -0.936720            4.503697
| 16>   H                      -1.047543            -0.169033            5.200596
| 17>   C                      -2.872034            -1.342385            0.252077
| 18>   O                      -1.652832            -1.830837            0.814024
| 19>   H                      -0.992034            -1.872652            0.077346
| 20>   H                      -2.830900            -0.442423            -0.367825
| 21>   H                      -3.289325            -2.138283            -0.434809
| 22>   H                      -3.556167            -1.077311            1.098199
| 23> *
| 24>
| 25> #Run DFT-D3 single point of the molecule with dimer basis set
| 26> $new_job
| 27> %base "17-33_DFT_A"
| 28> ! wB97X-D3 def2-TZVP TIGHTSCF CHELPG PMODEL
| 29>
| 30> %scf
| 31> MaxIter 1000
| 32> end
| 33>
| 34> * xyz 0 1
| 35>   C                      -1.552654            -0.347999            4.263472
| 36>   O                      -0.675985            -0.786314            3.238730
| 37>   H                      -1.311521            -0.903148            2.507645
| 38>   H                      -1.893925            0.644904             3.934240
| 39>   H                      -2.420135            -0.936720            4.503697
| 40>   H                      -1.047543            -0.169033            5.200596
| 41>   C                    : -2.872034            -1.342385            0.252077
| 42>   O                    : -1.652832            -1.830837            0.814024
| 43>   H                    : -0.992034            -1.872652            0.077346
| 44>   H                    : -2.830900            -0.442423            -0.367825
| 45>   H                    : -3.289325            -2.138283            -0.434809
| 46>   H                    : -3.556167            -1.077311            1.098199
| 47> *
| 48>
| 49> #Run DFT-D3 single point of the particle with dimer basis set
| 50> $new_job
| 51> %base "17-33_DFT_B"
| 52> ! wB97X-D3 def2-TZVP TIGHTSCF CHELPG PMODEL
| 53>
| 54> %scf
| 55> MaxIter 1000
| 56> end
| 57>
| 58> * xyz 0 1
| 59>   C                    : -1.552654            -0.347999            4.263472
| 60>   O                    : -0.675985            -0.786314            3.238730
| 61>   H                    : -1.311521            -0.903148            2.507645
| 62>   H                    : -1.893925            0.644904             3.934240
| 63>   H                    : -2.420135            -0.936720            4.503697
| 64>   H                    : -1.047543            -0.169033            5.200596
| 65>   C                      -2.872034            -1.342385            0.252077
| 66>   O                      -1.652832            -1.830837            0.814024
| 67>   H                      -0.992034            -1.872652            0.077346
| 68>   H                      -2.830900            -0.442423            -0.367825
| 69>   H                      -3.289325            -2.138283            -0.434809
| 70>   H                      -3.556167            -1.077311            1.098199
| 71> *
| 72>
| 73>                          ****END OF INPUT****
 Total Charge           Charge          ....    0
 Multiplicity           Mult            ....    1
 Number of Electrons    NEL             ....   36
Dispersion correction           -0.001696232
FINAL SINGLE POINT ENERGY      -231.469188892462
Dispersion correction           -0.000224197
FINAL SINGLE POINT ENERGY      -115.731113537598

CARTESIAN COORDINATES (ANGSTROEM)
---------------------------------
  C     -1.552654   -0.347999    4.263472
  O     -0.675985   -0.786314    3.238730
  H     -1.311521   -0.903148    2.507645
  H     -1.893925    0.644904    3.934240
  H     -2.420135   -0.936720    4.503697
  H     -1.047543   -0.169033    5.200596
  C     -2.872034   -1.342385    0.252077
  O     -1.652832   -1.830837    0.814024
  H     -0.992034   -1.872652    0.077346
  H     -2.830900   -0.442423   -0.367825
  H     -3.289325   -2.138283   -0.434809
  H     -3.556167   -1.077311    1.098199

 Multiplicity           Mult            ....    1
 Number of Electrons    NEL             ....   18
 Basis Dimension        Dim             ....  172

ORBITAL ENERGIES
----------------

  NO   OCC          E(Eh)            E(eV)
   0   2.0000     -19.236290      -523.4461
   1   2.0000     -10.320579      -280.8372
   2   2.0000      -1.128528       -30.7088
   3   2.0000      -0.789079       -21.4719
   4   2.0000      -0.608055       -16.5460
   5   2.0000      -0.538342       -14.6490
   6   2.0000      -0.514919       -14.0117
   7   2.0000      -0.438420       -11.9300
   8   2.0000      -0.372904       -10.1472
   9   0.0000       0.094652         2.5756
  10   0.0000       0.119459         3.2506
  11   0.0000       0.148968         4.0536
  12   0.0000       0.184857         5.0302
  13   0.0000       0.196978         5.3601

MULLIKEN ATOMIC CHARGES
-----------------------
   0 C :    0.000376
   1 O :    0.001980
   2 H :   -0.011541
   3 H :   -0.000184
   4 H :   -0.000148
   5 H :   -0.000065
   6 C :   -0.183043
   7 O :   -0.464852
   8 H :    0.314970
   9 H :    0.108939
  10 H :    0.106245
  11 H :    0.127323
Sum of atomic charges:    0.0000000

LOEWDIN ATOMIC CHARGES
----------------------
   0 C :   -0.001222
   1 O :   -0.008488
   2 H :   -0.040171
   3 H :   -0.000058
   4 H :   -0.000068
   5 H :   -0.000019
   6 C :   -0.387953
   7 O :   -0.058385
   8 H :    0.185391
   9 H :    0.092036
  10 H :    0.102896
  11 H :    0.116040

  Mayer bond orders larger than 0.1
B(  6-C ,  7-O ) :   0.9883 B(  6-C ,  9-H ) :   0.9645 B(  6-C , 10-H ) :   0.9730
B(  6-C , 11-H ) :   0.9753 B(  7-O ,  8-H ) :   0.8936

Dispersion correction           -0.000260222
FINAL SINGLE POINT ENERGY      -115.732913505585

DIPOLE MOMENT
-------------
                                X             Y             Z
Electronic contribution:      1.53902      -0.59540       0.89181
Nuclear contribution   :     -1.60360       0.77956      -1.56961
                        -----------------------------------------
Total Dipole Moment    :     -0.06458       0.18416      -0.67779
                        -----------------------------------------
Magnitude (a.u.)       :      0.70533
Magnitude (Debye)      :      1.79280

Rotational constants in cm-1:     4.131873     0.813660     0.778688
Rotational constants in MHz : 123870.424712 24392.916045 23344.474254

                             ****ORCA TERMINATED NORMALLY****
TOTAL RUN TIME: 0 days 0 hours 1 minutes 11 seconds 356 msec
