                         Program Version 4.1.2  - RELEASE  -
|  1> #Run DFT-D3 single point of the dimer
|  2> ! wB97X-D3 def2-TZVP TIGHTSCF CHELPG PMODEL PAL8
|  3>
|  4> %base "12-196_DFT_AB"
|  5>
|  6> %scf
|  7> MaxIter 1000
|  8> end
|  9>
| 10> * xyz 0 1
| 11>   C                      4.754695             -8.150541            5.270730
| 12>   O                      4.104975             -9.335210            5.323063
| 13>   H                      3.952674             -9.690733            4.421511
| 14>   H                      5.553104             -8.139365            4.569096
| 15>   H                      4.058127             -7.356867            4.934805
| 16>   H                      5.126273             -7.952244            6.256845
| 17>   C                      0.694790             -8.476238            6.268935
| 18>   O                      1.925127             -7.793069            6.572434
| 19>   H                      2.628806             -8.229329            6.117399
| 20>   H                      -0.194594            -8.144149            6.722042
| 21>   H                      0.462517             -8.453651            5.196722
| 22>   H                      0.801784             -9.527757            6.532871
| 23> *
| 24>
| 25> #Run DFT-D3 single point of the molecule with dimer basis set
| 26> $new_job
| 27> %base "12-196_DFT_A"
| 28> ! wB97X-D3 def2-TZVP TIGHTSCF CHELPG PMODEL
| 29>
| 30> %scf
| 31> MaxIter 1000
| 32> end
| 33>
| 34> * xyz 0 1
| 35>   C                      4.754695             -8.150541            5.270730
| 36>   O                      4.104975             -9.335210            5.323063
| 37>   H                      3.952674             -9.690733            4.421511
| 38>   H                      5.553104             -8.139365            4.569096
| 39>   H                      4.058127             -7.356867            4.934805
| 40>   H                      5.126273             -7.952244            6.256845
| 41>   C                    : 0.694790             -8.476238            6.268935
| 42>   O                    : 1.925127             -7.793069            6.572434
| 43>   H                    : 2.628806             -8.229329            6.117399
| 44>   H                    : -0.194594            -8.144149            6.722042
| 45>   H                    : 0.462517             -8.453651            5.196722
| 46>   H                    : 0.801784             -9.527757            6.532871
| 47> *
| 48>
| 49> #Run DFT-D3 single point of the particle with dimer basis set
| 50> $new_job
| 51> %base "12-196_DFT_B"
| 52> ! wB97X-D3 def2-TZVP TIGHTSCF CHELPG PMODEL
| 53>
| 54> %scf
| 55> MaxIter 1000
| 56> end
| 57>
| 58> * xyz 0 1
| 59>   C                    : 4.754695             -8.150541            5.270730
| 60>   O                    : 4.104975             -9.335210            5.323063
| 61>   H                    : 3.952674             -9.690733            4.421511
| 62>   H                    : 5.553104             -8.139365            4.569096
| 63>   H                    : 4.058127             -7.356867            4.934805
| 64>   H                    : 5.126273             -7.952244            6.256845
| 65>   C                      0.694790             -8.476238            6.268935
| 66>   O                      1.925127             -7.793069            6.572434
| 67>   H                      2.628806             -8.229329            6.117399
| 68>   H                      -0.194594            -8.144149            6.722042
| 69>   H                      0.462517             -8.453651            5.196722
| 70>   H                      0.801784             -9.527757            6.532871
| 71> *
| 72>
| 73>                          ****END OF INPUT****
 Total Charge           Charge          ....    0
 Multiplicity           Mult            ....    1
 Number of Electrons    NEL             ....   36
Dispersion correction           -0.001905595
FINAL SINGLE POINT ENERGY      -231.469192621142
Dispersion correction           -0.000211186
FINAL SINGLE POINT ENERGY      -115.732796456782

CARTESIAN COORDINATES (ANGSTROEM)
---------------------------------
  C      4.754695   -8.150541    5.270730
  O      4.104975   -9.335210    5.323063
  H      3.952674   -9.690733    4.421511
  H      5.553104   -8.139365    4.569096
  H      4.058127   -7.356867    4.934805
  H      5.126273   -7.952244    6.256845
  C      0.694790   -8.476238    6.268935
  O      1.925127   -7.793069    6.572434
  H      2.628806   -8.229329    6.117399
  H     -0.194594   -8.144149    6.722042
  H      0.462517   -8.453651    5.196722
  H      0.801784   -9.527757    6.532871

 Multiplicity           Mult            ....    1
 Number of Electrons    NEL             ....   18
 Basis Dimension        Dim             ....  172

ORBITAL ENERGIES
----------------

  NO   OCC          E(Eh)            E(eV)
   0   2.0000     -19.230687      -523.2936
   1   2.0000     -10.312088      -280.6062
   2   2.0000      -1.132115       -30.8064
   3   2.0000      -0.804392       -21.8886
   4   2.0000      -0.608793       -16.5661
   5   2.0000      -0.540469       -14.7069
   6   2.0000      -0.533666       -14.5218
   7   2.0000      -0.434117       -11.8129
   8   2.0000      -0.374855       -10.2003
   9   0.0000       0.072976         1.9858
  10   0.0000       0.134026         3.6470
  11   0.0000       0.159199         4.3320
  12   0.0000       0.167817         4.5665
  13   0.0000       0.184417         5.0182

MULLIKEN ATOMIC CHARGES
-----------------------
   0 C :    0.005232
   1 O :   -0.004432
   2 H :   -0.000130
   3 H :    0.000049
   4 H :   -0.008830
   5 H :   -0.000362
   6 C :   -0.175446
   7 O :   -0.467599
   8 H :    0.311104
   9 H :    0.127674
  10 H :    0.104879
  11 H :    0.107862
Sum of atomic charges:   -0.0000000

LOEWDIN ATOMIC CHARGES
----------------------
   0 C :   -0.016562
   1 O :   -0.013659
   2 H :   -0.000940
   3 H :   -0.000143
   4 H :   -0.006586
   5 H :   -0.000994
   6 C :   -0.359776
   7 O :   -0.067557
   8 H :    0.171963
   9 H :    0.099301
  10 H :    0.097559
  11 H :    0.097395

  Mayer bond orders larger than 0.1
B(  6-C ,  7-O ) :   0.9859 B(  6-C ,  9-H ) :   0.9717 B(  6-C , 10-H ) :   0.9756
B(  6-C , 11-H ) :   0.9862 B(  7-O ,  8-H ) :   0.9115

Dispersion correction           -0.000247945
FINAL SINGLE POINT ENERGY      -115.731566021321

DIPOLE MOMENT
-------------
                                X             Y             Z
Electronic contribution:      1.44720       1.07850       0.57648
Nuclear contribution   :     -1.54271      -1.64384      -0.98177
                        -----------------------------------------
Total Dipole Moment    :     -0.09551      -0.56533      -0.40528
                        -----------------------------------------
Magnitude (a.u.)       :      0.70213
Magnitude (Debye)      :      1.78466

Rotational constants in cm-1:     4.554248     0.798958     0.775680
Rotational constants in MHz : 136532.926811 23952.162215 23254.311204

                             ****ORCA TERMINATED NORMALLY****
TOTAL RUN TIME: 0 days 0 hours 1 minutes 5 seconds 382 msec
