                         Program Version 4.1.2  - RELEASE  -
|  1> #Run DFT-D3 single point of the dimer
|  2> ! wB97X-D3 def2-TZVP TIGHTSCF CHELPG PMODEL PAL8
|  3>
|  4> %base "20-16_DFT_AB"
|  5>
|  6> %scf
|  7> MaxIter 1000
|  8> end
|  9>
| 10> * xyz 0 1
| 11>   C                      -3.541612            8.218738             -6.097579
| 12>   O                      -2.500026            7.841059             -5.165467
| 13>   H                      -2.808424            8.091062             -4.276652
| 14>   H                      -4.504519            8.175344             -5.636522
| 15>   H                      -3.270904            9.255707             -6.480989
| 16>   H                      -3.586497            7.616042             -6.948879
| 17>   C                      -1.391945            3.297520             -7.878447
| 18>   O                      -1.548555            4.014057             -9.007819
| 19>   H                      -2.491489            4.133702             -9.258821
| 20>   H                      -1.953114            3.750853             -7.007505
| 21>   H                      -1.819787            2.295117             -8.033450
| 22>   H                      -0.295701            3.124531             -7.632486
| 23> *
| 24>
| 25> #Run DFT-D3 single point of the molecule with dimer basis set
| 26> $new_job
| 27> %base "20-16_DFT_A"
| 28> ! wB97X-D3 def2-TZVP TIGHTSCF CHELPG PMODEL
| 29>
| 30> %scf
| 31> MaxIter 1000
| 32> end
| 33>
| 34> * xyz 0 1
| 35>   C                      -3.541612            8.218738             -6.097579
| 36>   O                      -2.500026            7.841059             -5.165467
| 37>   H                      -2.808424            8.091062             -4.276652
| 38>   H                      -4.504519            8.175344             -5.636522
| 39>   H                      -3.270904            9.255707             -6.480989
| 40>   H                      -3.586497            7.616042             -6.948879
| 41>   C                    : -1.391945            3.297520             -7.878447
| 42>   O                    : -1.548555            4.014057             -9.007819
| 43>   H                    : -2.491489            4.133702             -9.258821
| 44>   H                    : -1.953114            3.750853             -7.007505
| 45>   H                    : -1.819787            2.295117             -8.033450
| 46>   H                    : -0.295701            3.124531             -7.632486
| 47> *
| 48>
| 49> #Run DFT-D3 single point of the particle with dimer basis set
| 50> $new_job
| 51> %base "20-16_DFT_B"
| 52> ! wB97X-D3 def2-TZVP TIGHTSCF CHELPG PMODEL
| 53>
| 54> %scf
| 55> MaxIter 1000
| 56> end
| 57>
| 58> * xyz 0 1
| 59>   C                    : -3.541612            8.218738             -6.097579
| 60>   O                    : -2.500026            7.841059             -5.165467
| 61>   H                    : -2.808424            8.091062             -4.276652
| 62>   H                    : -4.504519            8.175344             -5.636522
| 63>   H                    : -3.270904            9.255707             -6.480989
| 64>   H                    : -3.586497            7.616042             -6.948879
| 65>   C                      -1.391945            3.297520             -7.878447
| 66>   O                      -1.548555            4.014057             -9.007819
| 67>   H                      -2.491489            4.133702             -9.258821
| 68>   H                      -1.953114            3.750853             -7.007505
| 69>   H                      -1.819787            2.295117             -8.033450
| 70>   H                      -0.295701            3.124531             -7.632486
| 71> *
| 72>
| 73>                          ****END OF INPUT****
 Total Charge           Charge          ....    0
 Multiplicity           Mult            ....    1
 Number of Electrons    NEL             ....   36
Dispersion correction           -0.000683350
FINAL SINGLE POINT ENERGY      -231.460711672444
Dispersion correction           -0.000249729
FINAL SINGLE POINT ENERGY      -115.730667679896

CARTESIAN COORDINATES (ANGSTROEM)
---------------------------------
  C     -3.541612    8.218738   -6.097579
  O     -2.500026    7.841059   -5.165467
  H     -2.808424    8.091062   -4.276652
  H     -4.504519    8.175344   -5.636522
  H     -3.270904    9.255707   -6.480989
  H     -3.586497    7.616042   -6.948879
  C     -1.391945    3.297520   -7.878447
  O     -1.548555    4.014057   -9.007819
  H     -2.491489    4.133702   -9.258821
  H     -1.953114    3.750853   -7.007505
  H     -1.819787    2.295117   -8.033450
  H     -0.295701    3.124531   -7.632486

 Multiplicity           Mult            ....    1
 Number of Electrons    NEL             ....   18
 Basis Dimension        Dim             ....  172

ORBITAL ENERGIES
----------------

  NO   OCC          E(Eh)            E(eV)
   0   2.0000     -19.230248      -523.2816
   1   2.0000     -10.316182      -280.7176
   2   2.0000      -1.152489       -31.3608
   3   2.0000      -0.786214       -21.3940
   4   2.0000      -0.620467       -16.8838
   5   2.0000      -0.545239       -14.8367
   6   2.0000      -0.534881       -14.5549
   7   2.0000      -0.420479       -11.4418
   8   2.0000      -0.365044        -9.9334
   9   0.0000       0.084554         2.3008
  10   0.0000       0.110962         3.0194
  11   0.0000       0.151871         4.1326
  12   0.0000       0.167530         4.5587
  13   0.0000       0.185734         5.0541

MULLIKEN ATOMIC CHARGES
-----------------------
   0 C :    0.000032
   1 O :   -0.000000
   2 H :   -0.000004
   3 H :    0.000006
   4 H :   -0.000003
   5 H :   -0.000267
   6 C :   -0.140550
   7 O :   -0.468765
   8 H :    0.323244
   9 H :    0.085046
  10 H :    0.088370
  11 H :    0.112894
Sum of atomic charges:    0.0000000

LOEWDIN ATOMIC CHARGES
----------------------
   0 C :   -0.000040
   1 O :   -0.000016
   2 H :   -0.000002
   3 H :   -0.000001
   4 H :   -0.000001
   5 H :   -0.000093
   6 C :   -0.448269
   7 O :   -0.040296
   8 H :    0.188160
   9 H :    0.094574
  10 H :    0.089780
  11 H :    0.116204

  Mayer bond orders larger than 0.1
B(  6-C ,  7-O ) :   1.0081 B(  6-C ,  9-H ) :   0.9761 B(  6-C , 10-H ) :   0.9835
B(  6-C , 11-H ) :   0.9656 B(  7-O ,  8-H ) :   0.8841

Dispersion correction           -0.000227729
FINAL SINGLE POINT ENERGY      -115.730096616285

DIPOLE MOMENT
-------------
                                X             Y             Z
Electronic contribution:     -0.02718       1.05468      -1.54555
Nuclear contribution   :     -0.52106      -1.24378       1.76482
                        -----------------------------------------
Total Dipole Moment    :     -0.54824      -0.18910       0.21928
                        -----------------------------------------
Magnitude (a.u.)       :      0.62001
Magnitude (Debye)      :      1.57594

Rotational constants in cm-1:     4.152061     0.888880     0.849708
Rotational constants in MHz : 124475.646905 26647.964867 25473.592180

                             ****ORCA TERMINATED NORMALLY****
TOTAL RUN TIME: 0 days 0 hours 0 minutes 55 seconds 181 msec
