                         Program Version 4.1.2  - RELEASE  -
|  1> #Run DFT-D3 single point of the dimer
|  2> ! wB97X-D3 def2-TZVP TIGHTSCF CHELPG PMODEL PAL8
|  3>
|  4> %base "16-188_DFT_AB"
|  5>
|  6> %scf
|  7> MaxIter 1000
|  8> end
|  9>
| 10> * xyz 0 1
| 11>   C                      -7.316454            2.519714             -5.714495
| 12>   O                      -8.253568            3.568823             -5.868071
| 13>   H                      -8.943469            3.628476             -5.171581
| 14>   H                      -6.661630            2.451363             -6.563210
| 15>   H                      -6.733230            2.598841             -4.811686
| 16>   H                      -7.876300            1.578366             -5.571679
| 17>   C                      -10.321211           3.950084             -3.206655
| 18>   O                      -10.458509           2.862363             -4.053899
| 19>   H                      -11.348494           2.518194             -4.150544
| 20>   H                      -10.759877           4.847653             -3.557396
| 21>   H                      -10.852268           3.711023             -2.293220
| 22>   H                      -9.249720            4.126539             -3.000485
| 23> *
| 24>
| 25> #Run DFT-D3 single point of the molecule with dimer basis set
| 26> $new_job
| 27> %base "16-188_DFT_A"
| 28> ! wB97X-D3 def2-TZVP TIGHTSCF CHELPG PMODEL
| 29>
| 30> %scf
| 31> MaxIter 1000
| 32> end
| 33>
| 34> * xyz 0 1
| 35>   C                      -7.316454            2.519714             -5.714495
| 36>   O                      -8.253568            3.568823             -5.868071
| 37>   H                      -8.943469            3.628476             -5.171581
| 38>   H                      -6.661630            2.451363             -6.563210
| 39>   H                      -6.733230            2.598841             -4.811686
| 40>   H                      -7.876300            1.578366             -5.571679
| 41>   C                    : -10.321211           3.950084             -3.206655
| 42>   O                    : -10.458509           2.862363             -4.053899
| 43>   H                    : -11.348494           2.518194             -4.150544
| 44>   H                    : -10.759877           4.847653             -3.557396
| 45>   H                    : -10.852268           3.711023             -2.293220
| 46>   H                    : -9.249720            4.126539             -3.000485
| 47> *
| 48>
| 49> #Run DFT-D3 single point of the particle with dimer basis set
| 50> $new_job
| 51> %base "16-188_DFT_B"
| 52> ! wB97X-D3 def2-TZVP TIGHTSCF CHELPG PMODEL
| 53>
| 54> %scf
| 55> MaxIter 1000
| 56> end
| 57>
| 58> * xyz 0 1
| 59>   C                    : -7.316454            2.519714             -5.714495
| 60>   O                    : -8.253568            3.568823             -5.868071
| 61>   H                    : -8.943469            3.628476             -5.171581
| 62>   H                    : -6.661630            2.451363             -6.563210
| 63>   H                    : -6.733230            2.598841             -4.811686
| 64>   H                    : -7.876300            1.578366             -5.571679
| 65>   C                      -10.321211           3.950084             -3.206655
| 66>   O                      -10.458509           2.862363             -4.053899
| 67>   H                      -11.348494           2.518194             -4.150544
| 68>   H                      -10.759877           4.847653             -3.557396
| 69>   H                      -10.852268           3.711023             -2.293220
| 70>   H                      -9.249720            4.126539             -3.000485
| 71> *
| 72>
| 73>                          ****END OF INPUT****
 Total Charge           Charge          ....    0
 Multiplicity           Mult            ....    1
 Number of Electrons    NEL             ....   36
Dispersion correction           -0.001905367
FINAL SINGLE POINT ENERGY      -231.471603473332
Dispersion correction           -0.000250197
FINAL SINGLE POINT ENERGY      -115.733540935962

CARTESIAN COORDINATES (ANGSTROEM)
---------------------------------
  C     -7.316454    2.519714   -5.714495
  O     -8.253568    3.568823   -5.868071
  H     -8.943469    3.628476   -5.171581
  H     -6.661630    2.451363   -6.563210
  H     -6.733230    2.598841   -4.811686
  H     -7.876300    1.578366   -5.571679
  C    -10.321211    3.950084   -3.206655
  O    -10.458509    2.862363   -4.053899
  H    -11.348494    2.518194   -4.150544
  H    -10.759877    4.847653   -3.557396
  H    -10.852268    3.711023   -2.293220
  H     -9.249720    4.126539   -3.000485

 Multiplicity           Mult            ....    1
 Number of Electrons    NEL             ....   18
 Basis Dimension        Dim             ....  172

ORBITAL ENERGIES
----------------

  NO   OCC          E(Eh)            E(eV)
   0   2.0000     -19.225099      -523.1415
   1   2.0000     -10.307029      -280.4685
   2   2.0000      -1.139508       -31.0076
   3   2.0000      -0.799951       -21.7678
   4   2.0000      -0.620365       -16.8810
   5   2.0000      -0.544425       -14.8145
   6   2.0000      -0.533224       -14.5098
   7   2.0000      -0.423731       -11.5303
   8   2.0000      -0.369278       -10.0486
   9   0.0000       0.098722         2.6864
  10   0.0000       0.125089         3.4038
  11   0.0000       0.154196         4.1959
  12   0.0000       0.191697         5.2163
  13   0.0000       0.197297         5.3687

MULLIKEN ATOMIC CHARGES
-----------------------
   0 C :    0.001208
   1 O :   -0.001844
   2 H :    0.004157
   3 H :   -0.000133
   4 H :   -0.000566
   5 H :   -0.003064
   6 C :   -0.141747
   7 O :   -0.489756
   8 H :    0.315309
   9 H :    0.097643
  10 H :    0.100440
  11 H :    0.118352
Sum of atomic charges:    0.0000000

LOEWDIN ATOMIC CHARGES
----------------------
   0 C :   -0.003304
   1 O :   -0.004450
   2 H :   -0.028838
   3 H :   -0.000033
   4 H :   -0.000106
   5 H :   -0.001665
   6 C :   -0.389676
   7 O :   -0.035367
   8 H :    0.167110
   9 H :    0.085504
  10 H :    0.094852
  11 H :    0.115973

  Mayer bond orders larger than 0.1
B(  6-C ,  7-O ) :   0.9883 B(  6-C ,  9-H ) :   0.9740 B(  6-C , 10-H ) :   0.9853
B(  6-C , 11-H ) :   0.9752 B(  7-O ,  8-H ) :   0.8915

Dispersion correction           -0.000232704
FINAL SINGLE POINT ENERGY      -115.733225020159

DIPOLE MOMENT
-------------
                                X             Y             Z
Electronic contribution:     -0.04219      -1.32897      -1.14733
Nuclear contribution   :     -0.50235       1.54082       1.43781
                        -----------------------------------------
Total Dipole Moment    :     -0.54454       0.21185       0.29048
                        -----------------------------------------
Magnitude (a.u.)       :      0.65252
Magnitude (Debye)      :      1.65859

Rotational constants in cm-1:     4.466628     0.857682     0.820971
Rotational constants in MHz : 133906.150817 25712.654125 24612.093507

                             ****ORCA TERMINATED NORMALLY****
TOTAL RUN TIME: 0 days 0 hours 1 minutes 5 seconds 566 msec
