                         Program Version 4.1.2  - RELEASE  -
|  1> #Run DFT-D3 single point of the dimer
|  2> ! wB97X-D3 def2-TZVP TIGHTSCF CHELPG PMODEL PAL8
|  3>
|  4> %base "3-111_DFT_AB"
|  5>
|  6> %scf
|  7> MaxIter 1000
|  8> end
|  9>
| 10> * xyz 0 1
| 11>   C                      0.989700             0.103803             9.865704
| 12>   O                      1.265327             0.630240             11.214209
| 13>   H                      0.451374             1.012931             11.587193
| 14>   H                      0.426579             -0.844866            9.908428
| 15>   H                      0.413281             0.719244             9.217680
| 16>   H                      1.945017             -0.202523            9.432650
| 17>   C                      2.386429             2.995195             8.591899
| 18>   O                      1.849610             4.090954             7.926021
| 19>   H                      0.922716             3.954351             7.668493
| 20>   H                      3.472603             3.087747             8.957386
| 21>   H                      1.871403             2.819979             9.530052
| 22>   H                      2.375562             2.106276             7.946624
| 23> *
| 24>
| 25> #Run DFT-D3 single point of the molecule with dimer basis set
| 26> $new_job
| 27> %base "3-111_DFT_A"
| 28> ! wB97X-D3 def2-TZVP TIGHTSCF CHELPG PMODEL
| 29>
| 30> %scf
| 31> MaxIter 1000
| 32> end
| 33>
| 34> * xyz 0 1
| 35>   C                      0.989700             0.103803             9.865704
| 36>   O                      1.265327             0.630240             11.214209
| 37>   H                      0.451374             1.012931             11.587193
| 38>   H                      0.426579             -0.844866            9.908428
| 39>   H                      0.413281             0.719244             9.217680
| 40>   H                      1.945017             -0.202523            9.432650
| 41>   C                    : 2.386429             2.995195             8.591899
| 42>   O                    : 1.849610             4.090954             7.926021
| 43>   H                    : 0.922716             3.954351             7.668493
| 44>   H                    : 3.472603             3.087747             8.957386
| 45>   H                    : 1.871403             2.819979             9.530052
| 46>   H                    : 2.375562             2.106276             7.946624
| 47> *
| 48>
| 49> #Run DFT-D3 single point of the particle with dimer basis set
| 50> $new_job
| 51> %base "3-111_DFT_B"
| 52> ! wB97X-D3 def2-TZVP TIGHTSCF CHELPG PMODEL
| 53>
| 54> %scf
| 55> MaxIter 1000
| 56> end
| 57>
| 58> * xyz 0 1
| 59>   C                    : 0.989700             0.103803             9.865704
| 60>   O                    : 1.265327             0.630240             11.214209
| 61>   H                    : 0.451374             1.012931             11.587193
| 62>   H                    : 0.426579             -0.844866            9.908428
| 63>   H                    : 0.413281             0.719244             9.217680
| 64>   H                    : 1.945017             -0.202523            9.432650
| 65>   C                      2.386429             2.995195             8.591899
| 66>   O                      1.849610             4.090954             7.926021
| 67>   H                      0.922716             3.954351             7.668493
| 68>   H                      3.472603             3.087747             8.957386
| 69>   H                      1.871403             2.819979             9.530052
| 70>   H                      2.375562             2.106276             7.946624
| 71> *
| 72>
| 73>                          ****END OF INPUT****
 Total Charge           Charge          ....    0
 Multiplicity           Mult            ....    1
 Number of Electrons    NEL             ....   36
Dispersion correction           -0.002019422
FINAL SINGLE POINT ENERGY      -231.463596748329
Dispersion correction           -0.000282072
FINAL SINGLE POINT ENERGY      -115.732095998667

CARTESIAN COORDINATES (ANGSTROEM)
---------------------------------
  C      0.989700    0.103803    9.865704
  O      1.265327    0.630240   11.214209
  H      0.451374    1.012931   11.587193
  H      0.426579   -0.844866    9.908428
  H      0.413281    0.719244    9.217680
  H      1.945017   -0.202523    9.432650
  C      2.386429    2.995195    8.591899
  O      1.849610    4.090954    7.926021
  H      0.922716    3.954351    7.668493
  H      3.472603    3.087747    8.957386
  H      1.871403    2.819979    9.530052
  H      2.375562    2.106276    7.946624

 Multiplicity           Mult            ....    1
 Number of Electrons    NEL             ....   18
 Basis Dimension        Dim             ....  172

ORBITAL ENERGIES
----------------

  NO   OCC          E(Eh)            E(eV)
   0   2.0000     -19.230552      -523.2899
   1   2.0000     -10.316614      -280.7294
   2   2.0000      -1.139280       -31.0014
   3   2.0000      -0.792575       -21.5671
   4   2.0000      -0.613478       -16.6936
   5   2.0000      -0.549277       -14.9466
   6   2.0000      -0.526977       -14.3398
   7   2.0000      -0.416600       -11.3363
   8   2.0000      -0.373425       -10.1614
   9   0.0000       0.080721         2.1965
  10   0.0000       0.116760         3.1772
  11   0.0000       0.151116         4.1121
  12   0.0000       0.157475         4.2851
  13   0.0000       0.191759         5.2180

MULLIKEN ATOMIC CHARGES
-----------------------
   0 C :   -0.010127
   1 O :    0.000857
   2 H :   -0.000079
   3 H :   -0.000282
   4 H :    0.003018
   5 H :    0.000809
   6 C :   -0.146137
   7 O :   -0.482388
   8 H :    0.322778
   9 H :    0.113897
  10 H :    0.100580
  11 H :    0.097074
Sum of atomic charges:    0.0000000

LOEWDIN ATOMIC CHARGES
----------------------
   0 C :   -0.013827
   1 O :   -0.001869
   2 H :   -0.000606
   3 H :   -0.000134
   4 H :   -0.003310
   5 H :   -0.001656
   6 C :   -0.405141
   7 O :   -0.065994
   8 H :    0.179165
   9 H :    0.119769
  10 H :    0.096458
  11 H :    0.097147

  Mayer bond orders larger than 0.1
B(  6-C ,  7-O ) :   0.9958 B(  6-C ,  9-H ) :   0.9632 B(  6-C , 10-H ) :   0.9789
B(  6-C , 11-H ) :   0.9794 B(  7-O ,  8-H ) :   0.8876

Dispersion correction           -0.000251316
FINAL SINGLE POINT ENERGY      -115.730655401426

DIPOLE MOMENT
-------------
                                X             Y             Z
Electronic contribution:     -0.64748       1.54888      -0.92134
Nuclear contribution   :      0.26140      -2.05528       1.02553
                        -----------------------------------------
Total Dipole Moment    :     -0.38608      -0.50640       0.10419
                        -----------------------------------------
Magnitude (a.u.)       :      0.64526
Magnitude (Debye)      :      1.64011

Rotational constants in cm-1:     4.366271     0.832106     0.808997
Rotational constants in MHz : 130897.507086 24945.895788 24253.108085

                             ****ORCA TERMINATED NORMALLY****
TOTAL RUN TIME: 0 days 0 hours 6 minutes 3 seconds 930 msec
