                         Program Version 4.1.2  - RELEASE  -
|  1> #Run DFT-D3 single point of the dimer
|  2> ! wB97X-D3 def2-TZVP TIGHTSCF CHELPG PMODEL PAL8
|  3>
|  4> %base "1-121_DFT_AB"
|  5>
|  6> %scf
|  7> MaxIter 1000
|  8> end
|  9>
| 10> * xyz 0 1
| 11>   C                      5.542015             10.680437            -0.691978
| 12>   O                      6.160653             11.159139            -1.887757
| 13>   H                      6.573102             10.470271            -2.373774
| 14>   H                      5.940830             11.268965            0.206580
| 15>   H                      4.456905             10.788980            -0.753969
| 16>   H                      5.760810             9.654491             -0.559294
| 17>   C                      3.124411             6.760712             0.079226
| 18>   O                      3.436967             7.917179             -0.688378
| 19>   H                      4.331407             7.963091             -0.943924
| 20>   H                      3.279896             7.001139             1.161215
| 21>   H                      2.073027             6.448068             0.115483
| 22>   H                      3.707843             5.875850             -0.206455
| 23> *
| 24>
| 25> #Run DFT-D3 single point of the molecule with dimer basis set
| 26> $new_job
| 27> %base "1-121_DFT_A"
| 28> ! wB97X-D3 def2-TZVP TIGHTSCF CHELPG PMODEL
| 29>
| 30> %scf
| 31> MaxIter 1000
| 32> end
| 33>
| 34> * xyz 0 1
| 35>   C                      5.542015             10.680437            -0.691978
| 36>   O                      6.160653             11.159139            -1.887757
| 37>   H                      6.573102             10.470271            -2.373774
| 38>   H                      5.940830             11.268965            0.206580
| 39>   H                      4.456905             10.788980            -0.753969
| 40>   H                      5.760810             9.654491             -0.559294
| 41>   C                    : 3.124411             6.760712             0.079226
| 42>   O                    : 3.436967             7.917179             -0.688378
| 43>   H                    : 4.331407             7.963091             -0.943924
| 44>   H                    : 3.279896             7.001139             1.161215
| 45>   H                    : 2.073027             6.448068             0.115483
| 46>   H                    : 3.707843             5.875850             -0.206455
| 47> *
| 48>
| 49> #Run DFT-D3 single point of the particle with dimer basis set
| 50> $new_job
| 51> %base "1-121_DFT_B"
| 52> ! wB97X-D3 def2-TZVP TIGHTSCF CHELPG PMODEL
| 53>
| 54> %scf
| 55> MaxIter 1000
| 56> end
| 57>
| 58> * xyz 0 1
| 59>   C                    : 5.542015             10.680437            -0.691978
| 60>   O                    : 6.160653             11.159139            -1.887757
| 61>   H                    : 6.573102             10.470271            -2.373774
| 62>   H                    : 5.940830             11.268965            0.206580
| 63>   H                    : 4.456905             10.788980            -0.753969
| 64>   H                    : 5.760810             9.654491             -0.559294
| 65>   C                      3.124411             6.760712             0.079226
| 66>   O                      3.436967             7.917179             -0.688378
| 67>   H                      4.331407             7.963091             -0.943924
| 68>   H                      3.279896             7.001139             1.161215
| 69>   H                      2.073027             6.448068             0.115483
| 70>   H                      3.707843             5.875850             -0.206455
| 71> *
| 72>
| 73>                          ****END OF INPUT****
 Total Charge           Charge          ....    0
 Multiplicity           Mult            ....    1
 Number of Electrons    NEL             ....   36
Dispersion correction           -0.001513639
FINAL SINGLE POINT ENERGY      -231.463138647358
Dispersion correction           -0.000254912
FINAL SINGLE POINT ENERGY      -115.732733853833

CARTESIAN COORDINATES (ANGSTROEM)
---------------------------------
  C      5.542015   10.680437   -0.691978
  O      6.160653   11.159139   -1.887757
  H      6.573102   10.470271   -2.373774
  H      5.940830   11.268965    0.206580
  H      4.456905   10.788980   -0.753969
  H      5.760810    9.654491   -0.559294
  C      3.124411    6.760712    0.079226
  O      3.436967    7.917179   -0.688378
  H      4.331407    7.963091   -0.943924
  H      3.279896    7.001139    1.161215
  H      2.073027    6.448068    0.115483
  H      3.707843    5.875850   -0.206455

 Multiplicity           Mult            ....    1
 Number of Electrons    NEL             ....   18
 Basis Dimension        Dim             ....  172

ORBITAL ENERGIES
----------------

  NO   OCC          E(Eh)            E(eV)
   0   2.0000     -19.228445      -523.2326
   1   2.0000     -10.319290      -280.8022
   2   2.0000      -1.137014       -30.9397
   3   2.0000      -0.800984       -21.7959
   4   2.0000      -0.615254       -16.7419
   5   2.0000      -0.540203       -14.6997
   6   2.0000      -0.528059       -14.3692
   7   2.0000      -0.428261       -11.6536
   8   2.0000      -0.372227       -10.1288
   9   0.0000       0.082850         2.2545
  10   0.0000       0.130440         3.5494
  11   0.0000       0.154288         4.1984
  12   0.0000       0.165158         4.4942
  13   0.0000       0.197626         5.3777

MULLIKEN ATOMIC CHARGES
-----------------------
   0 C :    0.002320
   1 O :   -0.000152
   2 H :   -0.000020
   3 H :   -0.000305
   4 H :   -0.001832
   5 H :   -0.008337
   6 C :   -0.170504
   7 O :   -0.472552
   8 H :    0.317102
   9 H :    0.102780
  10 H :    0.122953
  11 H :    0.108546
Sum of atomic charges:    0.0000000

LOEWDIN ATOMIC CHARGES
----------------------
   0 C :   -0.006303
   1 O :   -0.000034
   2 H :   -0.000017
   3 H :   -0.000033
   4 H :   -0.002766
   5 H :   -0.004823
   6 C :   -0.381535
   7 O :   -0.061508
   8 H :    0.151128
   9 H :    0.100654
  10 H :    0.108080
  11 H :    0.097157

  Mayer bond orders larger than 0.1
B(  6-C ,  7-O ) :   0.9981 B(  6-C ,  9-H ) :   0.9794 B(  6-C , 10-H ) :   0.9698
B(  6-C , 11-H ) :   0.9776 B(  7-O ,  8-H ) :   0.8989

Dispersion correction           -0.000269780
FINAL SINGLE POINT ENERGY      -115.730697097423

DIPOLE MOMENT
-------------
                                X             Y             Z
Electronic contribution:      0.29195       1.48682      -1.13390
Nuclear contribution   :      0.14986      -1.95734       1.27642
                        -----------------------------------------
Total Dipole Moment    :      0.44181      -0.47052       0.14252
                        -----------------------------------------
Magnitude (a.u.)       :      0.66098
Magnitude (Debye)      :      1.68008

Rotational constants in cm-1:     4.477673     0.805760     0.780272
Rotational constants in MHz : 134237.254811 24156.090675 23391.958355

                             ****ORCA TERMINATED NORMALLY****
TOTAL RUN TIME: 0 days 0 hours 5 minutes 32 seconds 907 msec
