                         Program Version 4.1.2  - RELEASE  -
|  1> #Run DFT-D3 single point of the dimer
|  2> ! wB97X-D3 def2-TZVP TIGHTSCF CHELPG PMODEL PAL8
|  3>
|  4> %base "7-123_DFT_AB"
|  5>
|  6> %scf
|  7> MaxIter 1000
|  8> end
|  9>
| 10> * xyz 0 1
| 11>   C                      -6.876157            -3.537889            6.430555
| 12>   O                      -7.557125            -4.068631            5.313738
| 13>   H                      -6.837903            -4.361989            4.734408
| 14>   H                      -6.067335            -2.821260            6.093197
| 15>   H                      -7.594730            -2.834349            6.993745
| 16>   H                      -6.463546            -4.327425            7.099497
| 17>   C                      -6.519036            -7.512564            9.177170
| 18>   O                      -7.307728            -7.397217            8.009092
| 19>   H                      -7.724737            -6.538943            8.143415
| 20>   H                      -6.581418            -8.454105            9.709755
| 21>   H                      -5.418856            -7.311625            8.858509
| 22>   H                      -6.842534            -6.728893            9.824663
| 23> *
| 24>
| 25> #Run DFT-D3 single point of the molecule with dimer basis set
| 26> $new_job
| 27> %base "7-123_DFT_A"
| 28> ! wB97X-D3 def2-TZVP TIGHTSCF CHELPG PMODEL
| 29>
| 30> %scf
| 31> MaxIter 1000
| 32> end
| 33>
| 34> * xyz 0 1
| 35>   C                      -6.876157            -3.537889            6.430555
| 36>   O                      -7.557125            -4.068631            5.313738
| 37>   H                      -6.837903            -4.361989            4.734408
| 38>   H                      -6.067335            -2.821260            6.093197
| 39>   H                      -7.594730            -2.834349            6.993745
| 40>   H                      -6.463546            -4.327425            7.099497
| 41>   C                    : -6.519036            -7.512564            9.177170
| 42>   O                    : -7.307728            -7.397217            8.009092
| 43>   H                    : -7.724737            -6.538943            8.143415
| 44>   H                    : -6.581418            -8.454105            9.709755
| 45>   H                    : -5.418856            -7.311625            8.858509
| 46>   H                    : -6.842534            -6.728893            9.824663
| 47> *
| 48>
| 49> #Run DFT-D3 single point of the particle with dimer basis set
| 50> $new_job
| 51> %base "7-123_DFT_B"
| 52> ! wB97X-D3 def2-TZVP TIGHTSCF CHELPG PMODEL
| 53>
| 54> %scf
| 55> MaxIter 1000
| 56> end
| 57>
| 58> * xyz 0 1
| 59>   C                    : -6.876157            -3.537889            6.430555
| 60>   O                    : -7.557125            -4.068631            5.313738
| 61>   H                    : -6.837903            -4.361989            4.734408
| 62>   H                    : -6.067335            -2.821260            6.093197
| 63>   H                    : -7.594730            -2.834349            6.993745
| 64>   H                    : -6.463546            -4.327425            7.099497
| 65>   C                      -6.519036            -7.512564            9.177170
| 66>   O                      -7.307728            -7.397217            8.009092
| 67>   H                      -7.724737            -6.538943            8.143415
| 68>   H                      -6.581418            -8.454105            9.709755
| 69>   H                      -5.418856            -7.311625            8.858509
| 70>   H                      -6.842534            -6.728893            9.824663
| 71> *
| 72>
| 73>                          ****END OF INPUT****
 Total Charge           Charge          ....    0
 Multiplicity           Mult            ....    1
 Number of Electrons    NEL             ....   36
Dispersion correction           -0.001237986
FINAL SINGLE POINT ENERGY      -231.461711723598
Dispersion correction           -0.000243711
FINAL SINGLE POINT ENERGY      -115.732231699417

CARTESIAN COORDINATES (ANGSTROEM)
---------------------------------
  C     -6.876157   -3.537889    6.430555
  O     -7.557125   -4.068631    5.313738
  H     -6.837903   -4.361989    4.734408
  H     -6.067335   -2.821260    6.093197
  H     -7.594730   -2.834349    6.993745
  H     -6.463546   -4.327425    7.099497
  C     -6.519036   -7.512564    9.177170
  O     -7.307728   -7.397217    8.009092
  H     -7.724737   -6.538943    8.143415
  H     -6.581418   -8.454105    9.709755
  H     -5.418856   -7.311625    8.858509
  H     -6.842534   -6.728893    9.824663

 Multiplicity           Mult            ....    1
 Number of Electrons    NEL             ....   18
 Basis Dimension        Dim             ....  172

ORBITAL ENERGIES
----------------

  NO   OCC          E(Eh)            E(eV)
   0   2.0000     -19.231159      -523.3064
   1   2.0000     -10.317100      -280.7426
   2   2.0000      -1.141145       -31.0521
   3   2.0000      -0.789061       -21.4714
   4   2.0000      -0.613813       -16.7027
   5   2.0000      -0.541574       -14.7370
   6   2.0000      -0.527602       -14.3568
   7   2.0000      -0.438081       -11.9208
   8   2.0000      -0.371608       -10.1120
   9   0.0000       0.077769         2.1162
  10   0.0000       0.119532         3.2526
  11   0.0000       0.151106         4.1118
  12   0.0000       0.167090         4.5468
  13   0.0000       0.186087         5.0637

MULLIKEN ATOMIC CHARGES
-----------------------
   0 C :    0.001841
   1 O :    0.000075
   2 H :   -0.000053
   3 H :   -0.000208
   4 H :   -0.000002
   5 H :   -0.005635
   6 C :   -0.182452
   7 O :   -0.457192
   8 H :    0.315811
   9 H :    0.123361
  10 H :    0.100984
  11 H :    0.103469
Sum of atomic charges:    0.0000000

LOEWDIN ATOMIC CHARGES
----------------------
   0 C :   -0.001414
   1 O :   -0.000041
   2 H :   -0.000047
   3 H :   -0.000023
   4 H :   -0.000014
   5 H :   -0.002562
   6 C :   -0.389540
   7 O :   -0.079592
   8 H :    0.174317
   9 H :    0.099150
  10 H :    0.109024
  11 H :    0.090742

  Mayer bond orders larger than 0.1
B(  6-C ,  7-O ) :   1.0035 B(  6-C ,  9-H ) :   0.9683 B(  6-C , 10-H ) :   0.9765
B(  6-C , 11-H ) :   0.9954 B(  7-O ,  8-H ) :   0.9039

Dispersion correction           -0.000229450
FINAL SINGLE POINT ENERGY      -115.728490410542

DIPOLE MOMENT
-------------
                                X             Y             Z
Electronic contribution:     -1.06514      -0.12392      -1.48251
Nuclear contribution   :      1.06921       0.61806       2.03881
                        -----------------------------------------
Total Dipole Moment    :      0.00407       0.49414       0.55630
                        -----------------------------------------
Magnitude (a.u.)       :      0.74408
Magnitude (Debye)      :      1.89130

Rotational constants in cm-1:     4.136107     0.838292     0.813129
Rotational constants in MHz : 123997.371445 25131.372200 24377.008302

                             ****ORCA TERMINATED NORMALLY****
TOTAL RUN TIME: 0 days 0 hours 1 minutes 13 seconds 257 msec
