                         Program Version 4.1.2  - RELEASE  -
|  1> #Run DFT-D3 single point of the dimer
|  2> ! wB97X-D3 def2-TZVP TIGHTSCF CHELPG PMODEL PAL8
|  3>
|  4> %base "13-1_DFT_AB"
|  5>
|  6> %scf
|  7> MaxIter 1000
|  8> end
|  9>
| 10> * xyz 0 1
| 11>   C                      -2.257604            -6.993449            -0.918277
| 12>   O                      -2.080523            -8.395982            -0.827367
| 13>   H                      -2.059170            -8.743386            0.111713
| 14>   H                      -1.423130            -6.407729            -0.539471
| 15>   H                      -2.370768            -6.724110            -2.003700
| 16>   H                      -3.147931            -6.621619            -0.383193
| 17>   C                      -0.928917            -10.983566           -2.640763
| 18>   O                      -0.381111            -10.784562           -1.350864
| 19>   H                      -0.633451            -9.900913            -1.077589
| 20>   H                      -2.030045            -11.105637           -2.622247
| 21>   H                      -0.622373            -10.169376           -3.405240
| 22>   H                      -0.643391            -12.010807           -2.977018
| 23> *
| 24>
| 25> #Run DFT-D3 single point of the molecule with dimer basis set
| 26> $new_job
| 27> %base "13-1_DFT_A"
| 28> ! wB97X-D3 def2-TZVP TIGHTSCF CHELPG PMODEL
| 29>
| 30> %scf
| 31> MaxIter 1000
| 32> end
| 33>
| 34> * xyz 0 1
| 35>   C                      -2.257604            -6.993449            -0.918277
| 36>   O                      -2.080523            -8.395982            -0.827367
| 37>   H                      -2.059170            -8.743386            0.111713
| 38>   H                      -1.423130            -6.407729            -0.539471
| 39>   H                      -2.370768            -6.724110            -2.003700
| 40>   H                      -3.147931            -6.621619            -0.383193
| 41>   C                    : -0.928917            -10.983566           -2.640763
| 42>   O                    : -0.381111            -10.784562           -1.350864
| 43>   H                    : -0.633451            -9.900913            -1.077589
| 44>   H                    : -2.030045            -11.105637           -2.622247
| 45>   H                    : -0.622373            -10.169376           -3.405240
| 46>   H                    : -0.643391            -12.010807           -2.977018
| 47> *
| 48>
| 49> #Run DFT-D3 single point of the particle with dimer basis set
| 50> $new_job
| 51> %base "13-1_DFT_B"
| 52> ! wB97X-D3 def2-TZVP TIGHTSCF CHELPG PMODEL
| 53>
| 54> %scf
| 55> MaxIter 1000
| 56> end
| 57>
| 58> * xyz 0 1
| 59>   C                    : -2.257604            -6.993449            -0.918277
| 60>   O                    : -2.080523            -8.395982            -0.827367
| 61>   H                    : -2.059170            -8.743386            0.111713
| 62>   H                    : -1.423130            -6.407729            -0.539471
| 63>   H                    : -2.370768            -6.724110            -2.003700
| 64>   H                    : -3.147931            -6.621619            -0.383193
| 65>   C                      -0.928917            -10.983566           -2.640763
| 66>   O                      -0.381111            -10.784562           -1.350864
| 67>   H                      -0.633451            -9.900913            -1.077589
| 68>   H                      -2.030045            -11.105637           -2.622247
| 69>   H                      -0.622373            -10.169376           -3.405240
| 70>   H                      -0.643391            -12.010807           -2.977018
| 71> *
| 72>
| 73>                          ****END OF INPUT****
 Total Charge           Charge          ....    0
 Multiplicity           Mult            ....    1
 Number of Electrons    NEL             ....   36
Dispersion correction           -0.001733674
FINAL SINGLE POINT ENERGY      -231.473158600311
Dispersion correction           -0.000274567
FINAL SINGLE POINT ENERGY      -115.734218365944

CARTESIAN COORDINATES (ANGSTROEM)
---------------------------------
  C     -2.257604   -6.993449   -0.918277
  O     -2.080523   -8.395982   -0.827367
  H     -2.059170   -8.743386    0.111713
  H     -1.423130   -6.407729   -0.539471
  H     -2.370768   -6.724110   -2.003700
  H     -3.147931   -6.621619   -0.383193
  C     -0.928917  -10.983566   -2.640763
  O     -0.381111  -10.784562   -1.350864
  H     -0.633451   -9.900913   -1.077589
  H     -2.030045  -11.105637   -2.622247
  H     -0.622373  -10.169376   -3.405240
  H     -0.643391  -12.010807   -2.977018

 Multiplicity           Mult            ....    1
 Number of Electrons    NEL             ....   18
 Basis Dimension        Dim             ....  172

ORBITAL ENERGIES
----------------

  NO   OCC          E(Eh)            E(eV)
   0   2.0000     -19.234623      -523.4007
   1   2.0000     -10.324381      -280.9407
   2   2.0000      -1.139082       -30.9960
   3   2.0000      -0.789363       -21.4797
   4   2.0000      -0.608266       -16.5517
   5   2.0000      -0.541766       -14.7422
   6   2.0000      -0.520492       -14.1633
   7   2.0000      -0.433033       -11.7834
   8   2.0000      -0.375358       -10.2140
   9   0.0000       0.069578         1.8933
  10   0.0000       0.127580         3.4716
  11   0.0000       0.142538         3.8787
  12   0.0000       0.170938         4.6515
  13   0.0000       0.189990         5.1699

MULLIKEN ATOMIC CHARGES
-----------------------
   0 C :   -0.001277
   1 O :   -0.003770
   2 H :   -0.002123
   3 H :    0.000096
   4 H :    0.000050
   5 H :   -0.000002
   6 C :   -0.178246
   7 O :   -0.462137
   8 H :    0.316792
   9 H :    0.106361
  10 H :    0.105311
  11 H :    0.118947
Sum of atomic charges:   -0.0000000

LOEWDIN ATOMIC CHARGES
----------------------
   0 C :   -0.001147
   1 O :   -0.013616
   2 H :   -0.004154
   3 H :   -0.000037
   4 H :   -0.000033
   5 H :   -0.000030
   6 C :   -0.402617
   7 O :   -0.066176
   8 H :    0.172580
   9 H :    0.095962
  10 H :    0.106122
  11 H :    0.113146

  Mayer bond orders larger than 0.1
B(  6-C ,  7-O ) :   1.0005 B(  6-C ,  9-H ) :   0.9703 B(  6-C , 10-H ) :   0.9704
B(  6-C , 11-H ) :   0.9746 B(  7-O ,  8-H ) :   0.9032

Dispersion correction           -0.000261866
FINAL SINGLE POINT ENERGY      -115.732823150686

DIPOLE MOMENT
-------------
                                X             Y             Z
Electronic contribution:      0.82208       0.20235       1.70185
Nuclear contribution   :     -1.19748       0.24130      -2.01321
                        -----------------------------------------
Total Dipole Moment    :     -0.37541       0.44365      -0.31136
                        -----------------------------------------
Magnitude (a.u.)       :      0.65932
Magnitude (Debye)      :      1.67586

Rotational constants in cm-1:     4.103073     0.822863     0.791384
Rotational constants in MHz : 123007.020971 24668.823354 23725.108702

                             ****ORCA TERMINATED NORMALLY****
TOTAL RUN TIME: 0 days 0 hours 1 minutes 11 seconds 207 msec
