                         Program Version 4.1.2  - RELEASE  -
|  1> #Run DFT-D3 single point of the dimer
|  2> ! wB97X-D3 def2-TZVP TIGHTSCF CHELPG PMODEL PAL8
|  3>
|  4> %base "17-193_DFT_AB"
|  5>
|  6> %scf
|  7> MaxIter 1000
|  8> end
|  9>
| 10> * xyz 0 1
| 11>   C                      -2.167442            -4.172124            2.911363
| 12>   O                      -2.828377            -4.368661            1.639484
| 13>   H                      -2.790449            -3.505690            1.160088
| 14>   H                      -2.644157            -4.729153            3.725452
| 15>   H                      -1.142019            -4.560052            2.870684
| 16>   H                      -2.121195            -3.082362            3.157849
| 17>   C                      -2.872034            -1.342385            0.252077
| 18>   O                      -1.652832            -1.830837            0.814024
| 19>   H                      -0.992034            -1.872652            0.077346
| 20>   H                      -2.830900            -0.442423            -0.367825
| 21>   H                      -3.289325            -2.138283            -0.434809
| 22>   H                      -3.556167            -1.077311            1.098199
| 23> *
| 24>
| 25> #Run DFT-D3 single point of the molecule with dimer basis set
| 26> $new_job
| 27> %base "17-193_DFT_A"
| 28> ! wB97X-D3 def2-TZVP TIGHTSCF CHELPG PMODEL
| 29>
| 30> %scf
| 31> MaxIter 1000
| 32> end
| 33>
| 34> * xyz 0 1
| 35>   C                      -2.167442            -4.172124            2.911363
| 36>   O                      -2.828377            -4.368661            1.639484
| 37>   H                      -2.790449            -3.505690            1.160088
| 38>   H                      -2.644157            -4.729153            3.725452
| 39>   H                      -1.142019            -4.560052            2.870684
| 40>   H                      -2.121195            -3.082362            3.157849
| 41>   C                    : -2.872034            -1.342385            0.252077
| 42>   O                    : -1.652832            -1.830837            0.814024
| 43>   H                    : -0.992034            -1.872652            0.077346
| 44>   H                    : -2.830900            -0.442423            -0.367825
| 45>   H                    : -3.289325            -2.138283            -0.434809
| 46>   H                    : -3.556167            -1.077311            1.098199
| 47> *
| 48>
| 49> #Run DFT-D3 single point of the particle with dimer basis set
| 50> $new_job
| 51> %base "17-193_DFT_B"
| 52> ! wB97X-D3 def2-TZVP TIGHTSCF CHELPG PMODEL
| 53>
| 54> %scf
| 55> MaxIter 1000
| 56> end
| 57>
| 58> * xyz 0 1
| 59>   C                    : -2.167442            -4.172124            2.911363
| 60>   O                    : -2.828377            -4.368661            1.639484
| 61>   H                    : -2.790449            -3.505690            1.160088
| 62>   H                    : -2.644157            -4.729153            3.725452
| 63>   H                    : -1.142019            -4.560052            2.870684
| 64>   H                    : -2.121195            -3.082362            3.157849
| 65>   C                      -2.872034            -1.342385            0.252077
| 66>   O                      -1.652832            -1.830837            0.814024
| 67>   H                      -0.992034            -1.872652            0.077346
| 68>   H                      -2.830900            -0.442423            -0.367825
| 69>   H                      -3.289325            -2.138283            -0.434809
| 70>   H                      -3.556167            -1.077311            1.098199
| 71> *
| 72>
| 73>                          ****END OF INPUT****
 Total Charge           Charge          ....    0
 Multiplicity           Mult            ....    1
 Number of Electrons    NEL             ....   36
Dispersion correction           -0.002190014
FINAL SINGLE POINT ENERGY      -231.471478623063
Dispersion correction           -0.000262254
FINAL SINGLE POINT ENERGY      -115.733870798328

CARTESIAN COORDINATES (ANGSTROEM)
---------------------------------
  C     -2.167442   -4.172124    2.911363
  O     -2.828377   -4.368661    1.639484
  H     -2.790449   -3.505690    1.160088
  H     -2.644157   -4.729153    3.725452
  H     -1.142019   -4.560052    2.870684
  H     -2.121195   -3.082362    3.157849
  C     -2.872034   -1.342385    0.252077
  O     -1.652832   -1.830837    0.814024
  H     -0.992034   -1.872652    0.077346
  H     -2.830900   -0.442423   -0.367825
  H     -3.289325   -2.138283   -0.434809
  H     -3.556167   -1.077311    1.098199

 Multiplicity           Mult            ....    1
 Number of Electrons    NEL             ....   18
 Basis Dimension        Dim             ....  172

ORBITAL ENERGIES
----------------

  NO   OCC          E(Eh)            E(eV)
   0   2.0000     -19.236295      -523.4462
   1   2.0000     -10.320500      -280.8351
   2   2.0000      -1.128549       -30.7094
   3   2.0000      -0.789064       -21.4715
   4   2.0000      -0.608069       -16.5464
   5   2.0000      -0.538308       -14.6481
   6   2.0000      -0.514875       -14.0105
   7   2.0000      -0.438402       -11.9295
   8   2.0000      -0.372974       -10.1491
   9   0.0000       0.097637         2.6568
  10   0.0000       0.127343         3.4652
  11   0.0000       0.147198         4.0055
  12   0.0000       0.183082         4.9819
  13   0.0000       0.188081         5.1179

MULLIKEN ATOMIC CHARGES
-----------------------
   0 C :    0.006487
   1 O :   -0.003161
   2 H :    0.004662
   3 H :   -0.000221
   4 H :   -0.002112
   5 H :   -0.006159
   6 C :   -0.194446
   7 O :   -0.467486
   8 H :    0.313406
   9 H :    0.119606
  10 H :    0.106233
  11 H :    0.123190
Sum of atomic charges:    0.0000000

LOEWDIN ATOMIC CHARGES
----------------------
   0 C :   -0.011368
   1 O :   -0.004828
   2 H :   -0.028890
   3 H :   -0.000125
   4 H :   -0.000662
   5 H :   -0.005024
   6 C :   -0.383776
   7 O :   -0.065659
   8 H :    0.185471
   9 H :    0.093713
  10 H :    0.104398
  11 H :    0.116750

  Mayer bond orders larger than 0.1
B(  6-C ,  7-O ) :   0.9856 B(  6-C ,  9-H ) :   0.9632 B(  6-C , 10-H ) :   0.9805
B(  6-C , 11-H ) :   0.9742 B(  7-O ,  8-H ) :   0.8948

Dispersion correction           -0.000260222
FINAL SINGLE POINT ENERGY      -115.732943732706

DIPOLE MOMENT
-------------
                                X             Y             Z
Electronic contribution:      1.54432      -0.58069       0.89161
Nuclear contribution   :     -1.60360       0.77956      -1.56961
                        -----------------------------------------
Total Dipole Moment    :     -0.05929       0.19888      -0.67800
                        -----------------------------------------
Magnitude (a.u.)       :      0.70905
Magnitude (Debye)      :      1.80227

Rotational constants in cm-1:     4.131873     0.813660     0.778688
Rotational constants in MHz : 123870.424712 24392.916045 23344.474254

                             ****ORCA TERMINATED NORMALLY****
TOTAL RUN TIME: 0 days 0 hours 1 minutes 13 seconds 115 msec
