                         Program Version 4.1.2  - RELEASE  -
|  1> #Run DFT-D3 single point of the dimer
|  2> ! wB97X-D3 def2-TZVP TIGHTSCF CHELPG PMODEL PAL8
|  3>
|  4> %base "22-76_DFT_AB"
|  5>
|  6> %scf
|  7> MaxIter 1000
|  8> end
|  9>
| 10> * xyz 0 1
| 11>   C                      -3.152113            -1.685180            5.511687
| 12>   O                      -3.578452            -2.644021            4.578806
| 13>   H                      -2.831220            -3.224825            4.420491
| 14>   H                      -2.231712            -1.127083            5.128433
| 15>   H                      -3.887088            -1.022022            5.889255
| 16>   H                      -2.718246            -2.180419            6.352590
| 17>   C                      -1.507390            1.154501             3.586945
| 18>   O                      -2.170510            2.402761             3.694004
| 19>   H                      -2.738338            2.516325             2.930582
| 20>   H                      -0.792150            1.052577             4.403646
| 21>   H                      -2.124443            0.255359             3.494135
| 22>   H                      -0.882122            1.146564             2.670415
| 23> *
| 24>
| 25> #Run DFT-D3 single point of the molecule with dimer basis set
| 26> $new_job
| 27> %base "22-76_DFT_A"
| 28> ! wB97X-D3 def2-TZVP TIGHTSCF CHELPG PMODEL
| 29>
| 30> %scf
| 31> MaxIter 1000
| 32> end
| 33>
| 34> * xyz 0 1
| 35>   C                      -3.152113            -1.685180            5.511687
| 36>   O                      -3.578452            -2.644021            4.578806
| 37>   H                      -2.831220            -3.224825            4.420491
| 38>   H                      -2.231712            -1.127083            5.128433
| 39>   H                      -3.887088            -1.022022            5.889255
| 40>   H                      -2.718246            -2.180419            6.352590
| 41>   C                    : -1.507390            1.154501             3.586945
| 42>   O                    : -2.170510            2.402761             3.694004
| 43>   H                    : -2.738338            2.516325             2.930582
| 44>   H                    : -0.792150            1.052577             4.403646
| 45>   H                    : -2.124443            0.255359             3.494135
| 46>   H                    : -0.882122            1.146564             2.670415
| 47> *
| 48>
| 49> #Run DFT-D3 single point of the particle with dimer basis set
| 50> $new_job
| 51> %base "22-76_DFT_B"
| 52> ! wB97X-D3 def2-TZVP TIGHTSCF CHELPG PMODEL
| 53>
| 54> %scf
| 55> MaxIter 1000
| 56> end
| 57>
| 58> * xyz 0 1
| 59>   C                    : -3.152113            -1.685180            5.511687
| 60>   O                    : -3.578452            -2.644021            4.578806
| 61>   H                    : -2.831220            -3.224825            4.420491
| 62>   H                    : -2.231712            -1.127083            5.128433
| 63>   H                    : -3.887088            -1.022022            5.889255
| 64>   H                    : -2.718246            -2.180419            6.352590
| 65>   C                      -1.507390            1.154501             3.586945
| 66>   O                      -2.170510            2.402761             3.694004
| 67>   H                      -2.738338            2.516325             2.930582
| 68>   H                      -0.792150            1.052577             4.403646
| 69>   H                      -2.124443            0.255359             3.494135
| 70>   H                      -0.882122            1.146564             2.670415
| 71> *
| 72>
| 73>                          ****END OF INPUT****
 Total Charge           Charge          ....    0
 Multiplicity           Mult            ....    1
 Number of Electrons    NEL             ....   36
Dispersion correction           -0.001487188
FINAL SINGLE POINT ENERGY      -231.465464337494
Dispersion correction           -0.000223718
FINAL SINGLE POINT ENERGY      -115.729977219258

CARTESIAN COORDINATES (ANGSTROEM)
---------------------------------
  C     -3.152113   -1.685180    5.511687
  O     -3.578452   -2.644021    4.578806
  H     -2.831220   -3.224825    4.420491
  H     -2.231712   -1.127083    5.128433
  H     -3.887088   -1.022022    5.889255
  H     -2.718246   -2.180419    6.352590
  C     -1.507390    1.154501    3.586945
  O     -2.170510    2.402761    3.694004
  H     -2.738338    2.516325    2.930582
  H     -0.792150    1.052577    4.403646
  H     -2.124443    0.255359    3.494135
  H     -0.882122    1.146564    2.670415

 Multiplicity           Mult            ....    1
 Number of Electrons    NEL             ....   18
 Basis Dimension        Dim             ....  172

ORBITAL ENERGIES
----------------

  NO   OCC          E(Eh)            E(eV)
   0   2.0000     -19.232078      -523.3314
   1   2.0000     -10.315067      -280.6872
   2   2.0000      -1.136062       -30.9138
   3   2.0000      -0.796458       -21.6727
   4   2.0000      -0.614098       -16.7105
   5   2.0000      -0.534942       -14.5565
   6   2.0000      -0.527328       -14.3493
   7   2.0000      -0.437070       -11.8933
   8   2.0000      -0.372905       -10.1473
   9   0.0000       0.086725         2.3599
  10   0.0000       0.118220         3.2169
  11   0.0000       0.157920         4.2972
  12   0.0000       0.163352         4.4450
  13   0.0000       0.185190         5.0393

MULLIKEN ATOMIC CHARGES
-----------------------
   0 C :    0.007910
   1 O :   -0.000290
   2 H :   -0.000142
   3 H :   -0.009284
   4 H :   -0.000316
   5 H :   -0.000229
   6 C :   -0.159186
   7 O :   -0.471396
   8 H :    0.314697
   9 H :    0.119890
  10 H :    0.100182
  11 H :    0.098163
Sum of atomic charges:   -0.0000000

LOEWDIN ATOMIC CHARGES
----------------------
   0 C :   -0.005697
   1 O :   -0.000086
   2 H :   -0.000059
   3 H :   -0.009274
   4 H :   -0.000170
   5 H :   -0.000046
   6 C :   -0.381490
   7 O :   -0.075118
   8 H :    0.167216
   9 H :    0.110072
  10 H :    0.098207
  11 H :    0.096445

  Mayer bond orders larger than 0.1
B(  6-C ,  7-O ) :   1.0024 B(  6-C ,  9-H ) :   0.9748 B(  6-C , 10-H ) :   0.9637
B(  6-C , 11-H ) :   0.9781 B(  7-O ,  8-H ) :   0.8987

Dispersion correction           -0.000252126
FINAL SINGLE POINT ENERGY      -115.735326241625

DIPOLE MOMENT
-------------
                                X             Y             Z
Electronic contribution:     -0.91191       1.62640       0.36459
Nuclear contribution   :      0.82166      -2.04052      -0.89570
                        -----------------------------------------
Total Dipole Moment    :     -0.09025      -0.41413      -0.53111
                        -----------------------------------------
Magnitude (a.u.)       :      0.67951
Magnitude (Debye)      :      1.72717

Rotational constants in cm-1:     4.350400     0.822700     0.790308
Rotational constants in MHz : 130421.703703 24663.911999 23692.839523

                             ****ORCA TERMINATED NORMALLY****
TOTAL RUN TIME: 0 days 0 hours 0 minutes 53 seconds 53 msec
