                         Program Version 4.1.2  - RELEASE  -
|  1> #Run DFT-D3 single point of the dimer
|  2> ! wB97X-D3 def2-TZVP TIGHTSCF CHELPG PMODEL PAL8
|  3>
|  4> %base "6-40_DFT_AB"
|  5>
|  6> %scf
|  7> MaxIter 1000
|  8> end
|  9>
| 10> * xyz 0 1
| 11>   C                      -8.806139            -3.804200            -0.537785
| 12>   O                      -9.024071            -2.496550            -1.017201
| 13>   H                      -9.353899            -2.559543            -1.944128
| 14>   H                      -8.922862            -3.712289            0.568426
| 15>   H                      -9.480058            -4.616308            -0.979368
| 16>   H                      -7.833328            -4.174835            -0.732438
| 17>   C                      -9.227217            -2.409498            -4.657678
| 18>   O                      -9.884225            -3.176942            -3.650494
| 19>   H                      -10.627733           -3.639017            -4.113338
| 20>   H                      -9.297818            -1.377053            -4.344383
| 21>   H                      -8.123204            -2.537847            -4.645446
| 22>   H                      -9.576016            -2.590265            -5.672001
| 23> *
| 24>
| 25> #Run DFT-D3 single point of the molecule with dimer basis set
| 26> $new_job
| 27> %base "6-40_DFT_A"
| 28> ! wB97X-D3 def2-TZVP TIGHTSCF CHELPG PMODEL
| 29>
| 30> %scf
| 31> MaxIter 1000
| 32> end
| 33>
| 34> * xyz 0 1
| 35>   C                      -8.806139            -3.804200            -0.537785
| 36>   O                      -9.024071            -2.496550            -1.017201
| 37>   H                      -9.353899            -2.559543            -1.944128
| 38>   H                      -8.922862            -3.712289            0.568426
| 39>   H                      -9.480058            -4.616308            -0.979368
| 40>   H                      -7.833328            -4.174835            -0.732438
| 41>   C                    : -9.227217            -2.409498            -4.657678
| 42>   O                    : -9.884225            -3.176942            -3.650494
| 43>   H                    : -10.627733           -3.639017            -4.113338
| 44>   H                    : -9.297818            -1.377053            -4.344383
| 45>   H                    : -8.123204            -2.537847            -4.645446
| 46>   H                    : -9.576016            -2.590265            -5.672001
| 47> *
| 48>
| 49> #Run DFT-D3 single point of the particle with dimer basis set
| 50> $new_job
| 51> %base "6-40_DFT_B"
| 52> ! wB97X-D3 def2-TZVP TIGHTSCF CHELPG PMODEL
| 53>
| 54> %scf
| 55> MaxIter 1000
| 56> end
| 57>
| 58> * xyz 0 1
| 59>   C                    : -8.806139            -3.804200            -0.537785
| 60>   O                    : -9.024071            -2.496550            -1.017201
| 61>   H                    : -9.353899            -2.559543            -1.944128
| 62>   H                    : -8.922862            -3.712289            0.568426
| 63>   H                    : -9.480058            -4.616308            -0.979368
| 64>   H                    : -7.833328            -4.174835            -0.732438
| 65>   C                      -9.227217            -2.409498            -4.657678
| 66>   O                      -9.884225            -3.176942            -3.650494
| 67>   H                      -10.627733           -3.639017            -4.113338
| 68>   H                      -9.297818            -1.377053            -4.344383
| 69>   H                      -8.123204            -2.537847            -4.645446
| 70>   H                      -9.576016            -2.590265            -5.672001
| 71> *
| 72>
| 73>                          ****END OF INPUT****
 Total Charge           Charge          ....    0
 Multiplicity           Mult            ....    1
 Number of Electrons    NEL             ....   36
Dispersion correction           -0.001862275
FINAL SINGLE POINT ENERGY      -231.471646526928
Dispersion correction           -0.000258192
FINAL SINGLE POINT ENERGY      -115.732083914034

CARTESIAN COORDINATES (ANGSTROEM)
---------------------------------
  C     -8.806139   -3.804200   -0.537785
  O     -9.024071   -2.496550   -1.017201
  H     -9.353899   -2.559543   -1.944128
  H     -8.922862   -3.712289    0.568426
  H     -9.480058   -4.616308   -0.979368
  H     -7.833328   -4.174835   -0.732438
  C     -9.227217   -2.409498   -4.657678
  O     -9.884225   -3.176942   -3.650494
  H    -10.627733   -3.639017   -4.113338
  H     -9.297818   -1.377053   -4.344383
  H     -8.123204   -2.537847   -4.645446
  H     -9.576016   -2.590265   -5.672001

 Multiplicity           Mult            ....    1
 Number of Electrons    NEL             ....   18
 Basis Dimension        Dim             ....  172

ORBITAL ENERGIES
----------------

  NO   OCC          E(Eh)            E(eV)
   0   2.0000     -19.234455      -523.3961
   1   2.0000     -10.313408      -280.6421
   2   2.0000      -1.128965       -30.7207
   3   2.0000      -0.793748       -21.5990
   4   2.0000      -0.608286       -16.5523
   5   2.0000      -0.533297       -14.5118
   6   2.0000      -0.526720       -14.3328
   7   2.0000      -0.443129       -12.0582
   8   2.0000      -0.368406       -10.0248
   9   0.0000       0.098412         2.6779
  10   0.0000       0.123428         3.3587
  11   0.0000       0.148746         4.0476
  12   0.0000       0.184738         5.0270
  13   0.0000       0.197411         5.3718

MULLIKEN ATOMIC CHARGES
-----------------------
   0 C :    0.003112
   1 O :    0.000201
   2 H :   -0.006422
   3 H :   -0.000258
   4 H :   -0.003867
   5 H :   -0.000898
   6 C :   -0.187312
   7 O :   -0.463067
   8 H :    0.314046
   9 H :    0.120369
  10 H :    0.109178
  11 H :    0.114919
Sum of atomic charges:   -0.0000000

LOEWDIN ATOMIC CHARGES
----------------------
   0 C :   -0.006586
   1 O :   -0.004458
   2 H :   -0.040985
   3 H :   -0.000076
   4 H :   -0.002351
   5 H :   -0.000202
   6 C :   -0.380867
   7 O :   -0.054750
   8 H :    0.186797
   9 H :    0.100539
  10 H :    0.104999
  11 H :    0.097940

  Mayer bond orders larger than 0.1
B(  6-C ,  7-O ) :   0.9985 B(  6-C ,  9-H ) :   0.9853 B(  6-C , 10-H ) :   0.9758
B(  6-C , 11-H ) :   0.9724 B(  7-O ,  8-H ) :   0.8977

Dispersion correction           -0.000255419
FINAL SINGLE POINT ENERGY      -115.731351838707

DIPOLE MOMENT
-------------
                                X             Y             Z
Electronic contribution:     -0.84808      -1.00047       1.29477
Nuclear contribution   :      0.63943       1.01743      -1.99818
                        -----------------------------------------
Total Dipole Moment    :     -0.20865       0.01697      -0.70341
                        -----------------------------------------
Magnitude (a.u.)       :      0.73390
Magnitude (Debye)      :      1.86543

Rotational constants in cm-1:     4.263433     0.824794     0.782011
Rotational constants in MHz : 127814.507049 24726.715614 23444.085147

                             ****ORCA TERMINATED NORMALLY****
TOTAL RUN TIME: 0 days 0 hours 1 minutes 1 seconds 101 msec
