                         Program Version 4.1.2  - RELEASE  -
|  1> #Run DFT-D3 single point of the dimer
|  2> ! wB97X-D3 def2-TZVP TIGHTSCF  CHELPG PAL8
|  3>
|  4> %base "79_charges"
|  5>
|  6> %scf
|  7> MaxIter 1000
|  8> end
|  9> %output
| 10>   Print[ P_Mayer ] 1
| 11>   Print[ P_NatPop ] 1
| 12>   Print[ P_Hirshfeld ] 1
| 13>   Print[ P_Mulliken ] 1
| 14>   Print [ P_Loewdin ] 1
| 15> end
| 16>
| 17> * xyz 0 1
| 18>   C                      -0.403154            -5.813380            -8.943310
| 19>   O                      -0.851683            -5.998602            -10.217000
| 20>   H                      -0.081170            -6.301743            -10.767763
| 21>   H                      -1.244636            -5.789240            -8.258040
| 22>   H                      0.325679             -6.612716            -8.576596
| 23>   H                      0.093464             -4.814065            -8.932198
| 24> *
| 25>
| 26>                          ****END OF INPUT****

CARTESIAN COORDINATES (ANGSTROEM)
---------------------------------
  C     -0.403154   -5.813380   -8.943310
  O     -0.851683   -5.998602  -10.217000
  H     -0.081170   -6.301743  -10.767763
  H     -1.244636   -5.789240   -8.258040
  H      0.325679   -6.612716   -8.576596
  H      0.093464   -4.814065   -8.932198

 Total Charge           Charge          ....    0
 Multiplicity           Mult            ....    1
 Number of Electrons    NEL             ....   18
 Basis Dimension        Dim             ....   86

ORBITAL ENERGIES
----------------

  NO   OCC          E(Eh)            E(eV)
   0   2.0000     -19.232147      -523.3333
   1   2.0000     -10.314233      -280.6646
   2   2.0000      -1.147826       -31.2339
   3   2.0000      -0.784872       -21.3575
   4   2.0000      -0.612622       -16.6703
   5   2.0000      -0.546961       -14.8836
   6   2.0000      -0.532376       -14.4867
   7   2.0000      -0.428343       -11.6558
   8   2.0000      -0.366469        -9.9721
   9   0.0000       0.109532         2.9805
  10   0.0000       0.156931         4.2703
  11   0.0000       0.195015         5.3066
  12   0.0000       0.207681         5.6513
  13   0.0000       0.229246         6.2381

MULLIKEN ATOMIC CHARGES
-----------------------
   0 C :   -0.159479
   1 O :   -0.463279
   2 H :    0.321249
   3 H :    0.114150
   4 H :    0.093571
   5 H :    0.093788
Sum of atomic charges:   -0.0000000

LOEWDIN ATOMIC CHARGES
----------------------
   0 C :   -0.436425
   1 O :   -0.056530
   2 H :    0.194300
   3 H :    0.103460
   4 H :    0.098957
   5 H :    0.096237

  Mayer bond orders larger than 0.1
B(  0-C ,  1-O ) :   1.0077 B(  0-C ,  3-H ) :   0.9709 B(  0-C ,  4-H ) :   0.9738
B(  0-C ,  5-H ) :   0.9818 B(  1-O ,  2-H ) :   0.8900

Dispersion correction           -0.000224941
FINAL SINGLE POINT ENERGY      -115.731206616771

DIPOLE MOMENT
-------------
                                X             Y             Z
Electronic contribution:     -0.79851      -0.26184      -1.64631
Nuclear contribution   :      1.41576       0.12910       1.75313
                        -----------------------------------------
Total Dipole Moment    :      0.61725      -0.13274       0.10682
                        -----------------------------------------
Magnitude (a.u.)       :      0.64033
Magnitude (Debye)      :      1.62759

Rotational constants in cm-1:     4.085198     0.880034     0.846630
Rotational constants in MHz : 122471.146598 26382.747308 25381.327819

                             ****ORCA TERMINATED NORMALLY****
TOTAL RUN TIME: 0 days 0 hours 0 minutes 41 seconds 329 msec
