                         Program Version 4.1.2  - RELEASE  -
|  1> #Run DFT-D3 single point of the dimer
|  2> ! wB97X-D3 def2-TZVP TIGHTSCF CHELPG PMODEL PAL8
|  3>
|  4> %base "19-200_DFT_AB"
|  5>
|  6> %scf
|  7> MaxIter 1000
|  8> end
|  9>
| 10> * xyz 0 1
| 11>   C                      -2.961215            -7.884649            -1.258607
| 12>   O                      -3.610688            -7.932195            0.018584
| 13>   H                      -3.502670            -8.828416            0.334848
| 14>   H                      -2.254820            -8.680860            -1.353446
| 15>   H                      -3.686694            -7.831056            -2.107191
| 16>   H                      -2.356575            -6.985893            -1.346645
| 17>   C                      -4.870710            -11.223837           1.960255
| 18>   O                      -3.714352            -10.481646           1.690987
| 19>   H                      -3.151898            -10.923892           1.020329
| 20>   H                      -5.616214            -11.020734           1.134862
| 21>   H                      -4.660132            -12.240792           1.941456
| 22>   H                      -5.402218            -11.006514           2.911364
| 23> *
| 24>
| 25> #Run DFT-D3 single point of the molecule with dimer basis set
| 26> $new_job
| 27> %base "19-200_DFT_A"
| 28> ! wB97X-D3 def2-TZVP TIGHTSCF CHELPG PMODEL
| 29>
| 30> %scf
| 31> MaxIter 1000
| 32> end
| 33>
| 34> * xyz 0 1
| 35>   C                      -2.961215            -7.884649            -1.258607
| 36>   O                      -3.610688            -7.932195            0.018584
| 37>   H                      -3.502670            -8.828416            0.334848
| 38>   H                      -2.254820            -8.680860            -1.353446
| 39>   H                      -3.686694            -7.831056            -2.107191
| 40>   H                      -2.356575            -6.985893            -1.346645
| 41>   C                    : -4.870710            -11.223837           1.960255
| 42>   O                    : -3.714352            -10.481646           1.690987
| 43>   H                    : -3.151898            -10.923892           1.020329
| 44>   H                    : -5.616214            -11.020734           1.134862
| 45>   H                    : -4.660132            -12.240792           1.941456
| 46>   H                    : -5.402218            -11.006514           2.911364
| 47> *
| 48>
| 49> #Run DFT-D3 single point of the particle with dimer basis set
| 50> $new_job
| 51> %base "19-200_DFT_B"
| 52> ! wB97X-D3 def2-TZVP TIGHTSCF CHELPG PMODEL
| 53>
| 54> %scf
| 55> MaxIter 1000
| 56> end
| 57>
| 58> * xyz 0 1
| 59>   C                    : -2.961215            -7.884649            -1.258607
| 60>   O                    : -3.610688            -7.932195            0.018584
| 61>   H                    : -3.502670            -8.828416            0.334848
| 62>   H                    : -2.254820            -8.680860            -1.353446
| 63>   H                    : -3.686694            -7.831056            -2.107191
| 64>   H                    : -2.356575            -6.985893            -1.346645
| 65>   C                      -4.870710            -11.223837           1.960255
| 66>   O                      -3.714352            -10.481646           1.690987
| 67>   H                      -3.151898            -10.923892           1.020329
| 68>   H                      -5.616214            -11.020734           1.134862
| 69>   H                      -4.660132            -12.240792           1.941456
| 70>   H                      -5.402218            -11.006514           2.911364
| 71> *
| 72>
| 73>                          ****END OF INPUT****
 Total Charge           Charge          ....    0
 Multiplicity           Mult            ....    1
 Number of Electrons    NEL             ....   36
Dispersion correction           -0.001498266
FINAL SINGLE POINT ENERGY      -231.467688637507
Dispersion correction           -0.000253099
FINAL SINGLE POINT ENERGY      -115.734019040260

CARTESIAN COORDINATES (ANGSTROEM)
---------------------------------
  C     -2.961215   -7.884649   -1.258607
  O     -3.610688   -7.932195    0.018584
  H     -3.502670   -8.828416    0.334848
  H     -2.254820   -8.680860   -1.353446
  H     -3.686694   -7.831056   -2.107191
  H     -2.356575   -6.985893   -1.346645
  C     -4.870710  -11.223837    1.960255
  O     -3.714352  -10.481646    1.690987
  H     -3.151898  -10.923892    1.020329
  H     -5.616214  -11.020734    1.134862
  H     -4.660132  -12.240792    1.941456
  H     -5.402218  -11.006514    2.911364

 Multiplicity           Mult            ....    1
 Number of Electrons    NEL             ....   18
 Basis Dimension        Dim             ....  172

ORBITAL ENERGIES
----------------

  NO   OCC          E(Eh)            E(eV)
   0   2.0000     -19.230953      -523.3008
   1   2.0000     -10.312295      -280.6118
   2   2.0000      -1.135265       -30.8921
   3   2.0000      -0.795588       -21.6490
   4   2.0000      -0.615023       -16.7356
   5   2.0000      -0.539453       -14.6793
   6   2.0000      -0.534248       -14.5376
   7   2.0000      -0.428003       -11.6466
   8   2.0000      -0.369002       -10.0410
   9   0.0000       0.089253         2.4287
  10   0.0000       0.122241         3.3263
  11   0.0000       0.149761         4.0752
  12   0.0000       0.183632         4.9969
  13   0.0000       0.203380         5.5343

MULLIKEN ATOMIC CHARGES
-----------------------
   0 C :    0.001953
   1 O :    0.004532
   2 H :   -0.023697
   3 H :   -0.000444
   4 H :   -0.000030
   5 H :   -0.000164
   6 C :   -0.166950
   7 O :   -0.469879
   8 H :    0.323633
   9 H :    0.097066
  10 H :    0.112883
  11 H :    0.121098
Sum of atomic charges:   -0.0000000

LOEWDIN ATOMIC CHARGES
----------------------
   0 C :   -0.000801
   1 O :   -0.003994
   2 H :   -0.029873
   3 H :   -0.000181
   4 H :   -0.000007
   5 H :   -0.000024
   6 C :   -0.394499
   7 O :   -0.052398
   8 H :    0.185751
   9 H :    0.100780
  10 H :    0.083383
  11 H :    0.111864

  Mayer bond orders larger than 0.1
B(  6-C ,  7-O ) :   0.9929 B(  6-C ,  9-H ) :   0.9828 B(  6-C , 10-H ) :   0.9791
B(  6-C , 11-H ) :   0.9680 B(  7-O ,  8-H ) :   0.8873

Dispersion correction           -0.000239738
FINAL SINGLE POINT ENERGY      -115.730281114769

DIPOLE MOMENT
-------------
                                X             Y             Z
Electronic contribution:      1.53923       1.00562      -0.11505
Nuclear contribution   :     -1.62347      -1.62830      -0.18023
                        -----------------------------------------
Total Dipole Moment    :     -0.08424      -0.62268      -0.29528
                        -----------------------------------------
Magnitude (a.u.)       :      0.69427
Magnitude (Debye)      :      1.76470

Rotational constants in cm-1:     4.381588     0.833958     0.806467
Rotational constants in MHz : 131356.714641 25001.419502 24177.272388

                             ****ORCA TERMINATED NORMALLY****
TOTAL RUN TIME: 0 days 0 hours 0 minutes 49 seconds 709 msec
