                         Program Version 4.1.2  - RELEASE  -
|  1> #Run DFT-D3 single point of the dimer
|  2> ! wB97X-D3 def2-TZVP TIGHTSCF CHELPG PMODEL PAL8
|  3>
|  4> %base "22-113_DFT_AB"
|  5>
|  6> %scf
|  7> MaxIter 1000
|  8> end
|  9>
| 10> * xyz 0 1
| 11>   C                      2.728777             -5.694057            -8.740329
| 12>   O                      2.324008             -5.912598            -10.072786
| 13>   H                      2.987133             -6.439181            -10.468047
| 14>   H                      2.161046             -4.898734            -8.325374
| 15>   H                      2.535671             -6.576832            -8.025007
| 16>   H                      3.746550             -5.495858            -8.741357
| 17>   C                      3.665648             -7.821168            -5.400636
| 18>   O                      2.313230             -7.911947            -5.669289
| 19>   H                      1.928492             -8.336179            -4.940872
| 20>   H                      4.116049             -8.827274            -5.247889
| 21>   H                      4.117865             -7.403982            -6.311332
| 22>   H                      3.967369             -7.184332            -4.616387
| 23> *
| 24>
| 25> #Run DFT-D3 single point of the molecule with dimer basis set
| 26> $new_job
| 27> %base "22-113_DFT_A"
| 28> ! wB97X-D3 def2-TZVP TIGHTSCF CHELPG PMODEL
| 29>
| 30> %scf
| 31> MaxIter 1000
| 32> end
| 33>
| 34> * xyz 0 1
| 35>   C                      2.728777             -5.694057            -8.740329
| 36>   O                      2.324008             -5.912598            -10.072786
| 37>   H                      2.987133             -6.439181            -10.468047
| 38>   H                      2.161046             -4.898734            -8.325374
| 39>   H                      2.535671             -6.576832            -8.025007
| 40>   H                      3.746550             -5.495858            -8.741357
| 41>   C                    : 3.665648             -7.821168            -5.400636
| 42>   O                    : 2.313230             -7.911947            -5.669289
| 43>   H                    : 1.928492             -8.336179            -4.940872
| 44>   H                    : 4.116049             -8.827274            -5.247889
| 45>   H                    : 4.117865             -7.403982            -6.311332
| 46>   H                    : 3.967369             -7.184332            -4.616387
| 47> *
| 48>
| 49> #Run DFT-D3 single point of the particle with dimer basis set
| 50> $new_job
| 51> %base "22-113_DFT_B"
| 52> ! wB97X-D3 def2-TZVP TIGHTSCF CHELPG PMODEL
| 53>
| 54> %scf
| 55> MaxIter 1000
| 56> end
| 57>
| 58> * xyz 0 1
| 59>   C                    : 2.728777             -5.694057            -8.740329
| 60>   O                    : 2.324008             -5.912598            -10.072786
| 61>   H                    : 2.987133             -6.439181            -10.468047
| 62>   H                    : 2.161046             -4.898734            -8.325374
| 63>   H                    : 2.535671             -6.576832            -8.025007
| 64>   H                    : 3.746550             -5.495858            -8.741357
| 65>   C                      3.665648             -7.821168            -5.400636
| 66>   O                      2.313230             -7.911947            -5.669289
| 67>   H                      1.928492             -8.336179            -4.940872
| 68>   H                      4.116049             -8.827274            -5.247889
| 69>   H                      4.117865             -7.403982            -6.311332
| 70>   H                      3.967369             -7.184332            -4.616387
| 71> *
| 72>
| 73>                          ****END OF INPUT****
 Total Charge           Charge          ....    0
 Multiplicity           Mult            ....    1
 Number of Electrons    NEL             ....   36
Dispersion correction           -0.001470948
FINAL SINGLE POINT ENERGY      -231.465738621685
Dispersion correction           -0.000232302
FINAL SINGLE POINT ENERGY      -115.731026248148

CARTESIAN COORDINATES (ANGSTROEM)
---------------------------------
  C      2.728777   -5.694057   -8.740329
  O      2.324008   -5.912598  -10.072786
  H      2.987133   -6.439181  -10.468047
  H      2.161046   -4.898734   -8.325374
  H      2.535671   -6.576832   -8.025007
  H      3.746550   -5.495858   -8.741357
  C      3.665648   -7.821168   -5.400636
  O      2.313230   -7.911947   -5.669289
  H      1.928492   -8.336179   -4.940872
  H      4.116049   -8.827274   -5.247889
  H      4.117865   -7.403982   -6.311332
  H      3.967369   -7.184332   -4.616387

 Multiplicity           Mult            ....    1
 Number of Electrons    NEL             ....   18
 Basis Dimension        Dim             ....  172

ORBITAL ENERGIES
----------------

  NO   OCC          E(Eh)            E(eV)
   0   2.0000     -19.229354      -523.2573
   1   2.0000     -10.307762      -280.4885
   2   2.0000      -1.155362       -31.4390
   3   2.0000      -0.799050       -21.7433
   4   2.0000      -0.623146       -16.9567
   5   2.0000      -0.549142       -14.9429
   6   2.0000      -0.527998       -14.3676
   7   2.0000      -0.433711       -11.8019
   8   2.0000      -0.376564       -10.2468
   9   0.0000       0.094917         2.5828
  10   0.0000       0.123862         3.3705
  11   0.0000       0.158289         4.3072
  12   0.0000       0.175157         4.7663
  13   0.0000       0.192810         5.2466

MULLIKEN ATOMIC CHARGES
-----------------------
   0 C :   -0.000610
   1 O :    0.000012
   2 H :    0.000013
   3 H :   -0.000220
   4 H :   -0.001744
   5 H :   -0.000210
   6 C :   -0.161713
   7 O :   -0.449613
   8 H :    0.303412
   9 H :    0.094487
  10 H :    0.111271
  11 H :    0.104916
Sum of atomic charges:   -0.0000000

LOEWDIN ATOMIC CHARGES
----------------------
   0 C :   -0.002902
   1 O :   -0.000021
   2 H :   -0.000002
   3 H :   -0.000080
   4 H :   -0.005246
   5 H :   -0.000405
   6 C :   -0.406392
   7 O :   -0.028668
   8 H :    0.149422
   9 H :    0.097243
  10 H :    0.112672
  11 H :    0.084381

  Mayer bond orders larger than 0.1
B(  6-C ,  7-O ) :   1.0065 B(  6-C ,  9-H ) :   0.9814 B(  6-C , 10-H ) :   0.9801
B(  6-C , 11-H ) :   0.9678 B(  7-O ,  8-H ) :   0.9078

Dispersion correction           -0.000223802
FINAL SINGLE POINT ENERGY      -115.733518262014

DIPOLE MOMENT
-------------
                                X             Y             Z
Electronic contribution:     -1.83195      -0.01262      -0.33117
Nuclear contribution   :      2.08739      -0.21343       0.89981
                        -----------------------------------------
Total Dipole Moment    :      0.25543      -0.22605       0.56864
                        -----------------------------------------
Magnitude (a.u.)       :      0.66310
Magnitude (Debye)      :      1.68546

Rotational constants in cm-1:     4.410465     0.865469     0.835014
Rotational constants in MHz : 132222.414080 25946.105190 25033.075436

                             ****ORCA TERMINATED NORMALLY****
TOTAL RUN TIME: 0 days 0 hours 1 minutes 3 seconds 332 msec
