                         Program Version 4.1.2  - RELEASE  -
|  1> #Run DFT-D3 single point of the dimer
|  2> ! wB97X-D3 def2-TZVP TIGHTSCF CHELPG PMODEL PAL8
|  3>
|  4> %base "13-160_DFT_AB"
|  5>
|  6> %scf
|  7> MaxIter 1000
|  8> end
|  9>
| 10> * xyz 0 1
| 11>   C                      5.358170             -4.553323            8.289341
| 12>   O                      4.758662             -5.702051            7.788265
| 13>   H                      5.369109             -6.434928            7.839393
| 14>   H                      4.957496             -3.566630            7.869189
| 15>   H                      5.109407             -4.431742            9.340299
| 16>   H                      6.408784             -4.531158            8.178149
| 17>   C                      8.307011             -7.647958            8.749003
| 18>   O                      7.273924             -7.553112            7.776317
| 19>   H                      7.664353             -7.568868            6.900975
| 20>   H                      7.960252             -7.834441            9.762844
| 21>   H                      9.044794             -8.341468            8.415680
| 22>   H                      8.861906             -6.732982            8.793555
| 23> *
| 24>
| 25> #Run DFT-D3 single point of the molecule with dimer basis set
| 26> $new_job
| 27> %base "13-160_DFT_A"
| 28> ! wB97X-D3 def2-TZVP TIGHTSCF CHELPG PMODEL
| 29>
| 30> %scf
| 31> MaxIter 1000
| 32> end
| 33>
| 34> * xyz 0 1
| 35>   C                      5.358170             -4.553323            8.289341
| 36>   O                      4.758662             -5.702051            7.788265
| 37>   H                      5.369109             -6.434928            7.839393
| 38>   H                      4.957496             -3.566630            7.869189
| 39>   H                      5.109407             -4.431742            9.340299
| 40>   H                      6.408784             -4.531158            8.178149
| 41>   C                    : 8.307011             -7.647958            8.749003
| 42>   O                    : 7.273924             -7.553112            7.776317
| 43>   H                    : 7.664353             -7.568868            6.900975
| 44>   H                    : 7.960252             -7.834441            9.762844
| 45>   H                    : 9.044794             -8.341468            8.415680
| 46>   H                    : 8.861906             -6.732982            8.793555
| 47> *
| 48>
| 49> #Run DFT-D3 single point of the particle with dimer basis set
| 50> $new_job
| 51> %base "13-160_DFT_B"
| 52> ! wB97X-D3 def2-TZVP TIGHTSCF CHELPG PMODEL
| 53>
| 54> %scf
| 55> MaxIter 1000
| 56> end
| 57>
| 58> * xyz 0 1
| 59>   C                    : 5.358170             -4.553323            8.289341
| 60>   O                    : 4.758662             -5.702051            7.788265
| 61>   H                    : 5.369109             -6.434928            7.839393
| 62>   H                    : 4.957496             -3.566630            7.869189
| 63>   H                    : 5.109407             -4.431742            9.340299
| 64>   H                    : 6.408784             -4.531158            8.178149
| 65>   C                      8.307011             -7.647958            8.749003
| 66>   O                      7.273924             -7.553112            7.776317
| 67>   H                      7.664353             -7.568868            6.900975
| 68>   H                      7.960252             -7.834441            9.762844
| 69>   H                      9.044794             -8.341468            8.415680
| 70>   H                      8.861906             -6.732982            8.793555
| 71> *
| 72>
| 73>                          ****END OF INPUT****
 Total Charge           Charge          ....    0
 Multiplicity           Mult            ....    1
 Number of Electrons    NEL             ....   36
Dispersion correction           -0.001757320
FINAL SINGLE POINT ENERGY      -231.472489598527
Dispersion correction           -0.000245187
FINAL SINGLE POINT ENERGY      -115.731384832561

CARTESIAN COORDINATES (ANGSTROEM)
---------------------------------
  C      5.358170   -4.553323    8.289341
  O      4.758662   -5.702051    7.788265
  H      5.369109   -6.434928    7.839393
  H      4.957496   -3.566630    7.869189
  H      5.109407   -4.431742    9.340299
  H      6.408784   -4.531158    8.178149
  C      8.307011   -7.647958    8.749003
  O      7.273924   -7.553112    7.776317
  H      7.664353   -7.568868    6.900975
  H      7.960252   -7.834441    9.762844
  H      9.044794   -8.341468    8.415680
  H      8.861906   -6.732982    8.793555

 Multiplicity           Mult            ....    1
 Number of Electrons    NEL             ....   18
 Basis Dimension        Dim             ....  172

ORBITAL ENERGIES
----------------

  NO   OCC          E(Eh)            E(eV)
   0   2.0000     -19.228885      -523.2446
   1   2.0000     -10.307900      -280.4922
   2   2.0000      -1.133107       -30.8334
   3   2.0000      -0.801563       -21.8116
   4   2.0000      -0.613964       -16.7068
   5   2.0000      -0.540155       -14.6984
   6   2.0000      -0.531617       -14.4660
   7   2.0000      -0.437043       -11.8925
   8   2.0000      -0.370148       -10.0723
   9   0.0000       0.096660         2.6303
  10   0.0000       0.124700         3.3933
  11   0.0000       0.152509         4.1500
  12   0.0000       0.189031         5.1438
  13   0.0000       0.195230         5.3125

MULLIKEN ATOMIC CHARGES
-----------------------
   0 C :    0.002869
   1 O :   -0.001069
   2 H :   -0.007023
   3 H :   -0.000124
   4 H :   -0.000450
   5 H :   -0.004385
   6 C :   -0.169781
   7 O :   -0.470875
   8 H :    0.314154
   9 H :    0.123144
  10 H :    0.108327
  11 H :    0.105214
Sum of atomic charges:   -0.0000000

LOEWDIN ATOMIC CHARGES
----------------------
   0 C :   -0.003923
   1 O :   -0.002658
   2 H :   -0.025013
   3 H :   -0.000038
   4 H :   -0.000066
   5 H :   -0.001967
   6 C :   -0.371021
   7 O :   -0.056294
   8 H :    0.168216
   9 H :    0.108595
  10 H :    0.092953
  11 H :    0.091216

  Mayer bond orders larger than 0.1
B(  6-C ,  7-O ) :   0.9848 B(  6-C ,  9-H ) :   0.9738 B(  6-C , 10-H ) :   0.9806
B(  6-C , 11-H ) :   0.9774 B(  7-O ,  8-H ) :   0.8969

Dispersion correction           -0.000229758
FINAL SINGLE POINT ENERGY      -115.732789786713

DIPOLE MOMENT
-------------
                                X             Y             Z
Electronic contribution:     -1.47468       0.02876      -1.05606
Nuclear contribution   :      2.17669      -0.08352       0.89495
                        -----------------------------------------
Total Dipole Moment    :      0.70201      -0.05476      -0.16110
                        -----------------------------------------
Magnitude (a.u.)       :      0.72234
Magnitude (Debye)      :      1.83603

Rotational constants in cm-1:     4.477732     0.829325     0.789565
Rotational constants in MHz : 134239.036260 24862.530610 23670.551927

                             ****ORCA TERMINATED NORMALLY****
TOTAL RUN TIME: 0 days 0 hours 1 minutes 11 seconds 843 msec
