                         Program Version 4.1.2  - RELEASE  -
|  1> #Run DFT-D3 single point of the dimer
|  2> ! wB97X-D3 def2-TZVP TIGHTSCF CHELPG PMODEL PAL8
|  3>
|  4> %base "3-11_DFT_AB"
|  5>
|  6> %scf
|  7> MaxIter 1000
|  8> end
|  9>
| 10> * xyz 0 1
| 11>   C                      0.141561             6.247437             4.342902
| 12>   O                      -0.671210            6.055133             5.470995
| 13>   H                      -0.143852            5.652897             6.120910
| 14>   H                      0.997028             6.871239             4.544806
| 15>   H                      0.411989             5.326716             3.898990
| 16>   H                      -0.387381            6.739469             3.540981
| 17>   C                      3.364403             7.000952             8.031397
| 18>   O                      2.656323             6.753206             6.834931
| 19>   H                      1.756566             6.694762             7.038863
| 20>   H                      3.489645             6.093183             8.608982
| 21>   H                      4.376515             7.112772             7.695436
| 22>   H                      3.001420             7.844361             8.624352
| 23> *
| 24>
| 25> #Run DFT-D3 single point of the molecule with dimer basis set
| 26> $new_job
| 27> %base "3-11_DFT_A"
| 28> ! wB97X-D3 def2-TZVP TIGHTSCF CHELPG PMODEL
| 29>
| 30> %scf
| 31> MaxIter 1000
| 32> end
| 33>
| 34> * xyz 0 1
| 35>   C                      0.141561             6.247437             4.342902
| 36>   O                      -0.671210            6.055133             5.470995
| 37>   H                      -0.143852            5.652897             6.120910
| 38>   H                      0.997028             6.871239             4.544806
| 39>   H                      0.411989             5.326716             3.898990
| 40>   H                      -0.387381            6.739469             3.540981
| 41>   C                    : 3.364403             7.000952             8.031397
| 42>   O                    : 2.656323             6.753206             6.834931
| 43>   H                    : 1.756566             6.694762             7.038863
| 44>   H                    : 3.489645             6.093183             8.608982
| 45>   H                    : 4.376515             7.112772             7.695436
| 46>   H                    : 3.001420             7.844361             8.624352
| 47> *
| 48>
| 49> #Run DFT-D3 single point of the particle with dimer basis set
| 50> $new_job
| 51> %base "3-11_DFT_B"
| 52> ! wB97X-D3 def2-TZVP TIGHTSCF CHELPG PMODEL
| 53>
| 54> %scf
| 55> MaxIter 1000
| 56> end
| 57>
| 58> * xyz 0 1
| 59>   C                    : 0.141561             6.247437             4.342902
| 60>   O                    : -0.671210            6.055133             5.470995
| 61>   H                    : -0.143852            5.652897             6.120910
| 62>   H                    : 0.997028             6.871239             4.544806
| 63>   H                    : 0.411989             5.326716             3.898990
| 64>   H                    : -0.387381            6.739469             3.540981
| 65>   C                      3.364403             7.000952             8.031397
| 66>   O                      2.656323             6.753206             6.834931
| 67>   H                      1.756566             6.694762             7.038863
| 68>   H                      3.489645             6.093183             8.608982
| 69>   H                      4.376515             7.112772             7.695436
| 70>   H                      3.001420             7.844361             8.624352
| 71> *
| 72>
| 73>                          ****END OF INPUT****
 Total Charge           Charge          ....    0
 Multiplicity           Mult            ....    1
 Number of Electrons    NEL             ....   36
Dispersion correction           -0.001560082
FINAL SINGLE POINT ENERGY      -231.466655884311
Dispersion correction           -0.000225441
FINAL SINGLE POINT ENERGY      -115.734002636011

CARTESIAN COORDINATES (ANGSTROEM)
---------------------------------
  C      0.141561    6.247437    4.342902
  O     -0.671210    6.055133    5.470995
  H     -0.143852    5.652897    6.120910
  H      0.997028    6.871239    4.544806
  H      0.411989    5.326716    3.898990
  H     -0.387381    6.739469    3.540981
  C      3.364403    7.000952    8.031397
  O      2.656323    6.753206    6.834931
  H      1.756566    6.694762    7.038863
  H      3.489645    6.093183    8.608982
  H      4.376515    7.112772    7.695436
  H      3.001420    7.844361    8.624352

 Multiplicity           Mult            ....    1
 Number of Electrons    NEL             ....   18
 Basis Dimension        Dim             ....  172

ORBITAL ENERGIES
----------------

  NO   OCC          E(Eh)            E(eV)
   0   2.0000     -19.226633      -523.1833
   1   2.0000     -10.308646      -280.5125
   2   2.0000      -1.143871       -31.1263
   3   2.0000      -0.802832       -21.8462
   4   2.0000      -0.614796       -16.7294
   5   2.0000      -0.550698       -14.9853
   6   2.0000      -0.521533       -14.1916
   7   2.0000      -0.436247       -11.8709
   8   2.0000      -0.375230       -10.2105
   9   0.0000       0.086542         2.3549
  10   0.0000       0.130340         3.5467
  11   0.0000       0.154728         4.2104
  12   0.0000       0.181323         4.9340
  13   0.0000       0.199886         5.4392

MULLIKEN ATOMIC CHARGES
-----------------------
   0 C :    0.000804
   1 O :    0.000237
   2 H :   -0.001663
   3 H :   -0.005749
   4 H :    0.000037
   5 H :   -0.000103
   6 C :   -0.170077
   7 O :   -0.460466
   8 H :    0.307594
   9 H :    0.101928
  10 H :    0.118348
  11 H :    0.109110
Sum of atomic charges:   -0.0000000

LOEWDIN ATOMIC CHARGES
----------------------
   0 C :   -0.003589
   1 O :   -0.000533
   2 H :   -0.003089
   3 H :   -0.004524
   4 H :   -0.000062
   5 H :   -0.000022
   6 C :   -0.382727
   7 O :   -0.050421
   8 H :    0.144864
   9 H :    0.094516
  10 H :    0.108628
  11 H :    0.096960

  Mayer bond orders larger than 0.1
B(  6-C ,  7-O ) :   1.0011 B(  6-C ,  9-H ) :   0.9734 B(  6-C , 10-H ) :   0.9805
B(  6-C , 11-H ) :   0.9720 B(  7-O ,  8-H ) :   0.9077

Dispersion correction           -0.000237388
FINAL SINGLE POINT ENERGY      -115.732126060233

DIPOLE MOMENT
-------------
                                X             Y             Z
Electronic contribution:     -0.90603      -0.19831      -1.49741
Nuclear contribution   :      0.63838       0.25032       2.10358
                        -----------------------------------------
Total Dipole Moment    :     -0.26765       0.05201       0.60617
                        -----------------------------------------
Magnitude (a.u.)       :      0.66467
Magnitude (Debye)      :      1.68946

Rotational constants in cm-1:     4.413657     0.840513     0.810248
Rotational constants in MHz : 132318.093271 25197.939661 24290.628437

                             ****ORCA TERMINATED NORMALLY****
TOTAL RUN TIME: 0 days 0 hours 5 minutes 59 seconds 383 msec
