                         Program Version 4.1.2  - RELEASE  -
|  1> #Run DFT-D3 single point of the dimer
|  2> ! wB97X-D3 def2-TZVP TIGHTSCF CHELPG PMODEL PAL8
|  3>
|  4> %base "13-212_DFT_AB"
|  5>
|  6> %scf
|  7> MaxIter 1000
|  8> end
|  9>
| 10> * xyz 0 1
| 11>   C                      2.271783             4.312011             -7.159874
| 12>   O                      2.570680             5.480226             -7.904220
| 13>   H                      1.999187             6.184199             -7.560593
| 14>   H                      1.626125             4.495112             -6.288783
| 15>   H                      1.894699             3.491721             -7.794099
| 16>   H                      3.254316             4.008877             -6.639738
| 17>   C                      3.001671             9.003757             -7.415550
| 18>   O                      1.828529             8.232042             -7.387582
| 19>   H                      1.041302             8.845983             -7.278788
| 20>   H                      3.815855             8.468651             -7.852427
| 21>   H                      2.893954             9.850733             -8.067275
| 22>   H                      3.380725             9.387454             -6.458342
| 23> *
| 24>
| 25> #Run DFT-D3 single point of the molecule with dimer basis set
| 26> $new_job
| 27> %base "13-212_DFT_A"
| 28> ! wB97X-D3 def2-TZVP TIGHTSCF CHELPG PMODEL
| 29>
| 30> %scf
| 31> MaxIter 1000
| 32> end
| 33>
| 34> * xyz 0 1
| 35>   C                      2.271783             4.312011             -7.159874
| 36>   O                      2.570680             5.480226             -7.904220
| 37>   H                      1.999187             6.184199             -7.560593
| 38>   H                      1.626125             4.495112             -6.288783
| 39>   H                      1.894699             3.491721             -7.794099
| 40>   H                      3.254316             4.008877             -6.639738
| 41>   C                    : 3.001671             9.003757             -7.415550
| 42>   O                    : 1.828529             8.232042             -7.387582
| 43>   H                    : 1.041302             8.845983             -7.278788
| 44>   H                    : 3.815855             8.468651             -7.852427
| 45>   H                    : 2.893954             9.850733             -8.067275
| 46>   H                    : 3.380725             9.387454             -6.458342
| 47> *
| 48>
| 49> #Run DFT-D3 single point of the particle with dimer basis set
| 50> $new_job
| 51> %base "13-212_DFT_B"
| 52> ! wB97X-D3 def2-TZVP TIGHTSCF CHELPG PMODEL
| 53>
| 54> %scf
| 55> MaxIter 1000
| 56> end
| 57>
| 58> * xyz 0 1
| 59>   C                    : 2.271783             4.312011             -7.159874
| 60>   O                    : 2.570680             5.480226             -7.904220
| 61>   H                    : 1.999187             6.184199             -7.560593
| 62>   H                    : 1.626125             4.495112             -6.288783
| 63>   H                    : 1.894699             3.491721             -7.794099
| 64>   H                    : 3.254316             4.008877             -6.639738
| 65>   C                      3.001671             9.003757             -7.415550
| 66>   O                      1.828529             8.232042             -7.387582
| 67>   H                      1.041302             8.845983             -7.278788
| 68>   H                      3.815855             8.468651             -7.852427
| 69>   H                      2.893954             9.850733             -8.067275
| 70>   H                      3.380725             9.387454             -6.458342
| 71> *
| 72>
| 73>                          ****END OF INPUT****
 Total Charge           Charge          ....    0
 Multiplicity           Mult            ....    1
 Number of Electrons    NEL             ....   36
Dispersion correction           -0.001556496
FINAL SINGLE POINT ENERGY      -231.471906214429
Dispersion correction           -0.000258362
FINAL SINGLE POINT ENERGY      -115.731877417379

CARTESIAN COORDINATES (ANGSTROEM)
---------------------------------
  C      2.271783    4.312011   -7.159874
  O      2.570680    5.480226   -7.904220
  H      1.999187    6.184199   -7.560593
  H      1.626125    4.495112   -6.288783
  H      1.894699    3.491721   -7.794099
  H      3.254316    4.008877   -6.639738
  C      3.001671    9.003757   -7.415550
  O      1.828529    8.232042   -7.387582
  H      1.041302    8.845983   -7.278788
  H      3.815855    8.468651   -7.852427
  H      2.893954    9.850733   -8.067275
  H      3.380725    9.387454   -6.458342

 Multiplicity           Mult            ....    1
 Number of Electrons    NEL             ....   18
 Basis Dimension        Dim             ....  172

ORBITAL ENERGIES
----------------

  NO   OCC          E(Eh)            E(eV)
   0   2.0000     -19.236676      -523.4566
   1   2.0000     -10.307338      -280.4769
   2   2.0000      -1.131917       -30.8010
   3   2.0000      -0.797530       -21.7019
   4   2.0000      -0.610550       -16.6139
   5   2.0000      -0.540415       -14.7054
   6   2.0000      -0.530849       -14.4451
   7   2.0000      -0.430479       -11.7139
   8   2.0000      -0.374690       -10.1958
   9   0.0000       0.098556         2.6818
  10   0.0000       0.116464         3.1691
  11   0.0000       0.150507         4.0955
  12   0.0000       0.188028         5.1165
  13   0.0000       0.206326         5.6144

MULLIKEN ATOMIC CHARGES
-----------------------
   0 C :    0.000304
   1 O :   -0.000257
   2 H :   -0.008220
   3 H :   -0.000560
   4 H :   -0.000045
   5 H :    0.000018
   6 C :   -0.152422
   7 O :   -0.467668
   8 H :    0.316929
   9 H :    0.120396
  10 H :    0.100126
  11 H :    0.091399
Sum of atomic charges:    0.0000000

LOEWDIN ATOMIC CHARGES
----------------------
   0 C :   -0.000684
   1 O :   -0.004357
   2 H :   -0.031381
   3 H :   -0.000159
   4 H :   -0.000009
   5 H :   -0.000005
   6 C :   -0.393548
   7 O :   -0.055544
   8 H :    0.195865
   9 H :    0.103867
  10 H :    0.092315
  11 H :    0.093640

  Mayer bond orders larger than 0.1
B(  6-C ,  7-O ) :   1.0034 B(  6-C ,  9-H ) :   0.9777 B(  6-C , 10-H ) :   0.9808
B(  6-C , 11-H ) :   0.9695 B(  7-O ,  8-H ) :   0.8897

Dispersion correction           -0.000252461
FINAL SINGLE POINT ENERGY      -115.732838434278

DIPOLE MOMENT
-------------
                                X             Y             Z
Electronic contribution:     -1.49511      -1.18565       0.07173
Nuclear contribution   :      1.47244       1.88111      -0.04780
                        -----------------------------------------
Total Dipole Moment    :     -0.02266       0.69546       0.02393
                        -----------------------------------------
Magnitude (a.u.)       :      0.69624
Magnitude (Debye)      :      1.76971

Rotational constants in cm-1:     4.453140     0.828018     0.800697
Rotational constants in MHz : 133501.772126 24823.340866 24004.286119

                             ****ORCA TERMINATED NORMALLY****
TOTAL RUN TIME: 0 days 0 hours 0 minutes 57 seconds 871 msec
