                         Program Version 4.1.2  - RELEASE  -
|  1> #Run DFT-D3 single point of the dimer
|  2> ! wB97X-D3 def2-TZVP TIGHTSCF CHELPG PMODEL PAL8
|  3>
|  4> %base "7-72_DFT_AB"
|  5>
|  6> %scf
|  7> MaxIter 1000
|  8> end
|  9>
| 10> * xyz 0 1
| 11>   C                      7.285926             0.821066             2.316241
| 12>   O                      7.532912             0.471736             1.007627
| 13>   H                      8.045949             -0.406475            0.930814
| 14>   H                      7.486048             -0.087081            3.004934
| 15>   H                      7.841240             1.695538             2.765298
| 16>   H                      6.188296             0.937388             2.320612
| 17>   C                      8.231847             4.812904             2.218231
| 18>   O                      7.857317             4.358539             3.507066
| 19>   H                      8.511085             3.740002             3.820354
| 20>   H                      9.259510             4.563071             1.868465
| 21>   H                      7.425748             4.418321             1.520043
| 22>   H                      8.132544             5.888729             2.119775
| 23> *
| 24>
| 25> #Run DFT-D3 single point of the molecule with dimer basis set
| 26> $new_job
| 27> %base "7-72_DFT_A"
| 28> ! wB97X-D3 def2-TZVP TIGHTSCF CHELPG PMODEL
| 29>
| 30> %scf
| 31> MaxIter 1000
| 32> end
| 33>
| 34> * xyz 0 1
| 35>   C                      7.285926             0.821066             2.316241
| 36>   O                      7.532912             0.471736             1.007627
| 37>   H                      8.045949             -0.406475            0.930814
| 38>   H                      7.486048             -0.087081            3.004934
| 39>   H                      7.841240             1.695538             2.765298
| 40>   H                      6.188296             0.937388             2.320612
| 41>   C                    : 8.231847             4.812904             2.218231
| 42>   O                    : 7.857317             4.358539             3.507066
| 43>   H                    : 8.511085             3.740002             3.820354
| 44>   H                    : 9.259510             4.563071             1.868465
| 45>   H                    : 7.425748             4.418321             1.520043
| 46>   H                    : 8.132544             5.888729             2.119775
| 47> *
| 48>
| 49> #Run DFT-D3 single point of the particle with dimer basis set
| 50> $new_job
| 51> %base "7-72_DFT_B"
| 52> ! wB97X-D3 def2-TZVP TIGHTSCF CHELPG PMODEL
| 53>
| 54> %scf
| 55> MaxIter 1000
| 56> end
| 57>
| 58> * xyz 0 1
| 59>   C                    : 7.285926             0.821066             2.316241
| 60>   O                    : 7.532912             0.471736             1.007627
| 61>   H                    : 8.045949             -0.406475            0.930814
| 62>   H                    : 7.486048             -0.087081            3.004934
| 63>   H                    : 7.841240             1.695538             2.765298
| 64>   H                    : 6.188296             0.937388             2.320612
| 65>   C                      8.231847             4.812904             2.218231
| 66>   O                      7.857317             4.358539             3.507066
| 67>   H                      8.511085             3.740002             3.820354
| 68>   H                      9.259510             4.563071             1.868465
| 69>   H                      7.425748             4.418321             1.520043
| 70>   H                      8.132544             5.888729             2.119775
| 71> *
| 72>
| 73>                          ****END OF INPUT****
 Total Charge           Charge          ....    0
 Multiplicity           Mult            ....    1
 Number of Electrons    NEL             ....   36
Dispersion correction           -0.001615327
FINAL SINGLE POINT ENERGY      -231.456614410489
Dispersion correction           -0.000256815
FINAL SINGLE POINT ENERGY      -115.723510595267

CARTESIAN COORDINATES (ANGSTROEM)
---------------------------------
  C      7.285926    0.821066    2.316241
  O      7.532912    0.471736    1.007627
  H      8.045949   -0.406475    0.930814
  H      7.486048   -0.087081    3.004934
  H      7.841240    1.695538    2.765298
  H      6.188296    0.937388    2.320612
  C      8.231847    4.812904    2.218231
  O      7.857317    4.358539    3.507066
  H      8.511085    3.740002    3.820354
  H      9.259510    4.563071    1.868465
  H      7.425748    4.418321    1.520043
  H      8.132544    5.888729    2.119775

 Multiplicity           Mult            ....    1
 Number of Electrons    NEL             ....   18
 Basis Dimension        Dim             ....  172

ORBITAL ENERGIES
----------------

  NO   OCC          E(Eh)            E(eV)
   0   2.0000     -19.231898      -523.3266
   1   2.0000     -10.318887      -280.7912
   2   2.0000      -1.137536       -30.9539
   3   2.0000      -0.794232       -21.6122
   4   2.0000      -0.613326       -16.6894
   5   2.0000      -0.532410       -14.4876
   6   2.0000      -0.527310       -14.3488
   7   2.0000      -0.438925       -11.9438
   8   2.0000      -0.369694       -10.0599
   9   0.0000       0.083817         2.2808
  10   0.0000       0.122952         3.3457
  11   0.0000       0.148169         4.0319
  12   0.0000       0.171476         4.6661
  13   0.0000       0.184205         5.0125

MULLIKEN ATOMIC CHARGES
-----------------------
   0 C :    0.009124
   1 O :   -0.000171
   2 H :   -0.000016
   3 H :   -0.000479
   4 H :   -0.019202
   5 H :   -0.000344
   6 C :   -0.184559
   7 O :   -0.461514
   8 H :    0.316081
   9 H :    0.108411
  10 H :    0.111019
  11 H :    0.121650
Sum of atomic charges:   -0.0000000

LOEWDIN ATOMIC CHARGES
----------------------
   0 C :   -0.002899
   1 O :   -0.000073
   2 H :   -0.000006
   3 H :   -0.000019
   4 H :   -0.007911
   5 H :   -0.000109
   6 C :   -0.393634
   7 O :   -0.068307
   8 H :    0.163929
   9 H :    0.100432
  10 H :    0.108797
  11 H :    0.099800

  Mayer bond orders larger than 0.1
B(  6-C ,  7-O ) :   0.9994 B(  6-C ,  9-H ) :   0.9730 B(  6-C , 10-H ) :   0.9840
B(  6-C , 11-H ) :   0.9738 B(  7-O ,  8-H ) :   0.9006

Dispersion correction           -0.000266412
FINAL SINGLE POINT ENERGY      -115.732444829001

DIPOLE MOMENT
-------------
                                X             Y             Z
Electronic contribution:     -0.44682      -0.51259       1.73847
Nuclear contribution   :      1.02810       0.32221      -2.03192
                        -----------------------------------------
Total Dipole Moment    :      0.58128      -0.19038      -0.29345
                        -----------------------------------------
Magnitude (a.u.)       :      0.67842
Magnitude (Debye)      :      1.72440

Rotational constants in cm-1:     4.249802     0.823738     0.789473
Rotational constants in MHz : 127405.869045 24695.043369 23667.790808

                             ****ORCA TERMINATED NORMALLY****
TOTAL RUN TIME: 0 days 0 hours 1 minutes 8 seconds 5 msec
