                         Program Version 4.1.2  - RELEASE  -
|  1> #Run DFT-D3 single point of the dimer
|  2> ! wB97X-D3 def2-TZVP TIGHTSCF CHELPG PMODEL PAL8
|  3>
|  4> %base "9-154_DFT_AB"
|  5>
|  6> %scf
|  7> MaxIter 1000
|  8> end
|  9>
| 10> * xyz 0 1
| 11>   C                      -4.001292            5.700041             11.026275
| 12>   O                      -3.086965            5.555457             9.920102
| 13>   H                      -2.367967            6.146032             10.115542
| 14>   H                      -3.679989            5.258567             11.966806
| 15>   H                      -4.174496            6.808621             11.212356
| 16>   H                      -4.976876            5.231528             10.844541
| 17>   C                      -1.290299            8.433248             8.669022
| 18>   O                      -1.568761            7.924219             9.948612
| 19>   H                      -1.060228            8.309099             10.647641
| 20>   H                      -1.568167            9.504635             8.514932
| 21>   H                      -0.198766            8.334005             8.519396
| 22>   H                      -1.691228            7.854699             7.915342
| 23> *
| 24>
| 25> #Run DFT-D3 single point of the molecule with dimer basis set
| 26> $new_job
| 27> %base "9-154_DFT_A"
| 28> ! wB97X-D3 def2-TZVP TIGHTSCF CHELPG PMODEL
| 29>
| 30> %scf
| 31> MaxIter 1000
| 32> end
| 33>
| 34> * xyz 0 1
| 35>   C                      -4.001292            5.700041             11.026275
| 36>   O                      -3.086965            5.555457             9.920102
| 37>   H                      -2.367967            6.146032             10.115542
| 38>   H                      -3.679989            5.258567             11.966806
| 39>   H                      -4.174496            6.808621             11.212356
| 40>   H                      -4.976876            5.231528             10.844541
| 41>   C                    : -1.290299            8.433248             8.669022
| 42>   O                    : -1.568761            7.924219             9.948612
| 43>   H                    : -1.060228            8.309099             10.647641
| 44>   H                    : -1.568167            9.504635             8.514932
| 45>   H                    : -0.198766            8.334005             8.519396
| 46>   H                    : -1.691228            7.854699             7.915342
| 47> *
| 48>
| 49> #Run DFT-D3 single point of the particle with dimer basis set
| 50> $new_job
| 51> %base "9-154_DFT_B"
| 52> ! wB97X-D3 def2-TZVP TIGHTSCF CHELPG PMODEL
| 53>
| 54> %scf
| 55> MaxIter 1000
| 56> end
| 57>
| 58> * xyz 0 1
| 59>   C                    : -4.001292            5.700041             11.026275
| 60>   O                    : -3.086965            5.555457             9.920102
| 61>   H                    : -2.367967            6.146032             10.115542
| 62>   H                    : -3.679989            5.258567             11.966806
| 63>   H                    : -4.174496            6.808621             11.212356
| 64>   H                    : -4.976876            5.231528             10.844541
| 65>   C                      -1.290299            8.433248             8.669022
| 66>   O                      -1.568761            7.924219             9.948612
| 67>   H                      -1.060228            8.309099             10.647641
| 68>   H                      -1.568167            9.504635             8.514932
| 69>   H                      -0.198766            8.334005             8.519396
| 70>   H                      -1.691228            7.854699             7.915342
| 71> *
| 72>
| 73>                          ****END OF INPUT****
 Total Charge           Charge          ....    0
 Multiplicity           Mult            ....    1
 Number of Electrons    NEL             ....   36
Dispersion correction           -0.001795948
FINAL SINGLE POINT ENERGY      -231.472926364856
Dispersion correction           -0.000258218
FINAL SINGLE POINT ENERGY      -115.733843534879

CARTESIAN COORDINATES (ANGSTROEM)
---------------------------------
  C     -4.001292    5.700041   11.026275
  O     -3.086965    5.555457    9.920102
  H     -2.367967    6.146032   10.115542
  H     -3.679989    5.258567   11.966806
  H     -4.174496    6.808621   11.212356
  H     -4.976876    5.231528   10.844541
  C     -1.290299    8.433248    8.669022
  O     -1.568761    7.924219    9.948612
  H     -1.060228    8.309099   10.647641
  H     -1.568167    9.504635    8.514932
  H     -0.198766    8.334005    8.519396
  H     -1.691228    7.854699    7.915342

 Multiplicity           Mult            ....    1
 Number of Electrons    NEL             ....   18
 Basis Dimension        Dim             ....  172

ORBITAL ENERGIES
----------------

  NO   OCC          E(Eh)            E(eV)
   0   2.0000     -19.226926      -523.1913
   1   2.0000     -10.310490      -280.5627
   2   2.0000      -1.137481       -30.9524
   3   2.0000      -0.803879       -21.8747
   4   2.0000      -0.614087       -16.7102
   5   2.0000      -0.543376       -14.7860
   6   2.0000      -0.537100       -14.6152
   7   2.0000      -0.425054       -11.5663
   8   2.0000      -0.372036       -10.1236
   9   0.0000       0.101212         2.7541
  10   0.0000       0.126571         3.4442
  11   0.0000       0.153922         4.1884
  12   0.0000       0.189214         5.1488
  13   0.0000       0.202296         5.5048

MULLIKEN ATOMIC CHARGES
-----------------------
   0 C :    0.004891
   1 O :    0.000944
   2 H :   -0.012324
   3 H :   -0.000581
   4 H :   -0.005553
   5 H :   -0.000179
   6 C :   -0.145910
   7 O :   -0.479713
   8 H :    0.317047
   9 H :    0.097026
  10 H :    0.096571
  11 H :    0.127781
Sum of atomic charges:    0.0000000

LOEWDIN ATOMIC CHARGES
----------------------
   0 C :   -0.004702
   1 O :   -0.006009
   2 H :   -0.040311
   3 H :   -0.000073
   4 H :   -0.002905
   5 H :   -0.000045
   6 C :   -0.377906
   7 O :   -0.021429
   8 H :    0.159713
   9 H :    0.099731
  10 H :    0.099589
  11 H :    0.094346

  Mayer bond orders larger than 0.1
B(  6-C ,  7-O ) :   0.9887 B(  6-C ,  9-H ) :   0.9674 B(  6-C , 10-H ) :   0.9864
B(  6-C , 11-H ) :   0.9744 B(  7-O ,  8-H ) :   0.8941

Dispersion correction           -0.000248215
FINAL SINGLE POINT ENERGY      -115.731427016343

DIPOLE MOMENT
-------------
                                X             Y             Z
Electronic contribution:     -0.58802      -0.73087       1.55042
Nuclear contribution   :      1.04659       1.17089      -1.63310
                        -----------------------------------------
Total Dipole Moment    :      0.45857       0.44002      -0.08268
                        -----------------------------------------
Magnitude (a.u.)       :      0.64089
Magnitude (Debye)      :      1.62902

Rotational constants in cm-1:     4.495361     0.827342     0.809012
Rotational constants in MHz : 134767.534771 24803.092000 24253.584003

                             ****ORCA TERMINATED NORMALLY****
TOTAL RUN TIME: 0 days 0 hours 0 minutes 45 seconds 659 msec
