                         Program Version 4.1.2  - RELEASE  -
|  1> #Run DFT-D3 single point of the dimer
|  2> ! wB97X-D3 def2-TZVP TIGHTSCF CHELPG PMODEL PAL8
|  3>
|  4> %base "20-183_DFT_AB"
|  5>
|  6> %scf
|  7> MaxIter 1000
|  8> end
|  9>
| 10> * xyz 0 1
| 11>   C                      0.472502             -5.718188            10.271977
| 12>   O                      -0.371856            -4.798705            9.647060
| 13>   H                      -0.902227            -4.476647            10.356303
| 14>   H                      -0.037570            -6.570400            10.726804
| 15>   H                      1.235160             -6.131682            9.617108
| 16>   H                      1.114302             -5.218436            11.018165
| 17>   C                      -1.797046            -4.013629            6.412944
| 18>   O                      -0.795036            -4.973618            6.750432
| 19>   H                      -0.643296            -5.071644            7.705553
| 20>   H                      -1.606571            -3.033322            6.892368
| 21>   H                      -1.940865            -3.918832            5.324172
| 22>   H                      -2.766463            -4.355614            6.819624
| 23> *
| 24>
| 25> #Run DFT-D3 single point of the molecule with dimer basis set
| 26> $new_job
| 27> %base "20-183_DFT_A"
| 28> ! wB97X-D3 def2-TZVP TIGHTSCF CHELPG PMODEL
| 29>
| 30> %scf
| 31> MaxIter 1000
| 32> end
| 33>
| 34> * xyz 0 1
| 35>   C                      0.472502             -5.718188            10.271977
| 36>   O                      -0.371856            -4.798705            9.647060
| 37>   H                      -0.902227            -4.476647            10.356303
| 38>   H                      -0.037570            -6.570400            10.726804
| 39>   H                      1.235160             -6.131682            9.617108
| 40>   H                      1.114302             -5.218436            11.018165
| 41>   C                    : -1.797046            -4.013629            6.412944
| 42>   O                    : -0.795036            -4.973618            6.750432
| 43>   H                    : -0.643296            -5.071644            7.705553
| 44>   H                    : -1.606571            -3.033322            6.892368
| 45>   H                    : -1.940865            -3.918832            5.324172
| 46>   H                    : -2.766463            -4.355614            6.819624
| 47> *
| 48>
| 49> #Run DFT-D3 single point of the particle with dimer basis set
| 50> $new_job
| 51> %base "20-183_DFT_B"
| 52> ! wB97X-D3 def2-TZVP TIGHTSCF CHELPG PMODEL
| 53>
| 54> %scf
| 55> MaxIter 1000
| 56> end
| 57>
| 58> * xyz 0 1
| 59>   C                    : 0.472502             -5.718188            10.271977
| 60>   O                    : -0.371856            -4.798705            9.647060
| 61>   H                    : -0.902227            -4.476647            10.356303
| 62>   H                    : -0.037570            -6.570400            10.726804
| 63>   H                    : 1.235160             -6.131682            9.617108
| 64>   H                    : 1.114302             -5.218436            11.018165
| 65>   C                      -1.797046            -4.013629            6.412944
| 66>   O                      -0.795036            -4.973618            6.750432
| 67>   H                      -0.643296            -5.071644            7.705553
| 68>   H                      -1.606571            -3.033322            6.892368
| 69>   H                      -1.940865            -3.918832            5.324172
| 70>   H                      -2.766463            -4.355614            6.819624
| 71> *
| 72>
| 73>                          ****END OF INPUT****
 Total Charge           Charge          ....    0
 Multiplicity           Mult            ....    1
 Number of Electrons    NEL             ....   36
Dispersion correction           -0.001612131
FINAL SINGLE POINT ENERGY      -231.475603084249
Dispersion correction           -0.000228414
FINAL SINGLE POINT ENERGY      -115.734001632613

CARTESIAN COORDINATES (ANGSTROEM)
---------------------------------
  C      0.472502   -5.718188   10.271977
  O     -0.371856   -4.798705    9.647060
  H     -0.902227   -4.476647   10.356303
  H     -0.037570   -6.570400   10.726804
  H      1.235160   -6.131682    9.617108
  H      1.114302   -5.218436   11.018165
  C     -1.797046   -4.013629    6.412944
  O     -0.795036   -4.973618    6.750432
  H     -0.643296   -5.071644    7.705553
  H     -1.606571   -3.033322    6.892368
  H     -1.940865   -3.918832    5.324172
  H     -2.766463   -4.355614    6.819624

 Multiplicity           Mult            ....    1
 Number of Electrons    NEL             ....   18
 Basis Dimension        Dim             ....  172

ORBITAL ENERGIES
----------------

  NO   OCC          E(Eh)            E(eV)
   0   2.0000     -19.228485      -523.2337
   1   2.0000     -10.319234      -280.8006
   2   2.0000      -1.125369       -30.6229
   3   2.0000      -0.794994       -21.6329
   4   2.0000      -0.607578       -16.5330
   5   2.0000      -0.535195       -14.5634
   6   2.0000      -0.528708       -14.3869
   7   2.0000      -0.427545       -11.6341
   8   2.0000      -0.369923       -10.0661
   9   0.0000       0.069226         1.8837
  10   0.0000       0.127977         3.4824
  11   0.0000       0.149791         4.0760
  12   0.0000       0.167425         4.5559
  13   0.0000       0.192467         5.2373

MULLIKEN ATOMIC CHARGES
-----------------------
   0 C :   -0.002354
   1 O :   -0.003810
   2 H :   -0.000026
   3 H :    0.000067
   4 H :   -0.000136
   5 H :    0.000129
   6 C :   -0.150400
   7 O :   -0.489718
   8 H :    0.319061
   9 H :    0.102302
  10 H :    0.127846
  11 H :    0.097038
Sum of atomic charges:   -0.0000000

LOEWDIN ATOMIC CHARGES
----------------------
   0 C :   -0.003896
   1 O :   -0.018582
   2 H :   -0.000943
   3 H :   -0.000077
   4 H :   -0.000368
   5 H :   -0.000073
   6 C :   -0.374831
   7 O :   -0.087966
   8 H :    0.182435
   9 H :    0.097048
  10 H :    0.111633
  11 H :    0.095620

  Mayer bond orders larger than 0.1
B(  6-C ,  7-O ) :   0.9812 B(  6-C ,  9-H ) :   0.9742 B(  6-C , 10-H ) :   0.9689
B(  6-C , 11-H ) :   0.9821 B(  7-O ,  8-H ) :   0.8981

Dispersion correction           -0.000260761
FINAL SINGLE POINT ENERGY      -115.734086801909

DIPOLE MOMENT
-------------
                                X             Y             Z
Electronic contribution:      1.35231      -1.19235       0.20269
Nuclear contribution   :     -1.68079       1.52539       0.26350
                        -----------------------------------------
Total Dipole Moment    :     -0.32848       0.33305       0.46619
                        -----------------------------------------
Magnitude (a.u.)       :      0.66042
Magnitude (Debye)      :      1.67865

Rotational constants in cm-1:     4.291330     0.808641     0.777720
Rotational constants in MHz : 128650.844495 24242.454210 23315.449933

                             ****ORCA TERMINATED NORMALLY****
TOTAL RUN TIME: 0 days 0 hours 1 minutes 9 seconds 928 msec
