                         Program Version 4.1.2  - RELEASE  -
|  1> #Run DFT-D3 single point of the dimer
|  2> ! wB97X-D3 def2-TZVP TIGHTSCF CHELPG PMODEL PAL8
|  3>
|  4> %base "12-32_DFT_AB"
|  5>
|  6> %scf
|  7> MaxIter 1000
|  8> end
|  9>
| 10> * xyz 0 1
| 11>   C                      5.213601             -6.424230            1.445439
| 12>   O                      5.630218             -5.208946            2.075847
| 13>   H                      5.563530             -4.576802            1.354313
| 14>   H                      5.329758             -7.331916            2.140380
| 15>   H                      4.144093             -6.377885            1.182249
| 16>   H                      5.866397             -6.714165            0.524728
| 17>   C                      2.485700             -4.194704            5.209325
| 18>   O                      3.663128             -3.523521            5.620104
| 19>   H                      4.428387             -4.028100            5.328446
| 20>   H                      1.622021             -3.552528            4.937602
| 21>   H                      2.732808             -4.689680            4.272178
| 22>   H                      2.145667             -4.967365            5.780073
| 23> *
| 24>
| 25> #Run DFT-D3 single point of the molecule with dimer basis set
| 26> $new_job
| 27> %base "12-32_DFT_A"
| 28> ! wB97X-D3 def2-TZVP TIGHTSCF CHELPG PMODEL
| 29>
| 30> %scf
| 31> MaxIter 1000
| 32> end
| 33>
| 34> * xyz 0 1
| 35>   C                      5.213601             -6.424230            1.445439
| 36>   O                      5.630218             -5.208946            2.075847
| 37>   H                      5.563530             -4.576802            1.354313
| 38>   H                      5.329758             -7.331916            2.140380
| 39>   H                      4.144093             -6.377885            1.182249
| 40>   H                      5.866397             -6.714165            0.524728
| 41>   C                    : 2.485700             -4.194704            5.209325
| 42>   O                    : 3.663128             -3.523521            5.620104
| 43>   H                    : 4.428387             -4.028100            5.328446
| 44>   H                    : 1.622021             -3.552528            4.937602
| 45>   H                    : 2.732808             -4.689680            4.272178
| 46>   H                    : 2.145667             -4.967365            5.780073
| 47> *
| 48>
| 49> #Run DFT-D3 single point of the particle with dimer basis set
| 50> $new_job
| 51> %base "12-32_DFT_B"
| 52> ! wB97X-D3 def2-TZVP TIGHTSCF CHELPG PMODEL
| 53>
| 54> %scf
| 55> MaxIter 1000
| 56> end
| 57>
| 58> * xyz 0 1
| 59>   C                    : 5.213601             -6.424230            1.445439
| 60>   O                    : 5.630218             -5.208946            2.075847
| 61>   H                    : 5.563530             -4.576802            1.354313
| 62>   H                    : 5.329758             -7.331916            2.140380
| 63>   H                    : 4.144093             -6.377885            1.182249
| 64>   H                    : 5.866397             -6.714165            0.524728
| 65>   C                      2.485700             -4.194704            5.209325
| 66>   O                      3.663128             -3.523521            5.620104
| 67>   H                      4.428387             -4.028100            5.328446
| 68>   H                      1.622021             -3.552528            4.937602
| 69>   H                      2.732808             -4.689680            4.272178
| 70>   H                      2.145667             -4.967365            5.780073
| 71> *
| 72>
| 73>                          ****END OF INPUT****
 Total Charge           Charge          ....    0
 Multiplicity           Mult            ....    1
 Number of Electrons    NEL             ....   36
Dispersion correction           -0.001007275
FINAL SINGLE POINT ENERGY      -231.459027862594
Dispersion correction           -0.000260361
FINAL SINGLE POINT ENERGY      -115.730739009770

CARTESIAN COORDINATES (ANGSTROEM)
---------------------------------
  C      5.213601   -6.424230    1.445439
  O      5.630218   -5.208946    2.075847
  H      5.563530   -4.576802    1.354313
  H      5.329758   -7.331916    2.140380
  H      4.144093   -6.377885    1.182249
  H      5.866397   -6.714165    0.524728
  C      2.485700   -4.194704    5.209325
  O      3.663128   -3.523521    5.620104
  H      4.428387   -4.028100    5.328446
  H      1.622021   -3.552528    4.937602
  H      2.732808   -4.689680    4.272178
  H      2.145667   -4.967365    5.780073

 Multiplicity           Mult            ....    1
 Number of Electrons    NEL             ....   18
 Basis Dimension        Dim             ....  172

ORBITAL ENERGIES
----------------

  NO   OCC          E(Eh)            E(eV)
   0   2.0000     -19.230938      -523.3004
   1   2.0000     -10.306471      -280.4533
   2   2.0000      -1.134928       -30.8830
   3   2.0000      -0.803515       -21.8648
   4   2.0000      -0.615873       -16.7587
   5   2.0000      -0.544795       -14.8246
   6   2.0000      -0.530277       -14.4296
   7   2.0000      -0.426627       -11.6091
   8   2.0000      -0.376081       -10.2337
   9   0.0000       0.072347         1.9687
  10   0.0000       0.116825         3.1790
  11   0.0000       0.149317         4.0631
  12   0.0000       0.164857         4.4860
  13   0.0000       0.182902         4.9770

MULLIKEN ATOMIC CHARGES
-----------------------
   0 C :    0.000199
   1 O :   -0.000083
   2 H :   -0.000025
   3 H :   -0.000052
   4 H :   -0.000193
   5 H :   -0.000007
   6 C :   -0.170710
   7 O :   -0.478803
   8 H :    0.319940
   9 H :    0.118373
  10 H :    0.097576
  11 H :    0.113785
Sum of atomic charges:   -0.0000000

LOEWDIN ATOMIC CHARGES
----------------------
   0 C :   -0.000287
   1 O :   -0.000161
   2 H :   -0.000028
   3 H :   -0.000014
   4 H :   -0.000118
   5 H :   -0.000004
   6 C :   -0.378941
   7 O :   -0.079420
   8 H :    0.172008
   9 H :    0.112014
  10 H :    0.097623
  11 H :    0.077328

  Mayer bond orders larger than 0.1
B(  6-C ,  7-O ) :   1.0026 B(  6-C ,  9-H ) :   0.9732 B(  6-C , 10-H ) :   0.9974
B(  6-C , 11-H ) :   0.9669 B(  7-O ,  8-H ) :   0.8968

Dispersion correction           -0.000240664
FINAL SINGLE POINT ENERGY      -115.726093714039

DIPOLE MOMENT
-------------
                                X             Y             Z
Electronic contribution:      1.40671       1.00839       0.81517
Nuclear contribution   :     -1.38927      -1.62878      -1.19207
                        -----------------------------------------
Total Dipole Moment    :      0.01744      -0.62039      -0.37689
                        -----------------------------------------
Magnitude (a.u.)       :      0.72611
Magnitude (Debye)      :      1.84563

Rotational constants in cm-1:     4.607197     0.824320     0.791461
Rotational constants in MHz : 138120.303290 24712.480664 23727.411534

                             ****ORCA TERMINATED NORMALLY****
TOTAL RUN TIME: 0 days 0 hours 1 minutes 10 seconds 68 msec
