                         Program Version 4.1.2  - RELEASE  -
|  1> #Run DFT-D3 single point of the dimer
|  2> ! wB97X-D3 def2-TZVP TIGHTSCF CHELPG PMODEL PAL8
|  3>
|  4> %base "2-115_DFT_AB"
|  5>
|  6> %scf
|  7> MaxIter 1000
|  8> end
|  9>
| 10> * xyz 0 1
| 11>   C                      -9.194448            -7.165680            8.606012
| 12>   O                      -9.483807            -8.443194            7.922237
| 13>   H                      -8.780202            -9.018449            8.087057
| 14>   H                      -8.510834            -6.560886            7.980636
| 15>   H                      -10.076085           -6.566288            8.744051
| 16>   H                      -8.775180            -7.380842            9.649389
| 17>   C                      -11.519906           -8.576182            3.288546
| 18>   O                      -10.280663           -7.910189            3.193317
| 19>   H                      -10.455846           -7.073610            2.803393
| 20>   H                      -11.387200           -9.280236            4.162946
| 21>   H                      -12.403518           -7.945626            3.420810
| 22>   H                      -11.662015           -9.332106            2.526733
| 23> *
| 24>
| 25> #Run DFT-D3 single point of the molecule with dimer basis set
| 26> $new_job
| 27> %base "2-115_DFT_A"
| 28> ! wB97X-D3 def2-TZVP TIGHTSCF CHELPG PMODEL
| 29>
| 30> %scf
| 31> MaxIter 1000
| 32> end
| 33>
| 34> * xyz 0 1
| 35>   C                      -9.194448            -7.165680            8.606012
| 36>   O                      -9.483807            -8.443194            7.922237
| 37>   H                      -8.780202            -9.018449            8.087057
| 38>   H                      -8.510834            -6.560886            7.980636
| 39>   H                      -10.076085           -6.566288            8.744051
| 40>   H                      -8.775180            -7.380842            9.649389
| 41>   C                    : -11.519906           -8.576182            3.288546
| 42>   O                    : -10.280663           -7.910189            3.193317
| 43>   H                    : -10.455846           -7.073610            2.803393
| 44>   H                    : -11.387200           -9.280236            4.162946
| 45>   H                    : -12.403518           -7.945626            3.420810
| 46>   H                    : -11.662015           -9.332106            2.526733
| 47> *
| 48>
| 49> #Run DFT-D3 single point of the particle with dimer basis set
| 50> $new_job
| 51> %base "2-115_DFT_B"
| 52> ! wB97X-D3 def2-TZVP TIGHTSCF CHELPG PMODEL
| 53>
| 54> %scf
| 55> MaxIter 1000
| 56> end
| 57>
| 58> * xyz 0 1
| 59>   C                    : -9.194448            -7.165680            8.606012
| 60>   O                    : -9.483807            -8.443194            7.922237
| 61>   H                    : -8.780202            -9.018449            8.087057
| 62>   H                    : -8.510834            -6.560886            7.980636
| 63>   H                    : -10.076085           -6.566288            8.744051
| 64>   H                    : -8.775180            -7.380842            9.649389
| 65>   C                      -11.519906           -8.576182            3.288546
| 66>   O                      -10.280663           -7.910189            3.193317
| 67>   H                      -10.455846           -7.073610            2.803393
| 68>   H                      -11.387200           -9.280236            4.162946
| 69>   H                      -12.403518           -7.945626            3.420810
| 70>   H                      -11.662015           -9.332106            2.526733
| 71> *
| 72>
| 73>                          ****END OF INPUT****
 Total Charge           Charge          ....    0
 Multiplicity           Mult            ....    1
 Number of Electrons    NEL             ....   36
Dispersion correction           -0.000709317
FINAL SINGLE POINT ENERGY      -231.460890502252
Dispersion correction           -0.000270809
FINAL SINGLE POINT ENERGY      -115.730511771795

CARTESIAN COORDINATES (ANGSTROEM)
---------------------------------
  C     -9.194448   -7.165680    8.606012
  O     -9.483807   -8.443194    7.922237
  H     -8.780202   -9.018449    8.087057
  H     -8.510834   -6.560886    7.980636
  H    -10.076085   -6.566288    8.744051
  H     -8.775180   -7.380842    9.649389
  C    -11.519906   -8.576182    3.288546
  O    -10.280663   -7.910189    3.193317
  H    -10.455846   -7.073610    2.803393
  H    -11.387200   -9.280236    4.162946
  H    -12.403518   -7.945626    3.420810
  H    -11.662015   -9.332106    2.526733

 Multiplicity           Mult            ....    1
 Number of Electrons    NEL             ....   18
 Basis Dimension        Dim             ....  172

ORBITAL ENERGIES
----------------

  NO   OCC          E(Eh)            E(eV)
   0   2.0000     -19.230686      -523.2936
   1   2.0000     -10.314662      -280.6762
   2   2.0000      -1.143534       -31.1171
   3   2.0000      -0.796443       -21.6723
   4   2.0000      -0.616105       -16.7651
   5   2.0000      -0.544196       -14.8083
   6   2.0000      -0.518649       -14.1132
   7   2.0000      -0.440934       -11.9984
   8   2.0000      -0.370474       -10.0811
   9   0.0000       0.090722         2.4687
  10   0.0000       0.117497         3.1973
  11   0.0000       0.153134         4.1670
  12   0.0000       0.166639         4.5345
  13   0.0000       0.190103         5.1730

MULLIKEN ATOMIC CHARGES
-----------------------
   0 C :   -0.000074
   1 O :    0.000000
   2 H :   -0.000004
   3 H :    0.000002
   4 H :    0.000006
   5 H :   -0.000001
   6 C :   -0.174272
   7 O :   -0.460886
   8 H :    0.310322
   9 H :    0.110245
  10 H :    0.110639
  11 H :    0.104023
Sum of atomic charges:   -0.0000000

LOEWDIN ATOMIC CHARGES
----------------------
   0 C :   -0.000028
   1 O :   -0.000018
   2 H :   -0.000004
   3 H :   -0.000006
   4 H :   -0.000001
   5 H :   -0.000002
   6 C :   -0.397885
   7 O :   -0.062063
   8 H :    0.155631
   9 H :    0.114830
  10 H :    0.096569
  11 H :    0.092976

  Mayer bond orders larger than 0.1
B(  6-C ,  7-O ) :   1.0134 B(  6-C ,  9-H ) :   0.9825 B(  6-C , 10-H ) :   0.9731
B(  6-C , 11-H ) :   0.9726 B(  7-O ,  8-H ) :   0.9063

Dispersion correction           -0.000252917
FINAL SINGLE POINT ENERGY      -115.730684513140

DIPOLE MOMENT
-------------
                                X             Y             Z
Electronic contribution:      1.58262       0.96988      -0.19083
Nuclear contribution   :     -2.17269      -0.69124      -0.01923
                        -----------------------------------------
Total Dipole Moment    :     -0.59007       0.27865      -0.21006
                        -----------------------------------------
Magnitude (a.u.)       :      0.68553
Magnitude (Debye)      :      1.74248

Rotational constants in cm-1:     4.312944     0.840047     0.797890
Rotational constants in MHz : 129298.813064 25183.968069 23920.144786

                             ****ORCA TERMINATED NORMALLY****
TOTAL RUN TIME: 0 days 0 hours 5 minutes 58 seconds 55 msec
