                         Program Version 4.1.2  - RELEASE  -
|  1> #Run DFT-D3 single point of the dimer
|  2> ! wB97X-D3 def2-TZVP TIGHTSCF CHELPG PMODEL PAL8
|  3>
|  4> %base "22-143_DFT_AB"
|  5>
|  6> %scf
|  7> MaxIter 1000
|  8> end
|  9>
| 10> * xyz 0 1
| 11>   C                      6.493187             1.871851             -10.034547
| 12>   O                      6.377108             2.785616             -11.078557
| 13>   H                      5.880619             2.394599             -11.838950
| 14>   H                      5.716347             2.026950             -9.262070
| 15>   H                      6.441241             0.745366             -10.393195
| 16>   H                      7.463750             1.975361             -9.514436
| 17>   C                      2.337473             3.686751             -9.965855
| 18>   O                      3.482262             3.632745             -10.707156
| 19>   H                      3.953443             4.382835             -10.336825
| 20>   H                      1.706733             2.764936             -10.048201
| 21>   H                      2.579097             3.920902             -8.912619
| 22>   H                      1.756712             4.539307             -10.240447
| 23> *
| 24>
| 25> #Run DFT-D3 single point of the molecule with dimer basis set
| 26> $new_job
| 27> %base "22-143_DFT_A"
| 28> ! wB97X-D3 def2-TZVP TIGHTSCF CHELPG PMODEL
| 29>
| 30> %scf
| 31> MaxIter 1000
| 32> end
| 33>
| 34> * xyz 0 1
| 35>   C                      6.493187             1.871851             -10.034547
| 36>   O                      6.377108             2.785616             -11.078557
| 37>   H                      5.880619             2.394599             -11.838950
| 38>   H                      5.716347             2.026950             -9.262070
| 39>   H                      6.441241             0.745366             -10.393195
| 40>   H                      7.463750             1.975361             -9.514436
| 41>   C                    : 2.337473             3.686751             -9.965855
| 42>   O                    : 3.482262             3.632745             -10.707156
| 43>   H                    : 3.953443             4.382835             -10.336825
| 44>   H                    : 1.706733             2.764936             -10.048201
| 45>   H                    : 2.579097             3.920902             -8.912619
| 46>   H                    : 1.756712             4.539307             -10.240447
| 47> *
| 48>
| 49> #Run DFT-D3 single point of the particle with dimer basis set
| 50> $new_job
| 51> %base "22-143_DFT_B"
| 52> ! wB97X-D3 def2-TZVP TIGHTSCF CHELPG PMODEL
| 53>
| 54> %scf
| 55> MaxIter 1000
| 56> end
| 57>
| 58> * xyz 0 1
| 59>   C                    : 6.493187             1.871851             -10.034547
| 60>   O                    : 6.377108             2.785616             -11.078557
| 61>   H                    : 5.880619             2.394599             -11.838950
| 62>   H                    : 5.716347             2.026950             -9.262070
| 63>   H                    : 6.441241             0.745366             -10.393195
| 64>   H                    : 7.463750             1.975361             -9.514436
| 65>   C                      2.337473             3.686751             -9.965855
| 66>   O                      3.482262             3.632745             -10.707156
| 67>   H                      3.953443             4.382835             -10.336825
| 68>   H                      1.706733             2.764936             -10.048201
| 69>   H                      2.579097             3.920902             -8.912619
| 70>   H                      1.756712             4.539307             -10.240447
| 71> *
| 72>
| 73>                          ****END OF INPUT****
 Total Charge           Charge          ....    0
 Multiplicity           Mult            ....    1
 Number of Electrons    NEL             ....   36
Dispersion correction           -0.001698846
FINAL SINGLE POINT ENERGY      -231.462841086957
Dispersion correction           -0.000269699
FINAL SINGLE POINT ENERGY      -115.731202918234

CARTESIAN COORDINATES (ANGSTROEM)
---------------------------------
  C      6.493187    1.871851  -10.034547
  O      6.377108    2.785616  -11.078557
  H      5.880619    2.394599  -11.838950
  H      5.716347    2.026950   -9.262070
  H      6.441241    0.745366  -10.393195
  H      7.463750    1.975361   -9.514436
  C      2.337473    3.686751   -9.965855
  O      3.482262    3.632745  -10.707156
  H      3.953443    4.382835  -10.336825
  H      1.706733    2.764936  -10.048201
  H      2.579097    3.920902   -8.912619
  H      1.756712    4.539307  -10.240447

 Multiplicity           Mult            ....    1
 Number of Electrons    NEL             ....   18
 Basis Dimension        Dim             ....  172

ORBITAL ENERGIES
----------------

  NO   OCC          E(Eh)            E(eV)
   0   2.0000     -19.233168      -523.3611
   1   2.0000     -10.310979      -280.5760
   2   2.0000      -1.160406       -31.5763
   3   2.0000      -0.788688       -21.4613
   4   2.0000      -0.625707       -17.0264
   5   2.0000      -0.545149       -14.8343
   6   2.0000      -0.534740       -14.5510
   7   2.0000      -0.442055       -12.0289
   8   2.0000      -0.368244       -10.0204
   9   0.0000       0.090900         2.4735
  10   0.0000       0.121888         3.3168
  11   0.0000       0.156165         4.2495
  12   0.0000       0.183014         4.9801
  13   0.0000       0.198156         5.3921

MULLIKEN ATOMIC CHARGES
-----------------------
   0 C :   -0.001497
   1 O :    0.002223
   2 H :   -0.002190
   3 H :   -0.005026
   4 H :   -0.000158
   5 H :   -0.000212
   6 C :   -0.178259
   7 O :   -0.446317
   8 H :    0.318841
   9 H :    0.118607
  10 H :    0.093190
  11 H :    0.100799
Sum of atomic charges:    0.0000000

LOEWDIN ATOMIC CHARGES
----------------------
   0 C :   -0.006288
   1 O :   -0.004187
   2 H :   -0.003740
   3 H :   -0.003184
   4 H :   -0.000096
   5 H :   -0.000091
   6 C :   -0.431645
   7 O :   -0.027492
   8 H :    0.181937
   9 H :    0.113149
  10 H :    0.094379
  11 H :    0.087259

  Mayer bond orders larger than 0.1
B(  6-C ,  7-O ) :   0.9940 B(  6-C ,  9-H ) :   0.9723 B(  6-C , 10-H ) :   0.9876
B(  6-C , 11-H ) :   0.9751 B(  7-O ,  8-H ) :   0.8971

Dispersion correction           -0.000193300
FINAL SINGLE POINT ENERGY      -115.729067246387

DIPOLE MOMENT
-------------
                                X             Y             Z
Electronic contribution:      1.47767      -0.30382      -1.16308
Nuclear contribution   :     -1.60703       0.80650       1.65020
                        -----------------------------------------
Total Dipole Moment    :     -0.12936       0.50268       0.48712
                        -----------------------------------------
Magnitude (a.u.)       :      0.71183
Magnitude (Debye)      :      1.80934

Rotational constants in cm-1:     4.226710     0.898714     0.846256
Rotational constants in MHz : 126713.581864 26942.774763 25370.117908

                             ****ORCA TERMINATED NORMALLY****
TOTAL RUN TIME: 0 days 0 hours 1 minutes 2 seconds 77 msec
