                         Program Version 4.1.2  - RELEASE  -
|  1> #Run DFT-D3 single point of the dimer
|  2> ! wB97X-D3 def2-TZVP TIGHTSCF CHELPG PMODEL PAL8
|  3>
|  4> %base "9-202_DFT_AB"
|  5>
|  6> %scf
|  7> MaxIter 1000
|  8> end
|  9>
| 10> * xyz 0 1
| 11>   C                      -1.495863            -7.793966            2.578970
| 12>   O                      -0.483908            -8.710435            2.830056
| 13>   H                      -0.539122            -8.859072            3.780533
| 14>   H                      -1.316843            -6.805620            3.074040
| 15>   H                      -1.618548            -7.589966            1.567328
| 16>   H                      -2.421022            -8.112278            2.983919
| 17>   C                      0.880823             -6.445530            7.443893
| 18>   O                      0.042659             -6.869861            6.341468
| 19>   H                      -0.203526            -7.821873            6.550273
| 20>   H                      0.533883             -6.948551            8.298693
| 21>   H                      1.977644             -6.729520            7.383406
| 22>   H                      0.899318             -5.349994            7.625627
| 23> *
| 24>
| 25> #Run DFT-D3 single point of the molecule with dimer basis set
| 26> $new_job
| 27> %base "9-202_DFT_A"
| 28> ! wB97X-D3 def2-TZVP TIGHTSCF CHELPG PMODEL
| 29>
| 30> %scf
| 31> MaxIter 1000
| 32> end
| 33>
| 34> * xyz 0 1
| 35>   C                      -1.495863            -7.793966            2.578970
| 36>   O                      -0.483908            -8.710435            2.830056
| 37>   H                      -0.539122            -8.859072            3.780533
| 38>   H                      -1.316843            -6.805620            3.074040
| 39>   H                      -1.618548            -7.589966            1.567328
| 40>   H                      -2.421022            -8.112278            2.983919
| 41>   C                    : 0.880823             -6.445530            7.443893
| 42>   O                    : 0.042659             -6.869861            6.341468
| 43>   H                    : -0.203526            -7.821873            6.550273
| 44>   H                    : 0.533883             -6.948551            8.298693
| 45>   H                    : 1.977644             -6.729520            7.383406
| 46>   H                    : 0.899318             -5.349994            7.625627
| 47> *
| 48>
| 49> #Run DFT-D3 single point of the particle with dimer basis set
| 50> $new_job
| 51> %base "9-202_DFT_B"
| 52> ! wB97X-D3 def2-TZVP TIGHTSCF CHELPG PMODEL
| 53>
| 54> %scf
| 55> MaxIter 1000
| 56> end
| 57>
| 58> * xyz 0 1
| 59>   C                    : -1.495863            -7.793966            2.578970
| 60>   O                    : -0.483908            -8.710435            2.830056
| 61>   H                    : -0.539122            -8.859072            3.780533
| 62>   H                    : -1.316843            -6.805620            3.074040
| 63>   H                    : -1.618548            -7.589966            1.567328
| 64>   H                    : -2.421022            -8.112278            2.983919
| 65>   C                      0.880823             -6.445530            7.443893
| 66>   O                      0.042659             -6.869861            6.341468
| 67>   H                      -0.203526            -7.821873            6.550273
| 68>   H                      0.533883             -6.948551            8.298693
| 69>   H                      1.977644             -6.729520            7.383406
| 70>   H                      0.899318             -5.349994            7.625627
| 71> *
| 72>
| 73>                          ****END OF INPUT****
 Total Charge           Charge          ....    0
 Multiplicity           Mult            ....    1
 Number of Electrons    NEL             ....   36
Dispersion correction           -0.001119881
FINAL SINGLE POINT ENERGY      -231.460475471289
Dispersion correction           -0.000212172
FINAL SINGLE POINT ENERGY      -115.732264128247

CARTESIAN COORDINATES (ANGSTROEM)
---------------------------------
  C     -1.495863   -7.793966    2.578970
  O     -0.483908   -8.710435    2.830056
  H     -0.539122   -8.859072    3.780533
  H     -1.316843   -6.805620    3.074040
  H     -1.618548   -7.589966    1.567328
  H     -2.421022   -8.112278    2.983919
  C      0.880823   -6.445530    7.443893
  O      0.042659   -6.869861    6.341468
  H     -0.203526   -7.821873    6.550273
  H      0.533883   -6.948551    8.298693
  H      1.977644   -6.729520    7.383406
  H      0.899318   -5.349994    7.625627

 Multiplicity           Mult            ....    1
 Number of Electrons    NEL             ....   18
 Basis Dimension        Dim             ....  172

ORBITAL ENERGIES
----------------

  NO   OCC          E(Eh)            E(eV)
   0   2.0000     -19.237903      -523.4899
   1   2.0000     -10.317998      -280.7670
   2   2.0000      -1.121384       -30.5144
   3   2.0000      -0.793134       -21.5823
   4   2.0000      -0.603499       -16.4220
   5   2.0000      -0.535178       -14.5629
   6   2.0000      -0.521782       -14.1984
   7   2.0000      -0.438625       -11.9356
   8   2.0000      -0.373209       -10.1555
   9   0.0000       0.089162         2.4262
  10   0.0000       0.116510         3.1704
  11   0.0000       0.145799         3.9674
  12   0.0000       0.180081         4.9003
  13   0.0000       0.199164         5.4195

MULLIKEN ATOMIC CHARGES
-----------------------
   0 C :    0.001487
   1 O :    0.000037
   2 H :   -0.002596
   3 H :   -0.002307
   4 H :   -0.000062
   5 H :   -0.000067
   6 C :   -0.177569
   7 O :   -0.470372
   8 H :    0.319280
   9 H :    0.108649
  10 H :    0.098106
  11 H :    0.125414
Sum of atomic charges:    0.0000000

LOEWDIN ATOMIC CHARGES
----------------------
   0 C :   -0.000860
   1 O :   -0.000152
   2 H :   -0.001803
   3 H :   -0.001052
   4 H :   -0.000008
   5 H :   -0.000020
   6 C :   -0.371691
   7 O :   -0.117590
   8 H :    0.195602
   9 H :    0.086432
  10 H :    0.100766
  11 H :    0.110377

  Mayer bond orders larger than 0.1
B(  6-C ,  7-O ) :   1.0039 B(  6-C ,  9-H ) :   0.9882 B(  6-C , 10-H ) :   0.9658
B(  6-C , 11-H ) :   0.9722 B(  7-O ,  8-H ) :   0.8926

Dispersion correction           -0.000265436
FINAL SINGLE POINT ENERGY      -115.727803279686

DIPOLE MOMENT
-------------
                                X             Y             Z
Electronic contribution:     -1.13634      -0.32996      -1.51147
Nuclear contribution   :      1.30534      -0.08328       2.12510
                        -----------------------------------------
Total Dipole Moment    :      0.16899      -0.41325       0.61362
                        -----------------------------------------
Magnitude (a.u.)       :      0.75886
Magnitude (Debye)      :      1.92886

Rotational constants in cm-1:     4.283944     0.793331     0.759624
Rotational constants in MHz : 128429.406975 23783.477140 22772.947490

                             ****ORCA TERMINATED NORMALLY****
TOTAL RUN TIME: 0 days 0 hours 0 minutes 39 seconds 766 msec
