                         Program Version 4.1.2  - RELEASE  -
|  1> #Run DFT-D3 single point of the dimer
|  2> ! wB97X-D3 def2-TZVP TIGHTSCF CHELPG PMODEL PAL8
|  3>
|  4> %base "10-69_DFT_AB"
|  5>
|  6> %scf
|  7> MaxIter 1000
|  8> end
|  9>
| 10> * xyz 0 1
| 11>   C                      6.480167             4.850157             8.017725
| 12>   O                      6.846940             3.890680             7.044795
| 13>   H                      7.195709             4.304133             6.297054
| 14>   H                      7.306813             5.169564             8.669647
| 15>   H                      6.202793             5.826223             7.485602
| 16>   H                      5.554086             4.491351             8.572135
| 17>   C                      4.262847             0.709514             5.516234
| 18>   O                      3.249038             1.221760             4.607938
| 19>   H                      2.759917             0.525777             4.274813
| 20>   H                      5.064640             1.369477             5.723628
| 21>   H                      3.836143             0.461897             6.456810
| 22>   H                      4.748013             -0.205630            5.211231
| 23> *
| 24>
| 25> #Run DFT-D3 single point of the molecule with dimer basis set
| 26> $new_job
| 27> %base "10-69_DFT_A"
| 28> ! wB97X-D3 def2-TZVP TIGHTSCF CHELPG PMODEL
| 29>
| 30> %scf
| 31> MaxIter 1000
| 32> end
| 33>
| 34> * xyz 0 1
| 35>   C                      6.480167             4.850157             8.017725
| 36>   O                      6.846940             3.890680             7.044795
| 37>   H                      7.195709             4.304133             6.297054
| 38>   H                      7.306813             5.169564             8.669647
| 39>   H                      6.202793             5.826223             7.485602
| 40>   H                      5.554086             4.491351             8.572135
| 41>   C                    : 4.262847             0.709514             5.516234
| 42>   O                    : 3.249038             1.221760             4.607938
| 43>   H                    : 2.759917             0.525777             4.274813
| 44>   H                    : 5.064640             1.369477             5.723628
| 45>   H                    : 3.836143             0.461897             6.456810
| 46>   H                    : 4.748013             -0.205630            5.211231
| 47> *
| 48>
| 49> #Run DFT-D3 single point of the particle with dimer basis set
| 50> $new_job
| 51> %base "10-69_DFT_B"
| 52> ! wB97X-D3 def2-TZVP TIGHTSCF CHELPG PMODEL
| 53>
| 54> %scf
| 55> MaxIter 1000
| 56> end
| 57>
| 58> * xyz 0 1
| 59>   C                    : 6.480167             4.850157             8.017725
| 60>   O                    : 6.846940             3.890680             7.044795
| 61>   H                    : 7.195709             4.304133             6.297054
| 62>   H                    : 7.306813             5.169564             8.669647
| 63>   H                    : 6.202793             5.826223             7.485602
| 64>   H                    : 5.554086             4.491351             8.572135
| 65>   C                      4.262847             0.709514             5.516234
| 66>   O                      3.249038             1.221760             4.607938
| 67>   H                      2.759917             0.525777             4.274813
| 68>   H                      5.064640             1.369477             5.723628
| 69>   H                      3.836143             0.461897             6.456810
| 70>   H                      4.748013             -0.205630            5.211231
| 71> *
| 72>
| 73>                          ****END OF INPUT****
 Total Charge           Charge          ....    0
 Multiplicity           Mult            ....    1
 Number of Electrons    NEL             ....   36
Dispersion correction           -0.000904880
FINAL SINGLE POINT ENERGY      -231.460600058897
Dispersion correction           -0.000255562
FINAL SINGLE POINT ENERGY      -115.730659033308

CARTESIAN COORDINATES (ANGSTROEM)
---------------------------------
  C      6.480167    4.850157    8.017725
  O      6.846940    3.890680    7.044795
  H      7.195709    4.304133    6.297054
  H      7.306813    5.169564    8.669647
  H      6.202793    5.826223    7.485602
  H      5.554086    4.491351    8.572135
  C      4.262847    0.709514    5.516234
  O      3.249038    1.221760    4.607938
  H      2.759917    0.525777    4.274813
  H      5.064640    1.369477    5.723628
  H      3.836143    0.461897    6.456810
  H      4.748013   -0.205630    5.211231

 Multiplicity           Mult            ....    1
 Number of Electrons    NEL             ....   18
 Basis Dimension        Dim             ....  172

ORBITAL ENERGIES
----------------

  NO   OCC          E(Eh)            E(eV)
   0   2.0000     -19.226943      -523.1917
   1   2.0000     -10.308875      -280.5187
   2   2.0000      -1.133434       -30.8423
   3   2.0000      -0.811235       -22.0748
   4   2.0000      -0.613740       -16.7007
   5   2.0000      -0.538252       -14.6466
   6   2.0000      -0.527646       -14.3580
   7   2.0000      -0.438902       -11.9431
   8   2.0000      -0.377366       -10.2686
   9   0.0000       0.085214         2.3188
  10   0.0000       0.122292         3.3277
  11   0.0000       0.146253         3.9797
  12   0.0000       0.166266         4.5243
  13   0.0000       0.190778         5.1913

MULLIKEN ATOMIC CHARGES
-----------------------
   0 C :   -0.000004
   1 O :   -0.000002
   2 H :   -0.000025
   3 H :   -0.000001
   4 H :   -0.000004
   5 H :   -0.000012
   6 C :   -0.169221
   7 O :   -0.473967
   8 H :    0.305580
   9 H :    0.127504
  10 H :    0.106372
  11 H :    0.103779
Sum of atomic charges:   -0.0000000

LOEWDIN ATOMIC CHARGES
----------------------
   0 C :   -0.000072
   1 O :   -0.000351
   2 H :   -0.000100
   3 H :   -0.000001
   4 H :   -0.000001
   5 H :   -0.000011
   6 C :   -0.344730
   7 O :   -0.077209
   8 H :    0.134461
   9 H :    0.101768
  10 H :    0.091249
  11 H :    0.094998

  Mayer bond orders larger than 0.1
B(  6-C ,  7-O ) :   0.9964 B(  6-C ,  9-H ) :   0.9741 B(  6-C , 10-H ) :   0.9810
B(  6-C , 11-H ) :   0.9775 B(  7-O ,  8-H ) :   0.9114

Dispersion correction           -0.000262244
FINAL SINGLE POINT ENERGY      -115.728743823321

DIPOLE MOMENT
-------------
                                X             Y             Z
Electronic contribution:     -1.23746       0.83096      -1.18996
Nuclear contribution   :      1.36537      -1.51876       1.36862
                        -----------------------------------------
Total Dipole Moment    :      0.12791      -0.68780       0.17866
                        -----------------------------------------
Magnitude (a.u.)       :      0.72205
Magnitude (Debye)      :      1.83530

Rotational constants in cm-1:     4.748275     0.786666     0.761967
Rotational constants in MHz : 142349.694947 23583.651325 22843.205126

                             ****ORCA TERMINATED NORMALLY****
TOTAL RUN TIME: 0 days 0 hours 1 minutes 4 seconds 620 msec
