                         Program Version 4.1.2  - RELEASE  -
|  1> #Run DFT-D3 single point of the dimer
|  2> ! wB97X-D3 def2-TZVP TIGHTSCF CHELPG PMODEL PAL8
|  3>
|  4> %base "8-209_DFT_AB"
|  5>
|  6> %scf
|  7> MaxIter 1000
|  8> end
|  9>
| 10> * xyz 0 1
| 11>   C                      8.890115             0.877578             -5.366023
| 12>   O                      8.996819             -0.564101            -5.245748
| 13>   H                      8.126220             -0.854251            -4.959975
| 14>   H                      9.850066             1.343533             -5.610203
| 15>   H                      8.212699             1.095769             -6.173745
| 16>   H                      8.386879             1.277392             -4.475505
| 17>   C                      5.795858             -1.647453            -5.830630
| 18>   O                      5.869837             -0.775283            -4.738957
| 19>   H                      5.230466             -0.069144            -4.910069
| 20>   H                      4.796597             -1.832304            -6.234244
| 21>   H                      6.326652             -1.306599            -6.725164
| 22>   H                      6.160488             -2.577209            -5.471482
| 23> *
| 24>
| 25> #Run DFT-D3 single point of the molecule with dimer basis set
| 26> $new_job
| 27> %base "8-209_DFT_A"
| 28> ! wB97X-D3 def2-TZVP TIGHTSCF CHELPG PMODEL
| 29>
| 30> %scf
| 31> MaxIter 1000
| 32> end
| 33>
| 34> * xyz 0 1
| 35>   C                      8.890115             0.877578             -5.366023
| 36>   O                      8.996819             -0.564101            -5.245748
| 37>   H                      8.126220             -0.854251            -4.959975
| 38>   H                      9.850066             1.343533             -5.610203
| 39>   H                      8.212699             1.095769             -6.173745
| 40>   H                      8.386879             1.277392             -4.475505
| 41>   C                    : 5.795858             -1.647453            -5.830630
| 42>   O                    : 5.869837             -0.775283            -4.738957
| 43>   H                    : 5.230466             -0.069144            -4.910069
| 44>   H                    : 4.796597             -1.832304            -6.234244
| 45>   H                    : 6.326652             -1.306599            -6.725164
| 46>   H                    : 6.160488             -2.577209            -5.471482
| 47> *
| 48>
| 49> #Run DFT-D3 single point of the particle with dimer basis set
| 50> $new_job
| 51> %base "8-209_DFT_B"
| 52> ! wB97X-D3 def2-TZVP TIGHTSCF CHELPG PMODEL
| 53>
| 54> %scf
| 55> MaxIter 1000
| 56> end
| 57>
| 58> * xyz 0 1
| 59>   C                    : 8.890115             0.877578             -5.366023
| 60>   O                    : 8.996819             -0.564101            -5.245748
| 61>   H                    : 8.126220             -0.854251            -4.959975
| 62>   H                    : 9.850066             1.343533             -5.610203
| 63>   H                    : 8.212699             1.095769             -6.173745
| 64>   H                    : 8.386879             1.277392             -4.475505
| 65>   C                      5.795858             -1.647453            -5.830630
| 66>   O                      5.869837             -0.775283            -4.738957
| 67>   H                      5.230466             -0.069144            -4.910069
| 68>   H                      4.796597             -1.832304            -6.234244
| 69>   H                      6.326652             -1.306599            -6.725164
| 70>   H                      6.160488             -2.577209            -5.471482
| 71> *
| 72>
| 73>                          ****END OF INPUT****
 Total Charge           Charge          ....    0
 Multiplicity           Mult            ....    1
 Number of Electrons    NEL             ....   36
Dispersion correction           -0.002167975
FINAL SINGLE POINT ENERGY      -231.474557841465
Dispersion correction           -0.000229618
FINAL SINGLE POINT ENERGY      -115.733865491673

CARTESIAN COORDINATES (ANGSTROEM)
---------------------------------
  C      8.890115    0.877578   -5.366023
  O      8.996819   -0.564101   -5.245748
  H      8.126220   -0.854251   -4.959975
  H      9.850066    1.343533   -5.610203
  H      8.212699    1.095769   -6.173745
  H      8.386879    1.277392   -4.475505
  C      5.795858   -1.647453   -5.830630
  O      5.869837   -0.775283   -4.738957
  H      5.230466   -0.069144   -4.910069
  H      4.796597   -1.832304   -6.234244
  H      6.326652   -1.306599   -6.725164
  H      6.160488   -2.577209   -5.471482

 Multiplicity           Mult            ....    1
 Number of Electrons    NEL             ....   18
 Basis Dimension        Dim             ....  172

ORBITAL ENERGIES
----------------

  NO   OCC          E(Eh)            E(eV)
   0   2.0000     -19.234301      -523.3919
   1   2.0000     -10.307479      -280.4808
   2   2.0000      -1.141958       -31.0743
   3   2.0000      -0.797414       -21.6987
   4   2.0000      -0.619922       -16.8689
   5   2.0000      -0.541076       -14.7234
   6   2.0000      -0.523897       -14.2560
   7   2.0000      -0.441030       -12.0010
   8   2.0000      -0.373674       -10.1682
   9   0.0000       0.093112         2.5337
  10   0.0000       0.128859         3.5064
  11   0.0000       0.151457         4.1213
  12   0.0000       0.184536         5.0215
  13   0.0000       0.190699         5.1892

MULLIKEN ATOMIC CHARGES
-----------------------
   0 C :    0.002008
   1 O :   -0.001553
   2 H :    0.004049
   3 H :   -0.000362
   4 H :   -0.002580
   5 H :   -0.003319
   6 C :   -0.167033
   7 O :   -0.465083
   8 H :    0.313306
   9 H :    0.103384
  10 H :    0.098487
  11 H :    0.118697
Sum of atomic charges:    0.0000000

LOEWDIN ATOMIC CHARGES
----------------------
   0 C :   -0.006147
   1 O :   -0.001718
   2 H :   -0.016085
   3 H :   -0.000087
   4 H :   -0.000955
   5 H :   -0.001688
   6 C :   -0.395553
   7 O :   -0.046600
   8 H :    0.175452
   9 H :    0.095119
  10 H :    0.094853
  11 H :    0.103409

  Mayer bond orders larger than 0.1
B(  6-C ,  7-O ) :   1.0008 B(  6-C ,  9-H ) :   0.9723 B(  6-C , 10-H ) :   0.9709
B(  6-C , 11-H ) :   0.9832 B(  7-O ,  8-H ) :   0.8993

Dispersion correction           -0.000238888
FINAL SINGLE POINT ENERGY      -115.734457116268

DIPOLE MOMENT
-------------
                                X             Y             Z
Electronic contribution:      0.22561       1.06444       1.53707
Nuclear contribution   :     -0.68661      -0.96833      -2.05258
                        -----------------------------------------
Total Dipole Moment    :     -0.46100       0.09611      -0.51551
                        -----------------------------------------
Magnitude (a.u.)       :      0.69822
Magnitude (Debye)      :      1.77474

Rotational constants in cm-1:     4.396581     0.846861     0.812158
Rotational constants in MHz : 131806.194739 25388.256428 24347.890278

                             ****ORCA TERMINATED NORMALLY****
TOTAL RUN TIME: 0 days 0 hours 0 minutes 49 seconds 71 msec
