                         Program Version 4.1.2  - RELEASE  -
|  1> #Run DFT-D3 single point of the dimer
|  2> ! wB97X-D3 def2-TZVP TIGHTSCF CHELPG PMODEL PAL8
|  3>
|  4> %base "12-163_DFT_AB"
|  5>
|  6> %scf
|  7> MaxIter 1000
|  8> end
|  9>
| 10> * xyz 0 1
| 11>   C                      4.565372             -4.990735            -9.161081
| 12>   O                      4.726718             -3.609688            -8.731465
| 13>   H                      5.297105             -3.125183            -9.359927
| 14>   H                      3.792895             -5.027628            -9.950942
| 15>   H                      5.474635             -5.509436            -9.439797
| 16>   H                      4.043528             -5.647131            -8.427769
| 17>   C                      7.663454             -1.331187            -11.041002
| 18>   O                      6.348020             -2.025588            -10.746305
| 19>   H                      5.803920             -2.178202            -11.586460
| 20>   H                      8.542384             -1.844241            -10.580069
| 21>   H                      7.906069             -1.491009            -12.091768
| 22>   H                      7.700357             -0.293010            -10.720722
| 23> *
| 24>
| 25> #Run DFT-D3 single point of the molecule with dimer basis set
| 26> $new_job
| 27> %base "12-163_DFT_A"
| 28> ! wB97X-D3 def2-TZVP TIGHTSCF CHELPG PMODEL
| 29>
| 30> %scf
| 31> MaxIter 1000
| 32> end
| 33>
| 34> * xyz 0 1
| 35>   C                      4.565372             -4.990735            -9.161081
| 36>   O                      4.726718             -3.609688            -8.731465
| 37>   H                      5.297105             -3.125183            -9.359927
| 38>   H                      3.792895             -5.027628            -9.950942
| 39>   H                      5.474635             -5.509436            -9.439797
| 40>   H                      4.043528             -5.647131            -8.427769
| 41>   C                    : 7.663454             -1.331187            -11.041002
| 42>   O                    : 6.348020             -2.025588            -10.746305
| 43>   H                    : 5.803920             -2.178202            -11.586460
| 44>   H                    : 8.542384             -1.844241            -10.580069
| 45>   H                    : 7.906069             -1.491009            -12.091768
| 46>   H                    : 7.700357             -0.293010            -10.720722
| 47> *
| 48>
| 49> #Run DFT-D3 single point of the particle with dimer basis set
| 50> $new_job
| 51> %base "12-163_DFT_B"
| 52> ! wB97X-D3 def2-TZVP TIGHTSCF CHELPG PMODEL
| 53>
| 54> %scf
| 55> MaxIter 1000
| 56> end
| 57>
| 58> * xyz 0 1
| 59>   C                    : 4.565372             -4.990735            -9.161081
| 60>   O                    : 4.726718             -3.609688            -8.731465
| 61>   H                    : 5.297105             -3.125183            -9.359927
| 62>   H                    : 3.792895             -5.027628            -9.950942
| 63>   H                    : 5.474635             -5.509436            -9.439797
| 64>   H                    : 4.043528             -5.647131            -8.427769
| 65>   C                      7.663454             -1.331187            -11.041002
| 66>   O                      6.348020             -2.025588            -10.746305
| 67>   H                      5.803920             -2.178202            -11.586460
| 68>   H                      8.542384             -1.844241            -10.580069
| 69>   H                      7.906069             -1.491009            -12.091768
| 70>   H                      7.700357             -0.293010            -10.720722
| 71> *
| 72>
| 73>                          ****END OF INPUT****
 Total Charge           Charge          ....    0
 Multiplicity           Mult            ....    1
 Number of Electrons    NEL             ....   36
Dispersion correction           -0.001482072
FINAL SINGLE POINT ENERGY      -231.460174670472
Dispersion correction           -0.000284482
FINAL SINGLE POINT ENERGY      -115.729709080792

CARTESIAN COORDINATES (ANGSTROEM)
---------------------------------
  C      4.565372   -4.990735   -9.161081
  O      4.726718   -3.609688   -8.731465
  H      5.297105   -3.125183   -9.359927
  H      3.792895   -5.027628   -9.950942
  H      5.474635   -5.509436   -9.439797
  H      4.043528   -5.647131   -8.427769
  C      7.663454   -1.331187  -11.041002
  O      6.348020   -2.025588  -10.746305
  H      5.803920   -2.178202  -11.586460
  H      8.542384   -1.844241  -10.580069
  H      7.906069   -1.491009  -12.091768
  H      7.700357   -0.293010  -10.720722

 Multiplicity           Mult            ....    1
 Number of Electrons    NEL             ....   18
 Basis Dimension        Dim             ....  172

ORBITAL ENERGIES
----------------

  NO   OCC          E(Eh)            E(eV)
   0   2.0000     -19.234241      -523.3903
   1   2.0000     -10.324725      -280.9500
   2   2.0000      -1.096301       -29.8319
   3   2.0000      -0.798455       -21.7271
   4   2.0000      -0.587124       -15.9765
   5   2.0000      -0.539184       -14.6719
   6   2.0000      -0.513151       -13.9635
   7   2.0000      -0.425135       -11.5685
   8   2.0000      -0.377406       -10.2697
   9   0.0000       0.092375         2.5136
  10   0.0000       0.119196         3.2435
  11   0.0000       0.139872         3.8061
  12   0.0000       0.185762         5.0549
  13   0.0000       0.203272         5.5313

MULLIKEN ATOMIC CHARGES
-----------------------
   0 C :   -0.001280
   1 O :   -0.000106
   2 H :   -0.007872
   3 H :   -0.000010
   4 H :   -0.000667
   5 H :   -0.000180
   6 C :   -0.173606
   7 O :   -0.496877
   8 H :    0.320954
   9 H :    0.119002
  10 H :    0.114072
  11 H :    0.126569
Sum of atomic charges:   -0.0000000

LOEWDIN ATOMIC CHARGES
----------------------
   0 C :   -0.001960
   1 O :   -0.003074
   2 H :   -0.033928
   3 H :   -0.000048
   4 H :   -0.000323
   5 H :   -0.000042
   6 C :   -0.322620
   7 O :   -0.139893
   8 H :    0.191925
   9 H :    0.110008
  10 H :    0.100085
  11 H :    0.099871

  Mayer bond orders larger than 0.1
B(  6-C ,  7-O ) :   0.9971 B(  6-C ,  9-H ) :   0.9725 B(  6-C , 10-H ) :   0.9774
B(  6-C , 11-H ) :   0.9686 B(  7-O ,  8-H ) :   0.8893

Dispersion correction           -0.000308434
FINAL SINGLE POINT ENERGY      -115.722521250356

DIPOLE MOMENT
-------------
                                X             Y             Z
Electronic contribution:     -1.59287      -0.69136       0.52921
Nuclear contribution   :      1.88044       0.90117      -1.21804
                        -----------------------------------------
Total Dipole Moment    :      0.28757       0.20981      -0.68883
                        -----------------------------------------
Magnitude (a.u.)       :      0.77537
Magnitude (Debye)      :      1.97084

Rotational constants in cm-1:     4.294799     0.725957     0.706234
Rotational constants in MHz : 128754.822845 21763.629233 21172.368511

                             ****ORCA TERMINATED NORMALLY****
TOTAL RUN TIME: 0 days 0 hours 1 minutes 9 seconds 368 msec
