                         Program Version 4.1.2  - RELEASE  -
|  1> #Run DFT-D3 single point of the dimer
|  2> ! wB97X-D3 def2-TZVP TIGHTSCF CHELPG PMODEL PAL8
|  3>
|  4> %base "1-143_DFT_AB"
|  5>
|  6> %scf
|  7> MaxIter 1000
|  8> end
|  9>
| 10> * xyz 0 1
| 11>   C                      -8.995400            -9.326998            -3.486232
| 12>   O                      -9.117094            -9.794694            -4.824261
| 13>   H                      -8.440360            -9.306386            -5.286878
| 14>   H                      -7.978663            -9.612132            -3.120251
| 15>   H                      -9.192578            -8.287122            -3.341206
| 16>   H                      -9.619070            -9.861640            -2.775363
| 17>   C                      -7.665506            -6.396937            -7.930349
| 18>   O                      -8.961169            -5.979547            -7.596647
| 19>   H                      -9.583311            -6.603687            -7.974383
| 20>   H                      -7.340900            -6.289345            -8.998492
| 21>   H                      -6.951267            -5.729065            -7.459180
| 22>   H                      -7.461937            -7.477222            -7.675546
| 23> *
| 24>
| 25> #Run DFT-D3 single point of the molecule with dimer basis set
| 26> $new_job
| 27> %base "1-143_DFT_A"
| 28> ! wB97X-D3 def2-TZVP TIGHTSCF CHELPG PMODEL
| 29>
| 30> %scf
| 31> MaxIter 1000
| 32> end
| 33>
| 34> * xyz 0 1
| 35>   C                      -8.995400            -9.326998            -3.486232
| 36>   O                      -9.117094            -9.794694            -4.824261
| 37>   H                      -8.440360            -9.306386            -5.286878
| 38>   H                      -7.978663            -9.612132            -3.120251
| 39>   H                      -9.192578            -8.287122            -3.341206
| 40>   H                      -9.619070            -9.861640            -2.775363
| 41>   C                    : -7.665506            -6.396937            -7.930349
| 42>   O                    : -8.961169            -5.979547            -7.596647
| 43>   H                    : -9.583311            -6.603687            -7.974383
| 44>   H                    : -7.340900            -6.289345            -8.998492
| 45>   H                    : -6.951267            -5.729065            -7.459180
| 46>   H                    : -7.461937            -7.477222            -7.675546
| 47> *
| 48>
| 49> #Run DFT-D3 single point of the particle with dimer basis set
| 50> $new_job
| 51> %base "1-143_DFT_B"
| 52> ! wB97X-D3 def2-TZVP TIGHTSCF CHELPG PMODEL
| 53>
| 54> %scf
| 55> MaxIter 1000
| 56> end
| 57>
| 58> * xyz 0 1
| 59>   C                    : -8.995400            -9.326998            -3.486232
| 60>   O                    : -9.117094            -9.794694            -4.824261
| 61>   H                    : -8.440360            -9.306386            -5.286878
| 62>   H                    : -7.978663            -9.612132            -3.120251
| 63>   H                    : -9.192578            -8.287122            -3.341206
| 64>   H                    : -9.619070            -9.861640            -2.775363
| 65>   C                      -7.665506            -6.396937            -7.930349
| 66>   O                      -8.961169            -5.979547            -7.596647
| 67>   H                      -9.583311            -6.603687            -7.974383
| 68>   H                      -7.340900            -6.289345            -8.998492
| 69>   H                      -6.951267            -5.729065            -7.459180
| 70>   H                      -7.461937            -7.477222            -7.675546
| 71> *
| 72>
| 73>                          ****END OF INPUT****
 Total Charge           Charge          ....    0
 Multiplicity           Mult            ....    1
 Number of Electrons    NEL             ....   36
Dispersion correction           -0.000913811
FINAL SINGLE POINT ENERGY      -231.467213017096
Dispersion correction           -0.000234310
FINAL SINGLE POINT ENERGY      -115.732685589677

CARTESIAN COORDINATES (ANGSTROEM)
---------------------------------
  C     -8.995400   -9.326998   -3.486232
  O     -9.117094   -9.794694   -4.824261
  H     -8.440360   -9.306386   -5.286878
  H     -7.978663   -9.612132   -3.120251
  H     -9.192578   -8.287122   -3.341206
  H     -9.619070   -9.861640   -2.775363
  C     -7.665506   -6.396937   -7.930349
  O     -8.961169   -5.979547   -7.596647
  H     -9.583311   -6.603687   -7.974383
  H     -7.340900   -6.289345   -8.998492
  H     -6.951267   -5.729065   -7.459180
  H     -7.461937   -7.477222   -7.675546

 Multiplicity           Mult            ....    1
 Number of Electrons    NEL             ....   18
 Basis Dimension        Dim             ....  172

ORBITAL ENERGIES
----------------

  NO   OCC          E(Eh)            E(eV)
   0   2.0000     -19.235466      -523.4236
   1   2.0000     -10.317566      -280.7552
   2   2.0000      -1.142860       -31.0988
   3   2.0000      -0.794109       -21.6088
   4   2.0000      -0.616214       -16.7680
   5   2.0000      -0.541061       -14.7230
   6   2.0000      -0.521585       -14.1930
   7   2.0000      -0.436075       -11.8662
   8   2.0000      -0.373260       -10.1569
   9   0.0000       0.085517         2.3270
  10   0.0000       0.116526         3.1708
  11   0.0000       0.149130         4.0580
  12   0.0000       0.168810         4.5935
  13   0.0000       0.200516         5.4563

MULLIKEN ATOMIC CHARGES
-----------------------
   0 C :    0.000007
   1 O :   -0.000060
   2 H :    0.000473
   3 H :    0.000000
   4 H :   -0.000144
   5 H :   -0.000004
   6 C :   -0.167131
   7 O :   -0.462418
   8 H :    0.316145
   9 H :    0.095770
  10 H :    0.119629
  11 H :    0.097733
Sum of atomic charges:    0.0000000

LOEWDIN ATOMIC CHARGES
----------------------
   0 C :   -0.000037
   1 O :   -0.000021
   2 H :   -0.000411
   3 H :   -0.000001
   4 H :   -0.000045
   5 H :   -0.000001
   6 C :   -0.409674
   7 O :   -0.061331
   8 H :    0.170145
   9 H :    0.095710
  10 H :    0.106960
  11 H :    0.098704

  Mayer bond orders larger than 0.1
B(  6-C ,  7-O ) :   1.0145 B(  6-C ,  9-H ) :   0.9678 B(  6-C , 10-H ) :   0.9760
B(  6-C , 11-H ) :   0.9741 B(  7-O ,  8-H ) :   0.8983

Dispersion correction           -0.000263736
FINAL SINGLE POINT ENERGY      -115.733698985964

DIPOLE MOMENT
-------------
                                X             Y             Z
Electronic contribution:     -1.76593       0.66592       0.57786
Nuclear contribution   :      1.86460      -1.19832      -0.93937
                        -----------------------------------------
Total Dipole Moment    :      0.09867      -0.53240      -0.36150
                        -----------------------------------------
Magnitude (a.u.)       :      0.65105
Magnitude (Debye)      :      1.65484

Rotational constants in cm-1:     4.317184     0.831108     0.797510
Rotational constants in MHz : 129425.929254 24915.992696 23908.758692

                             ****ORCA TERMINATED NORMALLY****
TOTAL RUN TIME: 0 days 0 hours 6 minutes 2 seconds 48 msec
