                         Program Version 4.1.2  - RELEASE  -
|  1> #Run DFT-D3 single point of the dimer
|  2> ! wB97X-D3 def2-TZVP TIGHTSCF CHELPG PMODEL PAL8
|  3>
|  4> %base "5-73_DFT_AB"
|  5>
|  6> %scf
|  7> MaxIter 1000
|  8> end
|  9>
| 10> * xyz 0 1
| 11>   C                      0.496941             1.392049             5.026981
| 12>   O                      -0.494197            0.337308             5.082726
| 13>   H                      -0.689183            0.394878             4.127763
| 14>   H                      1.282604             1.248695             5.776744
| 15>   H                      1.032644             1.416140             4.066925
| 16>   H                      -0.013328            2.353019             5.225455
| 17>   C                      -1.740965            2.104542             1.445675
| 18>   O                      -1.863457            2.703071             2.726920
| 19>   H                      -2.587182            3.316749             2.689241
| 20>   H                      -2.724843            1.937653             0.989999
| 21>   H                      -1.282786            2.862374             0.775907
| 22>   H                      -1.200960            1.167186             1.446292
| 23> *
| 24>
| 25> #Run DFT-D3 single point of the molecule with dimer basis set
| 26> $new_job
| 27> %base "5-73_DFT_A"
| 28> ! wB97X-D3 def2-TZVP TIGHTSCF CHELPG PMODEL
| 29>
| 30> %scf
| 31> MaxIter 1000
| 32> end
| 33>
| 34> * xyz 0 1
| 35>   C                      0.496941             1.392049             5.026981
| 36>   O                      -0.494197            0.337308             5.082726
| 37>   H                      -0.689183            0.394878             4.127763
| 38>   H                      1.282604             1.248695             5.776744
| 39>   H                      1.032644             1.416140             4.066925
| 40>   H                      -0.013328            2.353019             5.225455
| 41>   C                    : -1.740965            2.104542             1.445675
| 42>   O                    : -1.863457            2.703071             2.726920
| 43>   H                    : -2.587182            3.316749             2.689241
| 44>   H                    : -2.724843            1.937653             0.989999
| 45>   H                    : -1.282786            2.862374             0.775907
| 46>   H                    : -1.200960            1.167186             1.446292
| 47> *
| 48>
| 49> #Run DFT-D3 single point of the particle with dimer basis set
| 50> $new_job
| 51> %base "5-73_DFT_B"
| 52> ! wB97X-D3 def2-TZVP TIGHTSCF CHELPG PMODEL
| 53>
| 54> %scf
| 55> MaxIter 1000
| 56> end
| 57>
| 58> * xyz 0 1
| 59>   C                    : 0.496941             1.392049             5.026981
| 60>   O                    : -0.494197            0.337308             5.082726
| 61>   H                    : -0.689183            0.394878             4.127763
| 62>   H                    : 1.282604             1.248695             5.776744
| 63>   H                    : 1.032644             1.416140             4.066925
| 64>   H                    : -0.013328            2.353019             5.225455
| 65>   C                      -1.740965            2.104542             1.445675
| 66>   O                      -1.863457            2.703071             2.726920
| 67>   H                      -2.587182            3.316749             2.689241
| 68>   H                      -2.724843            1.937653             0.989999
| 69>   H                      -1.282786            2.862374             0.775907
| 70>   H                      -1.200960            1.167186             1.446292
| 71> *
| 72>
| 73>                          ****END OF INPUT****
 Total Charge           Charge          ....    0
 Multiplicity           Mult            ....    1
 Number of Electrons    NEL             ....   36
Dispersion correction           -0.001761318
FINAL SINGLE POINT ENERGY      -231.465478703393
Dispersion correction           -0.000226452
FINAL SINGLE POINT ENERGY      -115.728937238107

CARTESIAN COORDINATES (ANGSTROEM)
---------------------------------
  C      0.496941    1.392049    5.026981
  O     -0.494197    0.337308    5.082726
  H     -0.689183    0.394878    4.127763
  H      1.282604    1.248695    5.776744
  H      1.032644    1.416140    4.066925
  H     -0.013328    2.353019    5.225455
  C     -1.740965    2.104542    1.445675
  O     -1.863457    2.703071    2.726920
  H     -2.587182    3.316749    2.689241
  H     -2.724843    1.937653    0.989999
  H     -1.282786    2.862374    0.775907
  H     -1.200960    1.167186    1.446292

 Multiplicity           Mult            ....    1
 Number of Electrons    NEL             ....   18
 Basis Dimension        Dim             ....  172

ORBITAL ENERGIES
----------------

  NO   OCC          E(Eh)            E(eV)
   0   2.0000     -19.228441      -523.2325
   1   2.0000     -10.315064      -280.6872
   2   2.0000      -1.136908       -30.9368
   3   2.0000      -0.795814       -21.6552
   4   2.0000      -0.612422       -16.6648
   5   2.0000      -0.542459       -14.7610
   6   2.0000      -0.526836       -14.3359
   7   2.0000      -0.437094       -11.8939
   8   2.0000      -0.370063       -10.0699
   9   0.0000       0.098101         2.6695
  10   0.0000       0.124403         3.3852
  11   0.0000       0.152859         4.1595
  12   0.0000       0.179338         4.8800
  13   0.0000       0.198698         5.4069

MULLIKEN ATOMIC CHARGES
-----------------------
   0 C :    0.003758
   1 O :   -0.000264
   2 H :   -0.002262
   3 H :   -0.000200
   4 H :   -0.000889
   5 H :   -0.004321
   6 C :   -0.173835
   7 O :   -0.467855
   8 H :    0.311172
   9 H :    0.102081
  10 H :    0.104933
  11 H :    0.127682
Sum of atomic charges:   -0.0000000

LOEWDIN ATOMIC CHARGES
----------------------
   0 C :   -0.005020
   1 O :   -0.000487
   2 H :   -0.002648
   3 H :   -0.000045
   4 H :   -0.000426
   5 H :   -0.002687
   6 C :   -0.379674
   7 O :   -0.070773
   8 H :    0.162087
   9 H :    0.095325
  10 H :    0.099031
  11 H :    0.105316

  Mayer bond orders larger than 0.1
B(  6-C ,  7-O ) :   0.9900 B(  6-C ,  9-H ) :   0.9781 B(  6-C , 10-H ) :   0.9799
B(  6-C , 11-H ) :   0.9698 B(  7-O ,  8-H ) :   0.9012

Dispersion correction           -0.000230545
FINAL SINGLE POINT ENERGY      -115.734011493577

DIPOLE MOMENT
-------------
                                X             Y             Z
Electronic contribution:      0.01822       0.55061       1.74865
Nuclear contribution   :     -0.45327      -0.40742      -2.29395
                        -----------------------------------------
Total Dipole Moment    :     -0.43505       0.14319      -0.54531
                        -----------------------------------------
Magnitude (a.u.)       :      0.71213
Magnitude (Debye)      :      1.81009

Rotational constants in cm-1:     4.292090     0.829244     0.796279
Rotational constants in MHz : 128673.625760 24860.115311 23871.855214

                             ****ORCA TERMINATED NORMALLY****
TOTAL RUN TIME: 0 days 0 hours 1 minutes 5 seconds 641 msec
