                         Program Version 4.1.2  - RELEASE  -
|  1> #Run DFT-D3 single point of the dimer
|  2> ! wB97X-D3 def2-TZVP TIGHTSCF CHELPG PMODEL PAL8
|  3>
|  4> %base "1-183_DFT_AB"
|  5>
|  6> %scf
|  7> MaxIter 1000
|  8> end
|  9>
| 10> * xyz 0 1
| 11>   C                      -5.418018            -0.007236            -10.923150
| 12>   O                      -5.591947            0.277668             -9.601627
| 13>   H                      -6.368987            -0.173418            -9.187840
| 14>   H                      -5.751665            -0.998123            -11.135027
| 15>   H                      -6.004835            0.665018             -11.547061
| 16>   H                      -4.359219            -0.088258            -11.079899
| 17>   C                      -7.649662            3.831381             -11.862524
| 18>   O                      -6.808156            4.356718             -10.908898
| 19>   H                      -6.539380            3.713442             -10.256033
| 20>   H                      -8.543952            3.343475             -11.337118
| 21>   H                      -8.006381            4.584077             -12.619132
| 22>   H                      -7.217232            2.943753             -12.322363
| 23> *
| 24>
| 25> #Run DFT-D3 single point of the molecule with dimer basis set
| 26> $new_job
| 27> %base "1-183_DFT_A"
| 28> ! wB97X-D3 def2-TZVP TIGHTSCF CHELPG PMODEL
| 29>
| 30> %scf
| 31> MaxIter 1000
| 32> end
| 33>
| 34> * xyz 0 1
| 35>   C                      -5.418018            -0.007236            -10.923150
| 36>   O                      -5.591947            0.277668             -9.601627
| 37>   H                      -6.368987            -0.173418            -9.187840
| 38>   H                      -5.751665            -0.998123            -11.135027
| 39>   H                      -6.004835            0.665018             -11.547061
| 40>   H                      -4.359219            -0.088258            -11.079899
| 41>   C                    : -7.649662            3.831381             -11.862524
| 42>   O                    : -6.808156            4.356718             -10.908898
| 43>   H                    : -6.539380            3.713442             -10.256033
| 44>   H                    : -8.543952            3.343475             -11.337118
| 45>   H                    : -8.006381            4.584077             -12.619132
| 46>   H                    : -7.217232            2.943753             -12.322363
| 47> *
| 48>
| 49> #Run DFT-D3 single point of the particle with dimer basis set
| 50> $new_job
| 51> %base "1-183_DFT_B"
| 52> ! wB97X-D3 def2-TZVP TIGHTSCF CHELPG PMODEL
| 53>
| 54> %scf
| 55> MaxIter 1000
| 56> end
| 57>
| 58> * xyz 0 1
| 59>   C                    : -5.418018            -0.007236            -10.923150
| 60>   O                    : -5.591947            0.277668             -9.601627
| 61>   H                    : -6.368987            -0.173418            -9.187840
| 62>   H                    : -5.751665            -0.998123            -11.135027
| 63>   H                    : -6.004835            0.665018             -11.547061
| 64>   H                    : -4.359219            -0.088258            -11.079899
| 65>   C                      -7.649662            3.831381             -11.862524
| 66>   O                      -6.808156            4.356718             -10.908898
| 67>   H                      -6.539380            3.713442             -10.256033
| 68>   H                      -8.543952            3.343475             -11.337118
| 69>   H                      -8.006381            4.584077             -12.619132
| 70>   H                      -7.217232            2.943753             -12.322363
| 71> *
| 72>
| 73>                          ****END OF INPUT****
 Total Charge           Charge          ....    0
 Multiplicity           Mult            ....    1
 Number of Electrons    NEL             ....   36
Dispersion correction           -0.001273722
FINAL SINGLE POINT ENERGY      -231.460702119115
Dispersion correction           -0.000221978
FINAL SINGLE POINT ENERGY      -115.728877315917

CARTESIAN COORDINATES (ANGSTROEM)
---------------------------------
  C     -5.418018   -0.007236  -10.923150
  O     -5.591947    0.277668   -9.601627
  H     -6.368987   -0.173418   -9.187840
  H     -5.751665   -0.998123  -11.135027
  H     -6.004835    0.665018  -11.547061
  H     -4.359219   -0.088258  -11.079899
  C     -7.649662    3.831381  -11.862524
  O     -6.808156    4.356718  -10.908898
  H     -6.539380    3.713442  -10.256033
  H     -8.543952    3.343475  -11.337118
  H     -8.006381    4.584077  -12.619132
  H     -7.217232    2.943753  -12.322363

 Multiplicity           Mult            ....    1
 Number of Electrons    NEL             ....   18
 Basis Dimension        Dim             ....  172

ORBITAL ENERGIES
----------------

  NO   OCC          E(Eh)            E(eV)
   0   2.0000     -19.228104      -523.2233
   1   2.0000     -10.319265      -280.8015
   2   2.0000      -1.147052       -31.2129
   3   2.0000      -0.791335       -21.5333
   4   2.0000      -0.622772       -16.9465
   5   2.0000      -0.538080       -14.6419
   6   2.0000      -0.531233       -14.4556
   7   2.0000      -0.429655       -11.6915
   8   2.0000      -0.363538        -9.8924
   9   0.0000       0.072891         1.9835
  10   0.0000       0.123030         3.3478
  11   0.0000       0.147399         4.0109
  12   0.0000       0.162832         4.4309
  13   0.0000       0.189261         5.1501

MULLIKEN ATOMIC CHARGES
-----------------------
   0 C :   -0.001116
   1 O :    0.000028
   2 H :   -0.000003
   3 H :    0.000099
   4 H :    0.001578
   5 H :    0.000008
   6 C :   -0.157012
   7 O :   -0.471262
   8 H :    0.318391
   9 H :    0.085424
  10 H :    0.128401
  11 H :    0.095463
Sum of atomic charges:    0.0000000

LOEWDIN ATOMIC CHARGES
----------------------
   0 C :   -0.000730
   1 O :   -0.000114
   2 H :   -0.000020
   3 H :   -0.000014
   4 H :   -0.001688
   5 H :   -0.000002
   6 C :   -0.420508
   7 O :   -0.049982
   8 H :    0.168492
   9 H :    0.098376
  10 H :    0.116508
  11 H :    0.089681

  Mayer bond orders larger than 0.1
B(  6-C ,  7-O ) :   0.9973 B(  6-C ,  9-H ) :   0.9836 B(  6-C , 10-H ) :   0.9668
B(  6-C , 11-H ) :   0.9743 B(  7-O ,  8-H ) :   0.8935

Dispersion correction           -0.000232299
FINAL SINGLE POINT ENERGY      -115.729875679096

DIPOLE MOMENT
-------------
                                X             Y             Z
Electronic contribution:      1.20572       0.96711       1.09251
Nuclear contribution   :     -1.33147      -1.58766      -1.02947
                        -----------------------------------------
Total Dipole Moment    :     -0.12575      -0.62055       0.06304
                        -----------------------------------------
Magnitude (a.u.)       :      0.63629
Magnitude (Debye)      :      1.61732

Rotational constants in cm-1:     4.216544     0.864387     0.819001
Rotational constants in MHz : 126408.810889 25913.657060 24553.023335

                             ****ORCA TERMINATED NORMALLY****
TOTAL RUN TIME: 0 days 0 hours 5 minutes 56 seconds 735 msec
