                         Program Version 4.1.2  - RELEASE  -
|  1> #Run DFT-D3 single point of the dimer
|  2> ! wB97X-D3 def2-TZVP TIGHTSCF CHELPG PMODEL PAL8
|  3>
|  4> %base "13-76_DFT_AB"
|  5>
|  6> %scf
|  7> MaxIter 1000
|  8> end
|  9>
| 10> * xyz 0 1
| 11>   C                      9.028161             -7.584521            4.100614
| 12>   O                      8.192791             -6.828802            5.014434
| 13>   H                      7.594326             -6.269406            4.519792
| 14>   H                      8.513725             -7.939866            3.227101
| 15>   H                      9.834166             -6.927564            3.751375
| 16>   H                      9.510038             -8.408056            4.560258
| 17>   C                      9.815075             -3.424375            4.878584
| 18>   O                      10.820362            -2.705251            5.617242
| 19>   H                      11.187680            -3.311640            6.224069
| 20>   H                      10.173444            -4.331962            4.363986
| 21>   H                      8.986311             -3.762645            5.565948
| 22>   H                      9.261578             -2.853196            4.128685
| 23> *
| 24>
| 25> #Run DFT-D3 single point of the molecule with dimer basis set
| 26> $new_job
| 27> %base "13-76_DFT_A"
| 28> ! wB97X-D3 def2-TZVP TIGHTSCF CHELPG PMODEL
| 29>
| 30> %scf
| 31> MaxIter 1000
| 32> end
| 33>
| 34> * xyz 0 1
| 35>   C                      9.028161             -7.584521            4.100614
| 36>   O                      8.192791             -6.828802            5.014434
| 37>   H                      7.594326             -6.269406            4.519792
| 38>   H                      8.513725             -7.939866            3.227101
| 39>   H                      9.834166             -6.927564            3.751375
| 40>   H                      9.510038             -8.408056            4.560258
| 41>   C                    : 9.815075             -3.424375            4.878584
| 42>   O                    : 10.820362            -2.705251            5.617242
| 43>   H                    : 11.187680            -3.311640            6.224069
| 44>   H                    : 10.173444            -4.331962            4.363986
| 45>   H                    : 8.986311             -3.762645            5.565948
| 46>   H                    : 9.261578             -2.853196            4.128685
| 47> *
| 48>
| 49> #Run DFT-D3 single point of the particle with dimer basis set
| 50> $new_job
| 51> %base "13-76_DFT_B"
| 52> ! wB97X-D3 def2-TZVP TIGHTSCF CHELPG PMODEL
| 53>
| 54> %scf
| 55> MaxIter 1000
| 56> end
| 57>
| 58> * xyz 0 1
| 59>   C                    : 9.028161             -7.584521            4.100614
| 60>   O                    : 8.192791             -6.828802            5.014434
| 61>   H                    : 7.594326             -6.269406            4.519792
| 62>   H                    : 8.513725             -7.939866            3.227101
| 63>   H                    : 9.834166             -6.927564            3.751375
| 64>   H                    : 9.510038             -8.408056            4.560258
| 65>   C                      9.815075             -3.424375            4.878584
| 66>   O                      10.820362            -2.705251            5.617242
| 67>   H                      11.187680            -3.311640            6.224069
| 68>   H                      10.173444            -4.331962            4.363986
| 69>   H                      8.986311             -3.762645            5.565948
| 70>   H                      9.261578             -2.853196            4.128685
| 71> *
| 72>
| 73>                          ****END OF INPUT****
 Total Charge           Charge          ....    0
 Multiplicity           Mult            ....    1
 Number of Electrons    NEL             ....   36
Dispersion correction           -0.001599378
FINAL SINGLE POINT ENERGY      -231.467070432565
Dispersion correction           -0.000256721
FINAL SINGLE POINT ENERGY      -115.733933141574

CARTESIAN COORDINATES (ANGSTROEM)
---------------------------------
  C      9.028161   -7.584521    4.100614
  O      8.192791   -6.828802    5.014434
  H      7.594326   -6.269406    4.519792
  H      8.513725   -7.939866    3.227101
  H      9.834166   -6.927564    3.751375
  H      9.510038   -8.408056    4.560258
  C      9.815075   -3.424375    4.878584
  O     10.820362   -2.705251    5.617242
  H     11.187680   -3.311640    6.224069
  H     10.173444   -4.331962    4.363986
  H      8.986311   -3.762645    5.565948
  H      9.261578   -2.853196    4.128685

 Multiplicity           Mult            ....    1
 Number of Electrons    NEL             ....   18
 Basis Dimension        Dim             ....  172

ORBITAL ENERGIES
----------------

  NO   OCC          E(Eh)            E(eV)
   0   2.0000     -19.232354      -523.3390
   1   2.0000     -10.321089      -280.8511
   2   2.0000      -1.136864       -30.9356
   3   2.0000      -0.797753       -21.7080
   4   2.0000      -0.610197       -16.6043
   5   2.0000      -0.534116       -14.5340
   6   2.0000      -0.528120       -14.3709
   7   2.0000      -0.436352       -11.8737
   8   2.0000      -0.376329       -10.2404
   9   0.0000       0.079975         2.1762
  10   0.0000       0.120624         3.2824
  11   0.0000       0.141485         3.8500
  12   0.0000       0.168134         4.5751
  13   0.0000       0.190574         5.1858

MULLIKEN ATOMIC CHARGES
-----------------------
   0 C :    0.000135
   1 O :   -0.000384
   2 H :   -0.000311
   3 H :   -0.000015
   4 H :   -0.000958
   5 H :   -0.000026
   6 C :   -0.181776
   7 O :   -0.465853
   8 H :    0.311710
   9 H :    0.108209
  10 H :    0.103888
  11 H :    0.125383
Sum of atomic charges:    0.0000000

LOEWDIN ATOMIC CHARGES
----------------------
   0 C :   -0.001678
   1 O :   -0.000922
   2 H :   -0.000977
   3 H :   -0.000008
   4 H :   -0.002220
   5 H :   -0.000014
   6 C :   -0.376739
   7 O :   -0.077619
   8 H :    0.151698
   9 H :    0.097906
  10 H :    0.102008
  11 H :    0.108565

  Mayer bond orders larger than 0.1
B(  6-C ,  7-O ) :   0.9957 B(  6-C ,  9-H ) :   0.9725 B(  6-C , 10-H ) :   0.9797
B(  6-C , 11-H ) :   0.9690 B(  7-O ,  8-H ) :   0.9055

Dispersion correction           -0.000266137
FINAL SINGLE POINT ENERGY      -115.731896413844

DIPOLE MOMENT
-------------
                                X             Y             Z
Electronic contribution:      1.40969       1.13372       0.82746
Nuclear contribution   :     -1.59041      -1.80275      -0.74883
                        -----------------------------------------
Total Dipole Moment    :     -0.18072      -0.66903       0.07863
                        -----------------------------------------
Magnitude (a.u.)       :      0.69746
Magnitude (Debye)      :      1.77280

Rotational constants in cm-1:     4.397096     0.792308     0.769386
Rotational constants in MHz : 131821.631192 23752.792639 23065.612327

                             ****ORCA TERMINATED NORMALLY****
TOTAL RUN TIME: 0 days 0 hours 1 minutes 5 seconds 63 msec
