                         Program Version 4.1.2  - RELEASE  -
|  1> #Run DFT-D3 single point of the dimer
|  2> ! wB97X-D3 def2-TZVP TIGHTSCF CHELPG PMODEL PAL8
|  3>
|  4> %base "6-37_DFT_AB"
|  5>
|  6> %scf
|  7> MaxIter 1000
|  8> end
|  9>
| 10> * xyz 0 1
| 11>   C                      5.317093             -1.389465            9.829214
| 12>   O                      4.191214             -1.778297            9.136215
| 13>   H                      3.445085             -1.583899            9.711773
| 14>   H                      5.210921             -0.435185            10.318451
| 15>   H                      5.554928             -2.009631            10.720505
| 16>   H                      6.232359             -1.237325            9.223944
| 17>   C                      2.296306             -2.463585            5.965098
| 18>   O                      3.335485             -1.459262            6.217298
| 19>   H                      3.961326             -1.631534            6.948087
| 20>   H                      1.859094             -2.983333            6.852082
| 21>   H                      1.470109             -2.070292            5.401378
| 22>   H                      2.752099             -3.228727            5.416353
| 23> *
| 24>
| 25> #Run DFT-D3 single point of the molecule with dimer basis set
| 26> $new_job
| 27> %base "6-37_DFT_A"
| 28> ! wB97X-D3 def2-TZVP TIGHTSCF CHELPG PMODEL
| 29>
| 30> %scf
| 31> MaxIter 1000
| 32> end
| 33>
| 34> * xyz 0 1
| 35>   C                      5.317093             -1.389465            9.829214
| 36>   O                      4.191214             -1.778297            9.136215
| 37>   H                      3.445085             -1.583899            9.711773
| 38>   H                      5.210921             -0.435185            10.318451
| 39>   H                      5.554928             -2.009631            10.720505
| 40>   H                      6.232359             -1.237325            9.223944
| 41>   C                    : 2.296306             -2.463585            5.965098
| 42>   O                    : 3.335485             -1.459262            6.217298
| 43>   H                    : 3.961326             -1.631534            6.948087
| 44>   H                    : 1.859094             -2.983333            6.852082
| 45>   H                    : 1.470109             -2.070292            5.401378
| 46>   H                    : 2.752099             -3.228727            5.416353
| 47> *
| 48>
| 49> #Run DFT-D3 single point of the particle with dimer basis set
| 50> $new_job
| 51> %base "6-37_DFT_B"
| 52> ! wB97X-D3 def2-TZVP TIGHTSCF CHELPG PMODEL
| 53>
| 54> %scf
| 55> MaxIter 1000
| 56> end
| 57>
| 58> * xyz 0 1
| 59>   C                    : 5.317093             -1.389465            9.829214
| 60>   O                    : 4.191214             -1.778297            9.136215
| 61>   H                    : 3.445085             -1.583899            9.711773
| 62>   H                    : 5.210921             -0.435185            10.318451
| 63>   H                    : 5.554928             -2.009631            10.720505
| 64>   H                    : 6.232359             -1.237325            9.223944
| 65>   C                      2.296306             -2.463585            5.965098
| 66>   O                      3.335485             -1.459262            6.217298
| 67>   H                      3.961326             -1.631534            6.948087
| 68>   H                      1.859094             -2.983333            6.852082
| 69>   H                      1.470109             -2.070292            5.401378
| 70>   H                      2.752099             -3.228727            5.416353
| 71> *
| 72>
| 73>                          ****END OF INPUT****
 Total Charge           Charge          ....    0
 Multiplicity           Mult            ....    1
 Number of Electrons    NEL             ....   36
Dispersion correction           -0.001544436
FINAL SINGLE POINT ENERGY      -231.464854844428
Dispersion correction           -0.000234213
FINAL SINGLE POINT ENERGY      -115.731267363988

CARTESIAN COORDINATES (ANGSTROEM)
---------------------------------
  C      5.317093   -1.389465    9.829214
  O      4.191214   -1.778297    9.136215
  H      3.445085   -1.583899    9.711773
  H      5.210921   -0.435185   10.318451
  H      5.554928   -2.009631   10.720505
  H      6.232359   -1.237325    9.223944
  C      2.296306   -2.463585    5.965098
  O      3.335485   -1.459262    6.217298
  H      3.961326   -1.631534    6.948087
  H      1.859094   -2.983333    6.852082
  H      1.470109   -2.070292    5.401378
  H      2.752099   -3.228727    5.416353

 Multiplicity           Mult            ....    1
 Number of Electrons    NEL             ....   18
 Basis Dimension        Dim             ....  172

ORBITAL ENERGIES
----------------

  NO   OCC          E(Eh)            E(eV)
   0   2.0000     -19.228152      -523.2246
   1   2.0000     -10.314152      -280.6624
   2   2.0000      -1.111265       -30.2390
   3   2.0000      -0.804722       -21.8976
   4   2.0000      -0.602852       -16.4044
   5   2.0000      -0.540112       -14.6972
   6   2.0000      -0.520196       -14.1553
   7   2.0000      -0.426816       -11.6143
   8   2.0000      -0.372738       -10.1427
   9   0.0000       0.071537         1.9466
  10   0.0000       0.127750         3.4762
  11   0.0000       0.143707         3.9105
  12   0.0000       0.165645         4.5074
  13   0.0000       0.192722         5.2442

MULLIKEN ATOMIC CHARGES
-----------------------
   0 C :   -0.002355
   1 O :   -0.003761
   2 H :   -0.000567
   3 H :    0.000115
   4 H :    0.000027
   5 H :    0.000002
   6 C :   -0.158665
   7 O :   -0.505547
   8 H :    0.321901
   9 H :    0.102249
  10 H :    0.128479
  11 H :    0.118121
Sum of atomic charges:   -0.0000000

LOEWDIN ATOMIC CHARGES
----------------------
   0 C :   -0.001970
   1 O :   -0.011764
   2 H :   -0.001145
   3 H :   -0.000035
   4 H :   -0.000039
   5 H :   -0.000157
   6 C :   -0.338911
   7 O :   -0.118195
   8 H :    0.176586
   9 H :    0.101558
  10 H :    0.105508
  11 H :    0.088564

  Mayer bond orders larger than 0.1
B(  6-C ,  7-O ) :   0.9781 B(  6-C ,  9-H ) :   0.9692 B(  6-C , 10-H ) :   0.9703
B(  6-C , 11-H ) :   0.9850 B(  7-O ,  8-H ) :   0.8916

Dispersion correction           -0.000293663
FINAL SINGLE POINT ENERGY      -115.727634602002

DIPOLE MOMENT
-------------
                                X             Y             Z
Electronic contribution:      1.17524       1.34746       0.19421
Nuclear contribution   :     -1.23672      -1.92325       0.15020
                        -----------------------------------------
Total Dipole Moment    :     -0.06148      -0.57579       0.34441
                        -----------------------------------------
Magnitude (a.u.)       :      0.67374
Magnitude (Debye)      :      1.71251

Rotational constants in cm-1:     4.573308     0.769207     0.741968
Rotational constants in MHz : 137104.321487 23060.257929 22243.628070

                             ****ORCA TERMINATED NORMALLY****
TOTAL RUN TIME: 0 days 0 hours 1 minutes 0 seconds 435 msec
