                         Program Version 4.1.2  - RELEASE  -
|  1> #Run DFT-D3 single point of the dimer
|  2> ! wB97X-D3 def2-TZVP TIGHTSCF CHELPG PMODEL PAL8
|  3>
|  4> %base "15-199_DFT_AB"
|  5>
|  6> %scf
|  7> MaxIter 1000
|  8> end
|  9>
| 10> * xyz 0 1
| 11>   C                      2.607713             -11.322512           0.925257
| 12>   O                      1.613506             -10.587888           0.240427
| 13>   H                      2.014895             -10.026225           -0.402110
| 14>   H                      2.159400             -12.240957           1.350017
| 15>   H                      3.421534             -11.486196           0.223314
| 16>   H                      3.034540             -10.758273           1.763379
| 17>   C                      4.268926             -7.873834            -1.842682
| 18>   O                      2.993519             -8.521411            -1.414708
| 19>   H                      2.287486             -7.827666            -1.424785
| 20>   H                      5.038802             -8.653786            -1.944165
| 21>   H                      4.142344             -7.402287            -2.866896
| 22>   H                      4.547688             -7.102339            -1.118456
| 23> *
| 24>
| 25> #Run DFT-D3 single point of the molecule with dimer basis set
| 26> $new_job
| 27> %base "15-199_DFT_A"
| 28> ! wB97X-D3 def2-TZVP TIGHTSCF CHELPG PMODEL
| 29>
| 30> %scf
| 31> MaxIter 1000
| 32> end
| 33>
| 34> * xyz 0 1
| 35>   C                      2.607713             -11.322512           0.925257
| 36>   O                      1.613506             -10.587888           0.240427
| 37>   H                      2.014895             -10.026225           -0.402110
| 38>   H                      2.159400             -12.240957           1.350017
| 39>   H                      3.421534             -11.486196           0.223314
| 40>   H                      3.034540             -10.758273           1.763379
| 41>   C                    : 4.268926             -7.873834            -1.842682
| 42>   O                    : 2.993519             -8.521411            -1.414708
| 43>   H                    : 2.287486             -7.827666            -1.424785
| 44>   H                    : 5.038802             -8.653786            -1.944165
| 45>   H                    : 4.142344             -7.402287            -2.866896
| 46>   H                    : 4.547688             -7.102339            -1.118456
| 47> *
| 48>
| 49> #Run DFT-D3 single point of the particle with dimer basis set
| 50> $new_job
| 51> %base "15-199_DFT_B"
| 52> ! wB97X-D3 def2-TZVP TIGHTSCF CHELPG PMODEL
| 53>
| 54> %scf
| 55> MaxIter 1000
| 56> end
| 57>
| 58> * xyz 0 1
| 59>   C                    : 2.607713             -11.322512           0.925257
| 60>   O                    : 1.613506             -10.587888           0.240427
| 61>   H                    : 2.014895             -10.026225           -0.402110
| 62>   H                    : 2.159400             -12.240957           1.350017
| 63>   H                    : 3.421534             -11.486196           0.223314
| 64>   H                    : 3.034540             -10.758273           1.763379
| 65>   C                      4.268926             -7.873834            -1.842682
| 66>   O                      2.993519             -8.521411            -1.414708
| 67>   H                      2.287486             -7.827666            -1.424785
| 68>   H                      5.038802             -8.653786            -1.944165
| 69>   H                      4.142344             -7.402287            -2.866896
| 70>   H                      4.547688             -7.102339            -1.118456
| 71> *
| 72>
| 73>                          ****END OF INPUT****
 Total Charge           Charge          ....    0
 Multiplicity           Mult            ....    1
 Number of Electrons    NEL             ....   36
Dispersion correction           -0.001529389
FINAL SINGLE POINT ENERGY      -231.474591163385
Dispersion correction           -0.000234027
FINAL SINGLE POINT ENERGY      -115.734725756957

CARTESIAN COORDINATES (ANGSTROEM)
---------------------------------
  C      2.607713  -11.322512    0.925257
  O      1.613506  -10.587888    0.240427
  H      2.014895  -10.026225   -0.402110
  H      2.159400  -12.240957    1.350017
  H      3.421534  -11.486196    0.223314
  H      3.034540  -10.758273    1.763379
  C      4.268926   -7.873834   -1.842682
  O      2.993519   -8.521411   -1.414708
  H      2.287486   -7.827666   -1.424785
  H      5.038802   -8.653786   -1.944165
  H      4.142344   -7.402287   -2.866896
  H      4.547688   -7.102339   -1.118456

 Multiplicity           Mult            ....    1
 Number of Electrons    NEL             ....   18
 Basis Dimension        Dim             ....  172

ORBITAL ENERGIES
----------------

  NO   OCC          E(Eh)            E(eV)
   0   2.0000     -19.232094      -523.3319
   1   2.0000     -10.325958      -280.9836
   2   2.0000      -1.108033       -30.1511
   3   2.0000      -0.792343       -21.5607
   4   2.0000      -0.590955       -16.0807
   5   2.0000      -0.535456       -14.5705
   6   2.0000      -0.516336       -14.0502
   7   2.0000      -0.436738       -11.8842
   8   2.0000      -0.374686       -10.1957
   9   0.0000       0.098449         2.6789
  10   0.0000       0.121962         3.3188
  11   0.0000       0.145521         3.9598
  12   0.0000       0.187331         5.0975
  13   0.0000       0.196962         5.3596

MULLIKEN ATOMIC CHARGES
-----------------------
   0 C :    0.000848
   1 O :   -0.000428
   2 H :   -0.008316
   3 H :   -0.000209
   4 H :   -0.001344
   5 H :   -0.000551
   6 C :   -0.178614
   7 O :   -0.480805
   8 H :    0.313517
   9 H :    0.129426
  10 H :    0.108645
  11 H :    0.117830
Sum of atomic charges:    0.0000000

LOEWDIN ATOMIC CHARGES
----------------------
   0 C :   -0.002910
   1 O :   -0.003718
   2 H :   -0.031874
   3 H :   -0.000052
   4 H :   -0.000530
   5 H :   -0.000213
   6 C :   -0.336474
   7 O :   -0.115939
   8 H :    0.179701
   9 H :    0.110221
  10 H :    0.104624
  11 H :    0.097166

  Mayer bond orders larger than 0.1
B(  6-C ,  7-O ) :   0.9844 B(  6-C ,  9-H ) :   0.9737 B(  6-C , 10-H ) :   0.9704
B(  6-C , 11-H ) :   0.9692 B(  7-O ,  8-H ) :   0.8960

Dispersion correction           -0.000276328
FINAL SINGLE POINT ENERGY      -115.732126133896

DIPOLE MOMENT
-------------
                                X             Y             Z
Electronic contribution:     -1.38067      -0.91384       0.58538
Nuclear contribution   :      1.51205       1.62604      -0.78529
                        -----------------------------------------
Total Dipole Moment    :      0.13139       0.71220      -0.19992
                        -----------------------------------------
Magnitude (a.u.)       :      0.75130
Magnitude (Debye)      :      1.90965

Rotational constants in cm-1:     4.077240     0.760097     0.734040
Rotational constants in MHz : 122232.575511 22787.127137 22005.971438

                             ****ORCA TERMINATED NORMALLY****
TOTAL RUN TIME: 0 days 0 hours 1 minutes 6 seconds 364 msec
