                         Program Version 4.1.2  - RELEASE  -
|  1> #Run DFT-D3 single point of the dimer
|  2> ! wB97X-D3 def2-TZVP TIGHTSCF CHELPG PMODEL PAL8
|  3>
|  4> %base "19-46_DFT_AB"
|  5>
|  6> %scf
|  7> MaxIter 1000
|  8> end
|  9>
| 10> * xyz 0 1
| 11>   C                      -5.106868            5.364977             4.076705
| 12>   O                      -4.860362            6.614453             3.509791
| 13>   H                      -4.817998            6.497377             2.536860
| 14>   H                      -6.164157            5.347365             4.411321
| 15>   H                      -4.952286            4.468046             3.431176
| 16>   H                      -4.499261            5.272901             4.938925
| 17>   C                      -7.217557            7.503211             -0.975631
| 18>   O                      -7.776478            6.584572             -0.051586
| 19>   H                      -8.682635            6.803749             0.218110
| 20>   H                      -6.185297            7.218880             -1.324601
| 21>   H                      -7.896097            7.687803             -1.787290
| 22>   H                      -6.975519            8.480810             -0.487867
| 23> *
| 24>
| 25> #Run DFT-D3 single point of the molecule with dimer basis set
| 26> $new_job
| 27> %base "19-46_DFT_A"
| 28> ! wB97X-D3 def2-TZVP TIGHTSCF CHELPG PMODEL
| 29>
| 30> %scf
| 31> MaxIter 1000
| 32> end
| 33>
| 34> * xyz 0 1
| 35>   C                      -5.106868            5.364977             4.076705
| 36>   O                      -4.860362            6.614453             3.509791
| 37>   H                      -4.817998            6.497377             2.536860
| 38>   H                      -6.164157            5.347365             4.411321
| 39>   H                      -4.952286            4.468046             3.431176
| 40>   H                      -4.499261            5.272901             4.938925
| 41>   C                    : -7.217557            7.503211             -0.975631
| 42>   O                    : -7.776478            6.584572             -0.051586
| 43>   H                    : -8.682635            6.803749             0.218110
| 44>   H                    : -6.185297            7.218880             -1.324601
| 45>   H                    : -7.896097            7.687803             -1.787290
| 46>   H                    : -6.975519            8.480810             -0.487867
| 47> *
| 48>
| 49> #Run DFT-D3 single point of the particle with dimer basis set
| 50> $new_job
| 51> %base "19-46_DFT_B"
| 52> ! wB97X-D3 def2-TZVP TIGHTSCF CHELPG PMODEL
| 53>
| 54> %scf
| 55> MaxIter 1000
| 56> end
| 57>
| 58> * xyz 0 1
| 59>   C                    : -5.106868            5.364977             4.076705
| 60>   O                    : -4.860362            6.614453             3.509791
| 61>   H                    : -4.817998            6.497377             2.536860
| 62>   H                    : -6.164157            5.347365             4.411321
| 63>   H                    : -4.952286            4.468046             3.431176
| 64>   H                    : -4.499261            5.272901             4.938925
| 65>   C                      -7.217557            7.503211             -0.975631
| 66>   O                      -7.776478            6.584572             -0.051586
| 67>   H                      -8.682635            6.803749             0.218110
| 68>   H                      -6.185297            7.218880             -1.324601
| 69>   H                      -7.896097            7.687803             -1.787290
| 70>   H                      -6.975519            8.480810             -0.487867
| 71> *
| 72>
| 73>                          ****END OF INPUT****
 Total Charge           Charge          ....    0
 Multiplicity           Mult            ....    1
 Number of Electrons    NEL             ....   36
Dispersion correction           -0.000803317
FINAL SINGLE POINT ENERGY      -231.466140581956
Dispersion correction           -0.000245977
FINAL SINGLE POINT ENERGY      -115.733110679834

CARTESIAN COORDINATES (ANGSTROEM)
---------------------------------
  C     -5.106868    5.364977    4.076705
  O     -4.860362    6.614453    3.509791
  H     -4.817998    6.497377    2.536860
  H     -6.164157    5.347365    4.411321
  H     -4.952286    4.468046    3.431176
  H     -4.499261    5.272901    4.938925
  C     -7.217557    7.503211   -0.975631
  O     -7.776478    6.584572   -0.051586
  H     -8.682635    6.803749    0.218110
  H     -6.185297    7.218880   -1.324601
  H     -7.896097    7.687803   -1.787290
  H     -6.975519    8.480810   -0.487867

 Multiplicity           Mult            ....    1
 Number of Electrons    NEL             ....   18
 Basis Dimension        Dim             ....  172

ORBITAL ENERGIES
----------------

  NO   OCC          E(Eh)            E(eV)
   0   2.0000     -19.229519      -523.2618
   1   2.0000     -10.318437      -280.7789
   2   2.0000      -1.129541       -30.7364
   3   2.0000      -0.795085       -21.6354
   4   2.0000      -0.610198       -16.6043
   5   2.0000      -0.546021       -14.8580
   6   2.0000      -0.520329       -14.1589
   7   2.0000      -0.425003       -11.5649
   8   2.0000      -0.370824       -10.0906
   9   0.0000       0.093453         2.5430
  10   0.0000       0.116187         3.1616
  11   0.0000       0.146999         4.0001
  12   0.0000       0.174624         4.7518
  13   0.0000       0.199621         5.4320

MULLIKEN ATOMIC CHARGES
-----------------------
   0 C :   -0.000211
   1 O :    0.000087
   2 H :   -0.000733
   3 H :    0.000001
   4 H :    0.000030
   5 H :   -0.000025
   6 C :   -0.151249
   7 O :   -0.489075
   8 H :    0.320387
   9 H :    0.117111
  10 H :    0.108895
  11 H :    0.094782
Sum of atomic charges:    0.0000000

LOEWDIN ATOMIC CHARGES
----------------------
   0 C :   -0.000148
   1 O :   -0.000038
   2 H :   -0.000532
   3 H :   -0.000015
   4 H :   -0.000006
   5 H :   -0.000008
   6 C :   -0.387510
   7 O :   -0.088706
   8 H :    0.174008
   9 H :    0.115513
  10 H :    0.090537
  11 H :    0.096906

  Mayer bond orders larger than 0.1
B(  6-C ,  7-O ) :   0.9932 B(  6-C ,  9-H ) :   0.9703 B(  6-C , 10-H ) :   0.9777
B(  6-C , 11-H ) :   0.9768 B(  7-O ,  8-H ) :   0.8899

Dispersion correction           -0.000262847
FINAL SINGLE POINT ENERGY      -115.731761200173

DIPOLE MOMENT
-------------
                                X             Y             Z
Electronic contribution:     -0.68730      -1.33924       1.08789
Nuclear contribution   :      0.33061       1.86075      -1.29767
                        -----------------------------------------
Total Dipole Moment    :     -0.35669       0.52150      -0.20979
                        -----------------------------------------
Magnitude (a.u.)       :      0.66573
Magnitude (Debye)      :      1.69216

Rotational constants in cm-1:     4.344017     0.813558     0.783672
Rotational constants in MHz : 130230.351720 24389.860959 23493.884266

                             ****ORCA TERMINATED NORMALLY****
TOTAL RUN TIME: 0 days 0 hours 0 minutes 40 seconds 520 msec
