                         Program Version 4.1.2  - RELEASE  -
|  1> #Run DFT-D3 single point of the dimer
|  2> ! wB97X-D3 def2-TZVP TIGHTSCF CHELPG PMODEL PAL8
|  3>
|  4> %base "13-209_DFT_AB"
|  5>
|  6> %scf
|  7> MaxIter 1000
|  8> end
|  9>
| 10> * xyz 0 1
| 11>   C                      -8.231021            -2.321032            5.418552
| 12>   O                      -7.593325            -1.459487            4.532825
| 13>   H                      -7.053479            -1.994212            3.917231
| 14>   H                      -8.694611            -1.840338            6.231808
| 15>   H                      -9.013949            -2.975823            4.948725
| 16>   H                      -7.423615            -2.892773            5.845033
| 17>   C                      -9.155783            1.175132             5.637970
| 18>   O                      -8.027952            1.355469             4.834778
| 19>   H                      -7.681039            0.421847             4.817280
| 20>   H                      -9.935591            1.933393             5.476235
| 21>   H                      -9.704262            0.266859             5.413622
| 22>   H                      -8.932236            1.257369             6.722419
| 23> *
| 24>
| 25> #Run DFT-D3 single point of the molecule with dimer basis set
| 26> $new_job
| 27> %base "13-209_DFT_A"
| 28> ! wB97X-D3 def2-TZVP TIGHTSCF CHELPG PMODEL
| 29>
| 30> %scf
| 31> MaxIter 1000
| 32> end
| 33>
| 34> * xyz 0 1
| 35>   C                      -8.231021            -2.321032            5.418552
| 36>   O                      -7.593325            -1.459487            4.532825
| 37>   H                      -7.053479            -1.994212            3.917231
| 38>   H                      -8.694611            -1.840338            6.231808
| 39>   H                      -9.013949            -2.975823            4.948725
| 40>   H                      -7.423615            -2.892773            5.845033
| 41>   C                    : -9.155783            1.175132             5.637970
| 42>   O                    : -8.027952            1.355469             4.834778
| 43>   H                    : -7.681039            0.421847             4.817280
| 44>   H                    : -9.935591            1.933393             5.476235
| 45>   H                    : -9.704262            0.266859             5.413622
| 46>   H                    : -8.932236            1.257369             6.722419
| 47> *
| 48>
| 49> #Run DFT-D3 single point of the particle with dimer basis set
| 50> $new_job
| 51> %base "13-209_DFT_B"
| 52> ! wB97X-D3 def2-TZVP TIGHTSCF CHELPG PMODEL
| 53>
| 54> %scf
| 55> MaxIter 1000
| 56> end
| 57>
| 58> * xyz 0 1
| 59>   C                    : -8.231021            -2.321032            5.418552
| 60>   O                    : -7.593325            -1.459487            4.532825
| 61>   H                    : -7.053479            -1.994212            3.917231
| 62>   H                    : -8.694611            -1.840338            6.231808
| 63>   H                    : -9.013949            -2.975823            4.948725
| 64>   H                    : -7.423615            -2.892773            5.845033
| 65>   C                      -9.155783            1.175132             5.637970
| 66>   O                      -8.027952            1.355469             4.834778
| 67>   H                      -7.681039            0.421847             4.817280
| 68>   H                      -9.935591            1.933393             5.476235
| 69>   H                      -9.704262            0.266859             5.413622
| 70>   H                      -8.932236            1.257369             6.722419
| 71> *
| 72>
| 73>                          ****END OF INPUT****
 Total Charge           Charge          ....    0
 Multiplicity           Mult            ....    1
 Number of Electrons    NEL             ....   36
Dispersion correction           -0.002133842
FINAL SINGLE POINT ENERGY      -231.471281255079
Dispersion correction           -0.000223998
FINAL SINGLE POINT ENERGY      -115.731114894203

CARTESIAN COORDINATES (ANGSTROEM)
---------------------------------
  C     -8.231021   -2.321032    5.418552
  O     -7.593325   -1.459487    4.532825
  H     -7.053479   -1.994212    3.917231
  H     -8.694611   -1.840338    6.231808
  H     -9.013949   -2.975823    4.948725
  H     -7.423615   -2.892773    5.845033
  C     -9.155783    1.175132    5.637970
  O     -8.027952    1.355469    4.834778
  H     -7.681039    0.421847    4.817280
  H     -9.935591    1.933393    5.476235
  H     -9.704262    0.266859    5.413622
  H     -8.932236    1.257369    6.722419

 Multiplicity           Mult            ....    1
 Number of Electrons    NEL             ....   18
 Basis Dimension        Dim             ....  172

ORBITAL ENERGIES
----------------

  NO   OCC          E(Eh)            E(eV)
   0   2.0000     -19.239274      -523.5273
   1   2.0000     -10.312483      -280.6169
   2   2.0000      -1.142660       -31.0934
   3   2.0000      -0.789715       -21.4892
   4   2.0000      -0.609524       -16.5860
   5   2.0000      -0.545836       -14.8530
   6   2.0000      -0.529383       -14.4053
   7   2.0000      -0.433739       -11.8026
   8   2.0000      -0.375832       -10.2269
   9   0.0000       0.066770         1.8169
  10   0.0000       0.134649         3.6640
  11   0.0000       0.142317         3.8726
  12   0.0000       0.176225         4.7953
  13   0.0000       0.181765         4.9461

MULLIKEN ATOMIC CHARGES
-----------------------
   0 C :    0.000367
   1 O :   -0.005203
   2 H :   -0.000492
   3 H :   -0.000783
   4 H :   -0.000243
   5 H :    0.000019
   6 C :   -0.186047
   7 O :   -0.450208
   8 H :    0.321085
   9 H :    0.114131
  10 H :    0.105931
  11 H :    0.101444
Sum of atomic charges:   -0.0000000

LOEWDIN ATOMIC CHARGES
----------------------
   0 C :   -0.008827
   1 O :   -0.022309
   2 H :   -0.001048
   3 H :   -0.003343
   4 H :   -0.000161
   5 H :   -0.000080
   6 C :   -0.412429
   7 O :   -0.062864
   8 H :    0.208951
   9 H :    0.106377
  10 H :    0.097333
  11 H :    0.098400

  Mayer bond orders larger than 0.1
B(  6-C ,  7-O ) :   1.0074 B(  6-C ,  9-H ) :   0.9723 B(  6-C , 10-H ) :   0.9779
B(  6-C , 11-H ) :   0.9769 B(  7-O ,  8-H ) :   0.9023

Dispersion correction           -0.000233606
FINAL SINGLE POINT ENERGY      -115.731192948060

DIPOLE MOMENT
-------------
                                X             Y             Z
Electronic contribution:      1.57333       0.38468      -1.13910
Nuclear contribution   :     -1.80168      -1.00956       1.39879
                        -----------------------------------------
Total Dipole Moment    :     -0.22835      -0.62488       0.25969
                        -----------------------------------------
Magnitude (a.u.)       :      0.71418
Magnitude (Debye)      :      1.81531

Rotational constants in cm-1:     4.254126     0.842737     0.816064
Rotational constants in MHz : 127535.499219 25264.608548 24464.988878

                             ****ORCA TERMINATED NORMALLY****
TOTAL RUN TIME: 0 days 0 hours 1 minutes 0 seconds 586 msec
