                         Program Version 4.1.2  - RELEASE  -
|  1> #Run DFT-D3 single point of the dimer
|  2> ! wB97X-D3 def2-TZVP TIGHTSCF CHELPG PMODEL PAL8
|  3>
|  4> %base "3-55_DFT_AB"
|  5>
|  6> %scf
|  7> MaxIter 1000
|  8> end
|  9>
| 10> * xyz 0 1
| 11>   C                      -1.585375            -0.526504            1.034932
| 12>   O                      -1.659778            -0.611331            2.447003
| 13>   H                      -2.532319            -0.358363            2.745018
| 14>   H                      -0.888317            0.258825             0.604334
| 15>   H                      -1.291051            -1.503012            0.632394
| 16>   H                      -2.593034            -0.391837            0.618044
| 17>   C                      -5.992115            -1.387739            5.107837
| 18>   O                      -5.329608            -0.290068            4.531162
| 19>   H                      -5.970827            0.280514             4.158896
| 20>   H                      -5.775991            -1.466988            6.147910
| 21>   H                      -7.074654            -1.268417            5.087857
| 22>   H                      -5.873471            -2.400819            4.623645
| 23> *
| 24>
| 25> #Run DFT-D3 single point of the molecule with dimer basis set
| 26> $new_job
| 27> %base "3-55_DFT_A"
| 28> ! wB97X-D3 def2-TZVP TIGHTSCF CHELPG PMODEL
| 29>
| 30> %scf
| 31> MaxIter 1000
| 32> end
| 33>
| 34> * xyz 0 1
| 35>   C                      -1.585375            -0.526504            1.034932
| 36>   O                      -1.659778            -0.611331            2.447003
| 37>   H                      -2.532319            -0.358363            2.745018
| 38>   H                      -0.888317            0.258825             0.604334
| 39>   H                      -1.291051            -1.503012            0.632394
| 40>   H                      -2.593034            -0.391837            0.618044
| 41>   C                    : -5.992115            -1.387739            5.107837
| 42>   O                    : -5.329608            -0.290068            4.531162
| 43>   H                    : -5.970827            0.280514             4.158896
| 44>   H                    : -5.775991            -1.466988            6.147910
| 45>   H                    : -7.074654            -1.268417            5.087857
| 46>   H                    : -5.873471            -2.400819            4.623645
| 47> *
| 48>
| 49> #Run DFT-D3 single point of the particle with dimer basis set
| 50> $new_job
| 51> %base "3-55_DFT_B"
| 52> ! wB97X-D3 def2-TZVP TIGHTSCF CHELPG PMODEL
| 53>
| 54> %scf
| 55> MaxIter 1000
| 56> end
| 57>
| 58> * xyz 0 1
| 59>   C                    : -1.585375            -0.526504            1.034932
| 60>   O                    : -1.659778            -0.611331            2.447003
| 61>   H                    : -2.532319            -0.358363            2.745018
| 62>   H                    : -0.888317            0.258825             0.604334
| 63>   H                    : -1.291051            -1.503012            0.632394
| 64>   H                    : -2.593034            -0.391837            0.618044
| 65>   C                      -5.992115            -1.387739            5.107837
| 66>   O                      -5.329608            -0.290068            4.531162
| 67>   H                      -5.970827            0.280514             4.158896
| 68>   H                      -5.775991            -1.466988            6.147910
| 69>   H                      -7.074654            -1.268417            5.087857
| 70>   H                      -5.873471            -2.400819            4.623645
| 71> *
| 72>
| 73>                          ****END OF INPUT****
 Total Charge           Charge          ....    0
 Multiplicity           Mult            ....    1
 Number of Electrons    NEL             ....   36
Dispersion correction           -0.000879608
FINAL SINGLE POINT ENERGY      -231.466067395749
Dispersion correction           -0.000262640
FINAL SINGLE POINT ENERGY      -115.732683951673

CARTESIAN COORDINATES (ANGSTROEM)
---------------------------------
  C     -1.585375   -0.526504    1.034932
  O     -1.659778   -0.611331    2.447003
  H     -2.532319   -0.358363    2.745018
  H     -0.888317    0.258825    0.604334
  H     -1.291051   -1.503012    0.632394
  H     -2.593034   -0.391837    0.618044
  C     -5.992115   -1.387739    5.107837
  O     -5.329608   -0.290068    4.531162
  H     -5.970827    0.280514    4.158896
  H     -5.775991   -1.466988    6.147910
  H     -7.074654   -1.268417    5.087857
  H     -5.873471   -2.400819    4.623645

 Multiplicity           Mult            ....    1
 Number of Electrons    NEL             ....   18
 Basis Dimension        Dim             ....  172

ORBITAL ENERGIES
----------------

  NO   OCC          E(Eh)            E(eV)
   0   2.0000     -19.231809      -523.3241
   1   2.0000     -10.313309      -280.6394
   2   2.0000      -1.145457       -31.1695
   3   2.0000      -0.800179       -21.7740
   4   2.0000      -0.622075       -16.9275
   5   2.0000      -0.541750       -14.7418
   6   2.0000      -0.527392       -14.3511
   7   2.0000      -0.430280       -11.7085
   8   2.0000      -0.378131       -10.2895
   9   0.0000       0.095148         2.5891
  10   0.0000       0.115881         3.1533
  11   0.0000       0.150827         4.1042
  12   0.0000       0.178706         4.8628
  13   0.0000       0.200691         5.4611

MULLIKEN ATOMIC CHARGES
-----------------------
   0 C :    0.000367
   1 O :    0.000387
   2 H :   -0.004021
   3 H :   -0.000011
   4 H :   -0.000007
   5 H :   -0.000156
   6 C :   -0.176502
   7 O :   -0.462583
   8 H :    0.316002
   9 H :    0.116869
  10 H :    0.105630
  11 H :    0.104027
Sum of atomic charges:    0.0000000

LOEWDIN ATOMIC CHARGES
----------------------
   0 C :   -0.000029
   1 O :   -0.000068
   2 H :   -0.003043
   3 H :   -0.000000
   4 H :   -0.000001
   5 H :   -0.000023
   6 C :   -0.395526
   7 O :   -0.054223
   8 H :    0.156460
   9 H :    0.095343
  10 H :    0.096246
  11 H :    0.104864

  Mayer bond orders larger than 0.1
B(  6-C ,  7-O ) :   1.0114 B(  6-C ,  9-H ) :   0.9760 B(  6-C , 10-H ) :   0.9854
B(  6-C , 11-H ) :   0.9680 B(  7-O ,  8-H ) :   0.9028

Dispersion correction           -0.000257012
FINAL SINGLE POINT ENERGY      -115.731162599845

DIPOLE MOMENT
-------------
                                X             Y             Z
Electronic contribution:      1.10544       1.44791      -0.73952
Nuclear contribution   :     -1.83195      -1.47880       0.73774
                        -----------------------------------------
Total Dipole Moment    :     -0.72651      -0.03089      -0.00178
                        -----------------------------------------
Magnitude (a.u.)       :      0.72717
Magnitude (Debye)      :      1.84832

Rotational constants in cm-1:     4.506603     0.823356     0.802633
Rotational constants in MHz : 135104.549987 24683.598736 24062.326609

                             ****ORCA TERMINATED NORMALLY****
TOTAL RUN TIME: 0 days 0 hours 6 minutes 2 seconds 71 msec
