                         Program Version 4.1.2  - RELEASE  -
|  1> #Run DFT-D3 single point of the dimer
|  2> ! wB97X-D3 def2-TZVP TIGHTSCF CHELPG PMODEL PAL8
|  3>
|  4> %base "21-185_DFT_AB"
|  5>
|  6> %scf
|  7> MaxIter 1000
|  8> end
|  9>
| 10> * xyz 0 1
| 11>   C                      7.080465             6.516957             -4.207976
| 12>   O                      6.784921             6.975024             -2.905480
| 13>   H                      7.228451             7.823128             -2.702105
| 14>   H                      8.166381             6.525138             -4.272871
| 15>   H                      6.806733             5.484815             -4.307648
| 16>   H                      6.591559             7.106330             -5.019845
| 17>   C                      3.450812             6.522536             -2.033908
| 18>   O                      4.501881             6.873083             -1.171610
| 19>   H                      5.252924             6.560564             -1.657881
| 20>   H                      3.163740             7.347433             -2.747425
| 21>   H                      3.712419             5.630406             -2.509050
| 22>   H                      2.634691             6.326015             -1.366200
| 23> *
| 24>
| 25> #Run DFT-D3 single point of the molecule with dimer basis set
| 26> $new_job
| 27> %base "21-185_DFT_A"
| 28> ! wB97X-D3 def2-TZVP TIGHTSCF CHELPG PMODEL
| 29>
| 30> %scf
| 31> MaxIter 1000
| 32> end
| 33>
| 34> * xyz 0 1
| 35>   C                      7.080465             6.516957             -4.207976
| 36>   O                      6.784921             6.975024             -2.905480
| 37>   H                      7.228451             7.823128             -2.702105
| 38>   H                      8.166381             6.525138             -4.272871
| 39>   H                      6.806733             5.484815             -4.307648
| 40>   H                      6.591559             7.106330             -5.019845
| 41>   C                    : 3.450812             6.522536             -2.033908
| 42>   O                    : 4.501881             6.873083             -1.171610
| 43>   H                    : 5.252924             6.560564             -1.657881
| 44>   H                    : 3.163740             7.347433             -2.747425
| 45>   H                    : 3.712419             5.630406             -2.509050
| 46>   H                    : 2.634691             6.326015             -1.366200
| 47> *
| 48>
| 49> #Run DFT-D3 single point of the particle with dimer basis set
| 50> $new_job
| 51> %base "21-185_DFT_B"
| 52> ! wB97X-D3 def2-TZVP TIGHTSCF CHELPG PMODEL
| 53>
| 54> %scf
| 55> MaxIter 1000
| 56> end
| 57>
| 58> * xyz 0 1
| 59>   C                    : 7.080465             6.516957             -4.207976
| 60>   O                    : 6.784921             6.975024             -2.905480
| 61>   H                    : 7.228451             7.823128             -2.702105
| 62>   H                    : 8.166381             6.525138             -4.272871
| 63>   H                    : 6.806733             5.484815             -4.307648
| 64>   H                    : 6.591559             7.106330             -5.019845
| 65>   C                      3.450812             6.522536             -2.033908
| 66>   O                      4.501881             6.873083             -1.171610
| 67>   H                      5.252924             6.560564             -1.657881
| 68>   H                      3.163740             7.347433             -2.747425
| 69>   H                      3.712419             5.630406             -2.509050
| 70>   H                      2.634691             6.326015             -1.366200
| 71> *
| 72>
| 73>                          ****END OF INPUT****
 Total Charge           Charge          ....    0
 Multiplicity           Mult            ....    1
 Number of Electrons    NEL             ....   36
Dispersion correction           -0.001766354
FINAL SINGLE POINT ENERGY      -231.472073914341
Dispersion correction           -0.000243730
FINAL SINGLE POINT ENERGY      -115.733985099562

CARTESIAN COORDINATES (ANGSTROEM)
---------------------------------
  C      7.080465    6.516957   -4.207976
  O      6.784921    6.975024   -2.905480
  H      7.228451    7.823128   -2.702105
  H      8.166381    6.525138   -4.272871
  H      6.806733    5.484815   -4.307648
  H      6.591559    7.106330   -5.019845
  C      3.450812    6.522536   -2.033908
  O      4.501881    6.873083   -1.171610
  H      5.252924    6.560564   -1.657881
  H      3.163740    7.347433   -2.747425
  H      3.712419    5.630406   -2.509050
  H      2.634691    6.326015   -1.366200

 Multiplicity           Mult            ....    1
 Number of Electrons    NEL             ....   18
 Basis Dimension        Dim             ....  172

ORBITAL ENERGIES
----------------

  NO   OCC          E(Eh)            E(eV)
   0   2.0000     -19.228712      -523.2399
   1   2.0000     -10.307274      -280.4752
   2   2.0000      -1.146789       -31.2057
   3   2.0000      -0.794408       -21.6169
   4   2.0000      -0.617251       -16.7963
   5   2.0000      -0.547603       -14.9010
   6   2.0000      -0.525089       -14.2884
   7   2.0000      -0.442147       -12.0314
   8   2.0000      -0.374062       -10.1787
   9   0.0000       0.069202         1.8831
  10   0.0000       0.133021         3.6197
  11   0.0000       0.148451         4.0396
  12   0.0000       0.165035         4.4908
  13   0.0000       0.189675         5.1613

MULLIKEN ATOMIC CHARGES
-----------------------
   0 C :   -0.001073
   1 O :   -0.005377
   2 H :   -0.001247
   3 H :    0.000043
   4 H :   -0.000015
   5 H :   -0.000057
   6 C :   -0.167508
   7 O :   -0.455201
   8 H :    0.307525
   9 H :    0.097226
  10 H :    0.106332
  11 H :    0.119350
Sum of atomic charges:   -0.0000000

LOEWDIN ATOMIC CHARGES
----------------------
   0 C :   -0.002112
   1 O :   -0.018515
   2 H :   -0.002130
   3 H :   -0.000053
   4 H :   -0.000143
   5 H :   -0.000047
   6 C :   -0.386291
   7 O :   -0.052990
   8 H :    0.168518
   9 H :    0.102509
  10 H :    0.086799
  11 H :    0.104455

  Mayer bond orders larger than 0.1
B(  6-C ,  7-O ) :   0.9971 B(  6-C ,  9-H ) :   0.9656 B(  6-C , 10-H ) :   0.9904
B(  6-C , 11-H ) :   0.9818 B(  7-O ,  8-H ) :   0.9127

Dispersion correction           -0.000210627
FINAL SINGLE POINT ENERGY      -115.730676756472

DIPOLE MOMENT
-------------
                                X             Y             Z
Electronic contribution:      1.23380       0.47304       1.11896
Nuclear contribution   :     -1.17438      -0.83927      -1.72816
                        -----------------------------------------
Total Dipole Moment    :      0.05942      -0.36622      -0.60920
                        -----------------------------------------
Magnitude (a.u.)       :      0.71328
Magnitude (Debye)      :      1.81302

Rotational constants in cm-1:     4.243249     0.859383     0.833574
Rotational constants in MHz : 127209.400790 25763.657008 24989.931230

                             ****ORCA TERMINATED NORMALLY****
TOTAL RUN TIME: 0 days 0 hours 1 minutes 6 seconds 98 msec
