                         Program Version 4.1.2  - RELEASE  -
|  1> #Run DFT-D3 single point of the dimer
|  2> ! wB97X-D3 def2-TZVP TIGHTSCF CHELPG PMODEL PAL8
|  3>
|  4> %base "16-82_DFT_AB"
|  5>
|  6> %scf
|  7> MaxIter 1000
|  8> end
|  9>
| 10> * xyz 0 1
| 11>   C                      1.485028             2.866668             11.191932
| 12>   O                      1.771618             3.996363             10.331948
| 13>   H                      2.698560             4.135901             10.339584
| 14>   H                      1.582231             2.996211             12.246738
| 15>   H                      0.440987             2.521089             11.096234
| 16>   H                      2.100099             1.998036             10.935745
| 17>   C                      2.553177             1.336763             7.634235
| 18>   O                      3.440650             1.886024             8.638546
| 19>   H                      3.857186             1.178551             9.176372
| 20>   H                      2.465323             1.793510             6.596989
| 21>   H                      2.849196             0.187880             7.390275
| 22>   H                      1.626537             1.296802             8.128594
| 23> *
| 24>
| 25> #Run DFT-D3 single point of the molecule with dimer basis set
| 26> $new_job
| 27> %base "16-82_DFT_A"
| 28> ! wB97X-D3 def2-TZVP TIGHTSCF CHELPG PMODEL
| 29>
| 30> %scf
| 31> MaxIter 1000
| 32> end
| 33>
| 34> * xyz 0 1
| 35>   C                      1.485028             2.866668             11.191932
| 36>   O                      1.771618             3.996363             10.331948
| 37>   H                      2.698560             4.135901             10.339584
| 38>   H                      1.582231             2.996211             12.246738
| 39>   H                      0.440987             2.521089             11.096234
| 40>   H                      2.100099             1.998036             10.935745
| 41>   C                    : 2.553177             1.336763             7.634235
| 42>   O                    : 3.440650             1.886024             8.638546
| 43>   H                    : 3.857186             1.178551             9.176372
| 44>   H                    : 2.465323             1.793510             6.596989
| 45>   H                    : 2.849196             0.187880             7.390275
| 46>   H                    : 1.626537             1.296802             8.128594
| 47> *
| 48>
| 49> #Run DFT-D3 single point of the particle with dimer basis set
| 50> $new_job
| 51> %base "16-82_DFT_B"
| 52> ! wB97X-D3 def2-TZVP TIGHTSCF CHELPG PMODEL
| 53>
| 54> %scf
| 55> MaxIter 1000
| 56> end
| 57>
| 58> * xyz 0 1
| 59>   C                    : 1.485028             2.866668             11.191932
| 60>   O                    : 1.771618             3.996363             10.331948
| 61>   H                    : 2.698560             4.135901             10.339584
| 62>   H                    : 1.582231             2.996211             12.246738
| 63>   H                    : 0.440987             2.521089             11.096234
| 64>   H                    : 2.100099             1.998036             10.935745
| 65>   C                      2.553177             1.336763             7.634235
| 66>   O                      3.440650             1.886024             8.638546
| 67>   H                      3.857186             1.178551             9.176372
| 68>   H                      2.465323             1.793510             6.596989
| 69>   H                      2.849196             0.187880             7.390275
| 70>   H                      1.626537             1.296802             8.128594
| 71> *
| 72>
| 73>                          ****END OF INPUT****
 Total Charge           Charge          ....    0
 Multiplicity           Mult            ....    1
 Number of Electrons    NEL             ....   36
Dispersion correction           -0.002145806
FINAL SINGLE POINT ENERGY      -231.452492798245
Dispersion correction           -0.000271295
FINAL SINGLE POINT ENERGY      -115.732677398694

CARTESIAN COORDINATES (ANGSTROEM)
---------------------------------
  C      1.485028    2.866668   11.191932
  O      1.771618    3.996363   10.331948
  H      2.698560    4.135901   10.339584
  H      1.582231    2.996211   12.246738
  H      0.440987    2.521089   11.096234
  H      2.100099    1.998036   10.935745
  C      2.553177    1.336763    7.634235
  O      3.440650    1.886024    8.638546
  H      3.857186    1.178551    9.176372
  H      2.465323    1.793510    6.596989
  H      2.849196    0.187880    7.390275
  H      1.626537    1.296802    8.128594

 Multiplicity           Mult            ....    1
 Number of Electrons    NEL             ....   18
 Basis Dimension        Dim             ....  172

ORBITAL ENERGIES
----------------

  NO   OCC          E(Eh)            E(eV)
   0   2.0000     -19.233111      -523.3596
   1   2.0000     -10.329977      -281.0930
   2   2.0000      -1.122046       -30.5324
   3   2.0000      -0.790167       -21.5015
   4   2.0000      -0.599594       -16.3158
   5   2.0000      -0.545686       -14.8489
   6   2.0000      -0.517417       -14.0796
   7   2.0000      -0.419510       -11.4155
   8   2.0000      -0.374795       -10.1987
   9   0.0000       0.089617         2.4386
  10   0.0000       0.122299         3.3279
  11   0.0000       0.140663         3.8276
  12   0.0000       0.176082         4.7914
  13   0.0000       0.186673         5.0796

MULLIKEN ATOMIC CHARGES
-----------------------
   0 C :    0.013031
   1 O :    0.001596
   2 H :   -0.003717
   3 H :   -0.000876
   4 H :   -0.001011
   5 H :   -0.020729
   6 C :   -0.186116
   7 O :   -0.480049
   8 H :    0.326318
   9 H :    0.129818
  10 H :    0.093844
  11 H :    0.127891
Sum of atomic charges:   -0.0000000

LOEWDIN ATOMIC CHARGES
----------------------
   0 C :   -0.007849
   1 O :   -0.002746
   2 H :   -0.004683
   3 H :   -0.000080
   4 H :   -0.000149
   5 H :   -0.009140
   6 C :   -0.372855
   7 O :   -0.097991
   8 H :    0.181730
   9 H :    0.114842
  10 H :    0.110448
  11 H :    0.088473

  Mayer bond orders larger than 0.1
B(  6-C ,  7-O ) :   0.9876 B(  6-C ,  9-H ) :   0.9607 B(  6-C , 10-H ) :   0.9808
B(  6-C , 11-H ) :   0.9779 B(  7-O ,  8-H ) :   0.8870

Dispersion correction           -0.000283381
FINAL SINGLE POINT ENERGY      -115.718303559673

DIPOLE MOMENT
-------------
                                X             Y             Z
Electronic contribution:      1.06546       1.08072       1.17465
Nuclear contribution   :     -1.17642      -1.75487      -1.25534
                        -----------------------------------------
Total Dipole Moment    :     -0.11096      -0.67416      -0.08069
                        -----------------------------------------
Magnitude (a.u.)       :      0.68797
Magnitude (Debye)      :      1.74869

Rotational constants in cm-1:     4.164303     0.783165     0.752456
Rotational constants in MHz : 124842.655802 23478.685608 22558.063307

                             ****ORCA TERMINATED NORMALLY****
TOTAL RUN TIME: 0 days 0 hours 1 minutes 3 seconds 416 msec
