                         Program Version 4.1.2  - RELEASE  -
|  1> #Run DFT-D3 single point of the dimer
|  2> ! wB97X-D3 def2-TZVP TIGHTSCF CHELPG PMODEL PAL8
|  3>
|  4> %base "10-125_DFT_AB"
|  5>
|  6> %scf
|  7> MaxIter 1000
|  8> end
|  9>
| 10> * xyz 0 1
| 11>   C                      3.098485             -10.254710           3.154652
| 12>   O                      1.929443             -10.645468           2.413402
| 13>   H                      1.326363             -9.867213            2.392018
| 14>   H                      3.838667             -9.664771            2.574647
| 15>   H                      2.839848             -9.539749            3.990909
| 16>   H                      3.496632             -11.128306           3.655965
| 17>   C                      -0.044900            -8.393597            0.078068
| 18>   O                      -1.382602            -8.831808            -0.218528
| 19>   H                      -1.320086            -9.328021            -0.996402
| 20>   H                      0.416591             -8.024864            -0.837655
| 21>   H                      -0.006257            -7.610653            0.880495
| 22>   H                      0.607919             -9.246314            0.494425
| 23> *
| 24>
| 25> #Run DFT-D3 single point of the molecule with dimer basis set
| 26> $new_job
| 27> %base "10-125_DFT_A"
| 28> ! wB97X-D3 def2-TZVP TIGHTSCF CHELPG PMODEL
| 29>
| 30> %scf
| 31> MaxIter 1000
| 32> end
| 33>
| 34> * xyz 0 1
| 35>   C                      3.098485             -10.254710           3.154652
| 36>   O                      1.929443             -10.645468           2.413402
| 37>   H                      1.326363             -9.867213            2.392018
| 38>   H                      3.838667             -9.664771            2.574647
| 39>   H                      2.839848             -9.539749            3.990909
| 40>   H                      3.496632             -11.128306           3.655965
| 41>   C                    : -0.044900            -8.393597            0.078068
| 42>   O                    : -1.382602            -8.831808            -0.218528
| 43>   H                    : -1.320086            -9.328021            -0.996402
| 44>   H                    : 0.416591             -8.024864            -0.837655
| 45>   H                    : -0.006257            -7.610653            0.880495
| 46>   H                    : 0.607919             -9.246314            0.494425
| 47> *
| 48>
| 49> #Run DFT-D3 single point of the particle with dimer basis set
| 50> $new_job
| 51> %base "10-125_DFT_B"
| 52> ! wB97X-D3 def2-TZVP TIGHTSCF CHELPG PMODEL
| 53>
| 54> %scf
| 55> MaxIter 1000
| 56> end
| 57>
| 58> * xyz 0 1
| 59>   C                    : 3.098485             -10.254710           3.154652
| 60>   O                    : 1.929443             -10.645468           2.413402
| 61>   H                    : 1.326363             -9.867213            2.392018
| 62>   H                    : 3.838667             -9.664771            2.574647
| 63>   H                    : 2.839848             -9.539749            3.990909
| 64>   H                    : 3.496632             -11.128306           3.655965
| 65>   C                      -0.044900            -8.393597            0.078068
| 66>   O                      -1.382602            -8.831808            -0.218528
| 67>   H                      -1.320086            -9.328021            -0.996402
| 68>   H                      0.416591             -8.024864            -0.837655
| 69>   H                      -0.006257            -7.610653            0.880495
| 70>   H                      0.607919             -9.246314            0.494425
| 71> *
| 72>
| 73>                          ****END OF INPUT****
 Total Charge           Charge          ....    0
 Multiplicity           Mult            ....    1
 Number of Electrons    NEL             ....   36
Dispersion correction           -0.001349787
FINAL SINGLE POINT ENERGY      -231.465381660074
Dispersion correction           -0.000264083
FINAL SINGLE POINT ENERGY      -115.733052983799

CARTESIAN COORDINATES (ANGSTROEM)
---------------------------------
  C      3.098485  -10.254710    3.154652
  O      1.929443  -10.645468    2.413402
  H      1.326363   -9.867213    2.392018
  H      3.838667   -9.664771    2.574647
  H      2.839848   -9.539749    3.990909
  H      3.496632  -11.128306    3.655965
  C     -0.044900   -8.393597    0.078068
  O     -1.382602   -8.831808   -0.218528
  H     -1.320086   -9.328021   -0.996402
  H      0.416591   -8.024864   -0.837655
  H     -0.006257   -7.610653    0.880495
  H      0.607919   -9.246314    0.494425

 Multiplicity           Mult            ....    1
 Number of Electrons    NEL             ....   18
 Basis Dimension        Dim             ....  172

ORBITAL ENERGIES
----------------

  NO   OCC          E(Eh)            E(eV)
   0   2.0000     -19.228924      -523.2456
   1   2.0000     -10.325145      -280.9615
   2   2.0000      -1.138771       -30.9875
   3   2.0000      -0.792851       -21.5746
   4   2.0000      -0.609411       -16.5829
   5   2.0000      -0.537553       -14.6275
   6   2.0000      -0.523550       -14.2465
   7   2.0000      -0.437707       -11.9106
   8   2.0000      -0.374353       -10.1867
   9   0.0000       0.085325         2.3218
  10   0.0000       0.118680         3.2295
  11   0.0000       0.148753         4.0478
  12   0.0000       0.177986         4.8432
  13   0.0000       0.185961         5.0603

MULLIKEN ATOMIC CHARGES
-----------------------
   0 C :   -0.000414
   1 O :    0.000385
   2 H :    0.000117
   3 H :    0.000024
   4 H :   -0.000002
   5 H :   -0.000019
   6 C :   -0.176467
   7 O :   -0.462697
   8 H :    0.308060
   9 H :    0.112219
  10 H :    0.120672
  11 H :    0.098121
Sum of atomic charges:    0.0000000

LOEWDIN ATOMIC CHARGES
----------------------
   0 C :   -0.000453
   1 O :   -0.002881
   2 H :   -0.008507
   3 H :   -0.000039
   4 H :   -0.000004
   5 H :   -0.000011
   6 C :   -0.372670
   7 O :   -0.075737
   8 H :    0.144326
   9 H :    0.094120
  10 H :    0.113429
  11 H :    0.108428

  Mayer bond orders larger than 0.1
B(  6-C ,  7-O ) :   0.9925 B(  6-C ,  9-H ) :   0.9779 B(  6-C , 10-H ) :   0.9716
B(  6-C , 11-H ) :   0.9684 B(  7-O ,  8-H ) :   0.9090

Dispersion correction           -0.000255542
FINAL SINGLE POINT ENERGY      -115.731779185842

DIPOLE MOMENT
-------------
                                X             Y             Z
Electronic contribution:     -1.82440      -0.41883      -0.30838
Nuclear contribution   :      2.39646       0.29700      -0.07873
                        -----------------------------------------
Total Dipole Moment    :      0.57206      -0.12183      -0.38711
                        -----------------------------------------
Magnitude (a.u.)       :      0.70139
Magnitude (Debye)      :      1.78280

Rotational constants in cm-1:     4.200882     0.803136     0.776548
Rotational constants in MHz : 125939.282865 24077.398771 23280.312449

                             ****ORCA TERMINATED NORMALLY****
TOTAL RUN TIME: 0 days 0 hours 1 minutes 0 seconds 675 msec
