                         Program Version 4.1.2  - RELEASE  -
|  1> #Run DFT-D3 single point of the dimer
|  2> ! wB97X-D3 def2-TZVP TIGHTSCF CHELPG PMODEL PAL8
|  3>
|  4> %base "17-0_DFT_AB"
|  5>
|  6> %scf
|  7> MaxIter 1000
|  8> end
|  9>
| 10> * xyz 0 1
| 11>   C                      4.197069             -5.731458            9.963804
| 12>   O                      3.094894             -5.843376            9.191124
| 13>   H                      2.638128             -4.976491            9.044959
| 14>   H                      4.671865             -6.648630            10.240441
| 15>   H                      4.946971             -5.153106            9.403973
| 16>   H                      3.975430             -5.220114            10.891315
| 17>   C                      4.150978             -8.128373            6.746829
| 18>   O                      2.942446             -8.051639            7.445217
| 19>   H                      2.835068             -7.172341            7.782196
| 20>   H                      3.960179             -7.619016            5.778726
| 21>   H                      4.960546             -7.596341            7.237245
| 22>   H                      4.481966             -9.161602            6.621460
| 23> *
| 24>
| 25> #Run DFT-D3 single point of the molecule with dimer basis set
| 26> $new_job
| 27> %base "17-0_DFT_A"
| 28> ! wB97X-D3 def2-TZVP TIGHTSCF CHELPG PMODEL
| 29>
| 30> %scf
| 31> MaxIter 1000
| 32> end
| 33>
| 34> * xyz 0 1
| 35>   C                      4.197069             -5.731458            9.963804
| 36>   O                      3.094894             -5.843376            9.191124
| 37>   H                      2.638128             -4.976491            9.044959
| 38>   H                      4.671865             -6.648630            10.240441
| 39>   H                      4.946971             -5.153106            9.403973
| 40>   H                      3.975430             -5.220114            10.891315
| 41>   C                    : 4.150978             -8.128373            6.746829
| 42>   O                    : 2.942446             -8.051639            7.445217
| 43>   H                    : 2.835068             -7.172341            7.782196
| 44>   H                    : 3.960179             -7.619016            5.778726
| 45>   H                    : 4.960546             -7.596341            7.237245
| 46>   H                    : 4.481966             -9.161602            6.621460
| 47> *
| 48>
| 49> #Run DFT-D3 single point of the particle with dimer basis set
| 50> $new_job
| 51> %base "17-0_DFT_B"
| 52> ! wB97X-D3 def2-TZVP TIGHTSCF CHELPG PMODEL
| 53>
| 54> %scf
| 55> MaxIter 1000
| 56> end
| 57>
| 58> * xyz 0 1
| 59>   C                    : 4.197069             -5.731458            9.963804
| 60>   O                    : 3.094894             -5.843376            9.191124
| 61>   H                    : 2.638128             -4.976491            9.044959
| 62>   H                    : 4.671865             -6.648630            10.240441
| 63>   H                    : 4.946971             -5.153106            9.403973
| 64>   H                    : 3.975430             -5.220114            10.891315
| 65>   C                      4.150978             -8.128373            6.746829
| 66>   O                      2.942446             -8.051639            7.445217
| 67>   H                      2.835068             -7.172341            7.782196
| 68>   H                      3.960179             -7.619016            5.778726
| 69>   H                      4.960546             -7.596341            7.237245
| 70>   H                      4.481966             -9.161602            6.621460
| 71> *
| 72>
| 73>                          ****END OF INPUT****
 Total Charge           Charge          ....    0
 Multiplicity           Mult            ....    1
 Number of Electrons    NEL             ....   36
Dispersion correction           -0.001923198
FINAL SINGLE POINT ENERGY      -231.472280157981
Dispersion correction           -0.000216573
FINAL SINGLE POINT ENERGY      -115.730491299713

CARTESIAN COORDINATES (ANGSTROEM)
---------------------------------
  C      4.197069   -5.731458    9.963804
  O      3.094894   -5.843376    9.191124
  H      2.638128   -4.976491    9.044959
  H      4.671865   -6.648630   10.240441
  H      4.946971   -5.153106    9.403973
  H      3.975430   -5.220114   10.891315
  C      4.150978   -8.128373    6.746829
  O      2.942446   -8.051639    7.445217
  H      2.835068   -7.172341    7.782196
  H      3.960179   -7.619016    5.778726
  H      4.960546   -7.596341    7.237245
  H      4.481966   -9.161602    6.621460

 Multiplicity           Mult            ....    1
 Number of Electrons    NEL             ....   18
 Basis Dimension        Dim             ....  172

ORBITAL ENERGIES
----------------

  NO   OCC          E(Eh)            E(eV)
   0   2.0000     -19.227440      -523.2052
   1   2.0000     -10.312369      -280.6138
   2   2.0000      -1.142935       -31.1008
   3   2.0000      -0.795144       -21.6370
   4   2.0000      -0.615437       -16.7469
   5   2.0000      -0.547394       -14.8953
   6   2.0000      -0.527977       -14.3670
   7   2.0000      -0.433012       -11.7828
   8   2.0000      -0.369998       -10.0682
   9   0.0000       0.070054         1.9063
  10   0.0000       0.138298         3.7633
  11   0.0000       0.142724         3.8837
  12   0.0000       0.173186         4.7126
  13   0.0000       0.186206         5.0669

MULLIKEN ATOMIC CHARGES
-----------------------
   0 C :   -0.003099
   1 O :   -0.004336
   2 H :   -0.000308
   3 H :   -0.000326
   4 H :   -0.000106
   5 H :   -0.000068
   6 C :   -0.158673
   7 O :   -0.465746
   8 H :    0.313094
   9 H :    0.100824
  10 H :    0.099669
  11 H :    0.119074
Sum of atomic charges:    0.0000000

LOEWDIN ATOMIC CHARGES
----------------------
   0 C :   -0.005137
   1 O :   -0.020271
   2 H :   -0.001316
   3 H :   -0.000635
   4 H :   -0.000248
   5 H :   -0.000083
   6 C :   -0.391892
   7 O :   -0.049377
   8 H :    0.169684
   9 H :    0.099509
  10 H :    0.092059
  11 H :    0.107707

  Mayer bond orders larger than 0.1
B(  6-C ,  7-O ) :   0.9913 B(  6-C ,  9-H ) :   0.9902 B(  6-C , 10-H ) :   0.9724
B(  6-C , 11-H ) :   0.9697 B(  7-O ,  8-H ) :   0.9044

Dispersion correction           -0.000223082
FINAL SINGLE POINT ENERGY      -115.734911679872

DIPOLE MOMENT
-------------
                                X             Y             Z
Electronic contribution:     -1.54009      -0.12501       0.90518
Nuclear contribution   :      1.95545       0.64709      -0.94911
                        -----------------------------------------
Total Dipole Moment    :      0.41536       0.52208      -0.04392
                        -----------------------------------------
Magnitude (a.u.)       :      0.66860
Magnitude (Debye)      :      1.69944

Rotational constants in cm-1:     4.284290     0.849209     0.820033
Rotational constants in MHz : 128439.777428 25458.638052 24583.961345

                             ****ORCA TERMINATED NORMALLY****
TOTAL RUN TIME: 0 days 0 hours 1 minutes 6 seconds 707 msec
