                         Program Version 4.1.2  - RELEASE  -
|  1> #Run DFT-D3 single point of the dimer
|  2> ! wB97X-D3 def2-TZVP TIGHTSCF CHELPG PMODEL PAL8
|  3>
|  4> %base "6-25_DFT_AB"
|  5>
|  6> %scf
|  7> MaxIter 1000
|  8> end
|  9>
| 10> * xyz 0 1
| 11>   C                      -0.715228            1.050743             2.453242
| 12>   O                      -1.854007            0.340821             2.144338
| 13>   H                      -2.633239            0.803480             2.639829
| 14>   H                      -0.871798            2.130612             2.284487
| 15>   H                      -0.449429            0.971583             3.539397
| 16>   H                      0.102194             0.804007             1.757111
| 17>   C                      0.183462             0.452977             6.161411
| 18>   O                      0.088514             1.558360             6.965881
| 19>   H                      0.995912             1.881266             7.136302
| 20>   H                      -0.781948            0.267522             5.660353
| 21>   H                      0.841849             0.636354             5.347028
| 22>   H                      0.628040             -0.451358            6.668737
| 23> *
| 24>
| 25> #Run DFT-D3 single point of the molecule with dimer basis set
| 26> $new_job
| 27> %base "6-25_DFT_A"
| 28> ! wB97X-D3 def2-TZVP TIGHTSCF CHELPG PMODEL
| 29>
| 30> %scf
| 31> MaxIter 1000
| 32> end
| 33>
| 34> * xyz 0 1
| 35>   C                      -0.715228            1.050743             2.453242
| 36>   O                      -1.854007            0.340821             2.144338
| 37>   H                      -2.633239            0.803480             2.639829
| 38>   H                      -0.871798            2.130612             2.284487
| 39>   H                      -0.449429            0.971583             3.539397
| 40>   H                      0.102194             0.804007             1.757111
| 41>   C                    : 0.183462             0.452977             6.161411
| 42>   O                    : 0.088514             1.558360             6.965881
| 43>   H                    : 0.995912             1.881266             7.136302
| 44>   H                    : -0.781948            0.267522             5.660353
| 45>   H                    : 0.841849             0.636354             5.347028
| 46>   H                    : 0.628040             -0.451358            6.668737
| 47> *
| 48>
| 49> #Run DFT-D3 single point of the particle with dimer basis set
| 50> $new_job
| 51> %base "6-25_DFT_B"
| 52> ! wB97X-D3 def2-TZVP TIGHTSCF CHELPG PMODEL
| 53>
| 54> %scf
| 55> MaxIter 1000
| 56> end
| 57>
| 58> * xyz 0 1
| 59>   C                    : -0.715228            1.050743             2.453242
| 60>   O                    : -1.854007            0.340821             2.144338
| 61>   H                    : -2.633239            0.803480             2.639829
| 62>   H                    : -0.871798            2.130612             2.284487
| 63>   H                    : -0.449429            0.971583             3.539397
| 64>   H                    : 0.102194             0.804007             1.757111
| 65>   C                      0.183462             0.452977             6.161411
| 66>   O                      0.088514             1.558360             6.965881
| 67>   H                      0.995912             1.881266             7.136302
| 68>   H                      -0.781948            0.267522             5.660353
| 69>   H                      0.841849             0.636354             5.347028
| 70>   H                      0.628040             -0.451358            6.668737
| 71> *
| 72>
| 73>                          ****END OF INPUT****
 Total Charge           Charge          ....    0
 Multiplicity           Mult            ....    1
 Number of Electrons    NEL             ....   36
Dispersion correction           -0.001428847
FINAL SINGLE POINT ENERGY      -231.461386859372
Dispersion correction           -0.000228270
FINAL SINGLE POINT ENERGY      -115.729184928117

CARTESIAN COORDINATES (ANGSTROEM)
---------------------------------
  C     -0.715228    1.050743    2.453242
  O     -1.854007    0.340821    2.144338
  H     -2.633239    0.803480    2.639829
  H     -0.871798    2.130612    2.284487
  H     -0.449429    0.971583    3.539397
  H      0.102194    0.804007    1.757111
  C      0.183462    0.452977    6.161411
  O      0.088514    1.558360    6.965881
  H      0.995912    1.881266    7.136302
  H     -0.781948    0.267522    5.660353
  H      0.841849    0.636354    5.347028
  H      0.628040   -0.451358    6.668737

 Multiplicity           Mult            ....    1
 Number of Electrons    NEL             ....   18
 Basis Dimension        Dim             ....  172

ORBITAL ENERGIES
----------------

  NO   OCC          E(Eh)            E(eV)
   0   2.0000     -19.232691      -523.3481
   1   2.0000     -10.309718      -280.5417
   2   2.0000      -1.148252       -31.2455
   3   2.0000      -0.791443       -21.5363
   4   2.0000      -0.621027       -16.8990
   5   2.0000      -0.545991       -14.8572
   6   2.0000      -0.528254       -14.3745
   7   2.0000      -0.430623       -11.7178
   8   2.0000      -0.370338       -10.0774
   9   0.0000       0.087364         2.3773
  10   0.0000       0.115001         3.1293
  11   0.0000       0.157387         4.2827
  12   0.0000       0.160339         4.3631
  13   0.0000       0.191298         5.2055

MULLIKEN ATOMIC CHARGES
-----------------------
   0 C :    0.005508
   1 O :   -0.000121
   2 H :   -0.000172
   3 H :   -0.000407
   4 H :   -0.009502
   5 H :   -0.000012
   6 C :   -0.144056
   7 O :   -0.462979
   8 H :    0.318325
   9 H :    0.110195
  10 H :    0.099336
  11 H :    0.083886
Sum of atomic charges:   -0.0000000

LOEWDIN ATOMIC CHARGES
----------------------
   0 C :   -0.003480
   1 O :   -0.000045
   2 H :   -0.000091
   3 H :   -0.000028
   4 H :   -0.009662
   5 H :   -0.000049
   6 C :   -0.420454
   7 O :   -0.049730
   8 H :    0.184618
   9 H :    0.113536
  10 H :    0.088694
  11 H :    0.096691

  Mayer bond orders larger than 0.1
B(  6-C ,  7-O ) :   1.0175 B(  6-C ,  9-H ) :   0.9691 B(  6-C , 10-H ) :   0.9839
B(  6-C , 11-H ) :   0.9645 B(  7-O ,  8-H ) :   0.8930

Dispersion correction           -0.000224686
FINAL SINGLE POINT ENERGY      -115.731967021023

DIPOLE MOMENT
-------------
                                X             Y             Z
Electronic contribution:     -0.33780       1.46839       1.14204
Nuclear contribution   :      0.95589      -1.63530      -1.36474
                        -----------------------------------------
Total Dipole Moment    :      0.61809      -0.16691      -0.22270
                        -----------------------------------------
Magnitude (a.u.)       :      0.67786
Magnitude (Debye)      :      1.72297

Rotational constants in cm-1:     4.269271     0.873025     0.836081
Rotational constants in MHz : 127989.522918 26172.617757 25065.076590

                             ****ORCA TERMINATED NORMALLY****
TOTAL RUN TIME: 0 days 0 hours 1 minutes 5 seconds 795 msec
