                         Program Version 4.1.2  - RELEASE  -
|  1> #Run DFT-D3 single point of the dimer
|  2> ! wB97X-D3 def2-TZVP TIGHTSCF CHELPG PMODEL PAL8
|  3>
|  4> %base "4-191_DFT_AB"
|  5>
|  6> %scf
|  7> MaxIter 1000
|  8> end
|  9>
| 10> * xyz 0 1
| 11>   C                      -2.851558            8.955236             7.983612
| 12>   O                      -1.903564            8.192339             8.664395
| 13>   H                      -1.051089            8.453823             8.410331
| 14>   H                      -3.869168            8.630597             8.271023
| 15>   H                      -2.646111            10.007625            8.078707
| 16>   H                      -2.944603            8.727458             6.899355
| 17>   C                      -3.676988            6.258992             5.410534
| 18>   O                      -2.437939            6.218606             6.109411
| 19>   H                      -2.542098            5.874862             6.986939
| 20>   H                      -4.129947            5.276658             5.246592
| 21>   H                      -4.294873            7.006507             5.893704
| 22>   H                      -3.527705            6.585124             4.395753
| 23> *
| 24>
| 25> #Run DFT-D3 single point of the molecule with dimer basis set
| 26> $new_job
| 27> %base "4-191_DFT_A"
| 28> ! wB97X-D3 def2-TZVP TIGHTSCF CHELPG PMODEL
| 29>
| 30> %scf
| 31> MaxIter 1000
| 32> end
| 33>
| 34> * xyz 0 1
| 35>   C                      -2.851558            8.955236             7.983612
| 36>   O                      -1.903564            8.192339             8.664395
| 37>   H                      -1.051089            8.453823             8.410331
| 38>   H                      -3.869168            8.630597             8.271023
| 39>   H                      -2.646111            10.007625            8.078707
| 40>   H                      -2.944603            8.727458             6.899355
| 41>   C                    : -3.676988            6.258992             5.410534
| 42>   O                    : -2.437939            6.218606             6.109411
| 43>   H                    : -2.542098            5.874862             6.986939
| 44>   H                    : -4.129947            5.276658             5.246592
| 45>   H                    : -4.294873            7.006507             5.893704
| 46>   H                    : -3.527705            6.585124             4.395753
| 47> *
| 48>
| 49> #Run DFT-D3 single point of the particle with dimer basis set
| 50> $new_job
| 51> %base "4-191_DFT_B"
| 52> ! wB97X-D3 def2-TZVP TIGHTSCF CHELPG PMODEL
| 53>
| 54> %scf
| 55> MaxIter 1000
| 56> end
| 57>
| 58> * xyz 0 1
| 59>   C                    : -2.851558            8.955236             7.983612
| 60>   O                    : -1.903564            8.192339             8.664395
| 61>   H                    : -1.051089            8.453823             8.410331
| 62>   H                    : -3.869168            8.630597             8.271023
| 63>   H                    : -2.646111            10.007625            8.078707
| 64>   H                    : -2.944603            8.727458             6.899355
| 65>   C                      -3.676988            6.258992             5.410534
| 66>   O                      -2.437939            6.218606             6.109411
| 67>   H                      -2.542098            5.874862             6.986939
| 68>   H                      -4.129947            5.276658             5.246592
| 69>   H                      -4.294873            7.006507             5.893704
| 70>   H                      -3.527705            6.585124             4.395753
| 71> *
| 72>
| 73>                          ****END OF INPUT****
 Total Charge           Charge          ....    0
 Multiplicity           Mult            ....    1
 Number of Electrons    NEL             ....   36
Dispersion correction           -0.002175631
FINAL SINGLE POINT ENERGY      -231.469057842419
Dispersion correction           -0.000240195
FINAL SINGLE POINT ENERGY      -115.732011691091

CARTESIAN COORDINATES (ANGSTROEM)
---------------------------------
  C     -2.851558    8.955236    7.983612
  O     -1.903564    8.192339    8.664395
  H     -1.051089    8.453823    8.410331
  H     -3.869168    8.630597    8.271023
  H     -2.646111   10.007625    8.078707
  H     -2.944603    8.727458    6.899355
  C     -3.676988    6.258992    5.410534
  O     -2.437939    6.218606    6.109411
  H     -2.542098    5.874862    6.986939
  H     -4.129947    5.276658    5.246592
  H     -4.294873    7.006507    5.893704
  H     -3.527705    6.585124    4.395753

 Multiplicity           Mult            ....    1
 Number of Electrons    NEL             ....   18
 Basis Dimension        Dim             ....  172

ORBITAL ENERGIES
----------------

  NO   OCC          E(Eh)            E(eV)
   0   2.0000     -19.227402      -523.2042
   1   2.0000     -10.311247      -280.5833
   2   2.0000      -1.133012       -30.8308
   3   2.0000      -0.801872       -21.8200
   4   2.0000      -0.606453       -16.5024
   5   2.0000      -0.553782       -15.0692
   6   2.0000      -0.525930       -14.3113
   7   2.0000      -0.424048       -11.5389
   8   2.0000      -0.376781       -10.2527
   9   0.0000       0.086745         2.3605
  10   0.0000       0.137183         3.7329
  11   0.0000       0.145623         3.9626
  12   0.0000       0.174242         4.7414
  13   0.0000       0.196998         5.3606

MULLIKEN ATOMIC CHARGES
-----------------------
   0 C :   -0.012335
   1 O :    0.000472
   2 H :   -0.000452
   3 H :    0.000938
   4 H :   -0.000463
   5 H :    0.003767
   6 C :   -0.164283
   7 O :   -0.482159
   8 H :    0.316737
   9 H :    0.110448
  10 H :    0.108598
  11 H :    0.118733
Sum of atomic charges:   -0.0000000

LOEWDIN ATOMIC CHARGES
----------------------
   0 C :   -0.010681
   1 O :   -0.002641
   2 H :   -0.000866
   3 H :   -0.000588
   4 H :   -0.000154
   5 H :   -0.006843
   6 C :   -0.371980
   7 O :   -0.067096
   8 H :    0.159487
   9 H :    0.097601
  10 H :    0.097284
  11 H :    0.106475

  Mayer bond orders larger than 0.1
B(  6-C ,  7-O ) :   0.9932 B(  6-C ,  9-H ) :   0.9755 B(  6-C , 10-H ) :   0.9824
B(  6-C , 11-H ) :   0.9737 B(  7-O ,  8-H ) :   0.8976

Dispersion correction           -0.000249174
FINAL SINGLE POINT ENERGY      -115.734014627549

DIPOLE MOMENT
-------------
                                X             Y             Z
Electronic contribution:      1.56652      -0.04764       0.81906
Nuclear contribution   :     -2.13767      -0.16463      -0.58237
                        -----------------------------------------
Total Dipole Moment    :     -0.57114      -0.21228       0.23669
                        -----------------------------------------
Magnitude (a.u.)       :      0.65368
Magnitude (Debye)      :      1.66151

Rotational constants in cm-1:     4.433947     0.813167     0.799661
Rotational constants in MHz : 132926.376851 24378.141870 23973.246911

                             ****ORCA TERMINATED NORMALLY****
TOTAL RUN TIME: 0 days 0 hours 1 minutes 35 seconds 405 msec
