                         Program Version 4.1.2  - RELEASE  -
|  1> #Run DFT-D3 single point of the dimer
|  2> ! wB97X-D3 def2-TZVP TIGHTSCF CHELPG PMODEL PAL8
|  3>
|  4> %base "21-125_DFT_AB"
|  5>
|  6> %scf
|  7> MaxIter 1000
|  8> end
|  9>
| 10> * xyz 0 1
| 11>   C                      1.481568             11.224175            -2.803278
| 12>   O                      0.321357             11.451695            -2.041558
| 13>   H                      0.369444             10.797276            -1.331065
| 14>   H                      1.394443             11.678209            -3.848719
| 15>   H                      2.332418             11.683921            -2.407907
| 16>   H                      1.728114             10.183127            -2.905787
| 17>   C                      -1.804028            9.062981             -1.684498
| 18>   O                      -1.185827            8.137430             -0.790392
| 19>   H                      -0.857489            8.554327             0.021385
| 20>   H                      -1.514621            8.858486             -2.740619
| 21>   H                      -2.837264            8.982155             -1.610011
| 22>   H                      -1.602605            10.074410            -1.308795
| 23> *
| 24>
| 25> #Run DFT-D3 single point of the molecule with dimer basis set
| 26> $new_job
| 27> %base "21-125_DFT_A"
| 28> ! wB97X-D3 def2-TZVP TIGHTSCF CHELPG PMODEL
| 29>
| 30> %scf
| 31> MaxIter 1000
| 32> end
| 33>
| 34> * xyz 0 1
| 35>   C                      1.481568             11.224175            -2.803278
| 36>   O                      0.321357             11.451695            -2.041558
| 37>   H                      0.369444             10.797276            -1.331065
| 38>   H                      1.394443             11.678209            -3.848719
| 39>   H                      2.332418             11.683921            -2.407907
| 40>   H                      1.728114             10.183127            -2.905787
| 41>   C                    : -1.804028            9.062981             -1.684498
| 42>   O                    : -1.185827            8.137430             -0.790392
| 43>   H                    : -0.857489            8.554327             0.021385
| 44>   H                    : -1.514621            8.858486             -2.740619
| 45>   H                    : -2.837264            8.982155             -1.610011
| 46>   H                    : -1.602605            10.074410            -1.308795
| 47> *
| 48>
| 49> #Run DFT-D3 single point of the particle with dimer basis set
| 50> $new_job
| 51> %base "21-125_DFT_B"
| 52> ! wB97X-D3 def2-TZVP TIGHTSCF CHELPG PMODEL
| 53>
| 54> %scf
| 55> MaxIter 1000
| 56> end
| 57>
| 58> * xyz 0 1
| 59>   C                    : 1.481568             11.224175            -2.803278
| 60>   O                    : 0.321357             11.451695            -2.041558
| 61>   H                    : 0.369444             10.797276            -1.331065
| 62>   H                    : 1.394443             11.678209            -3.848719
| 63>   H                    : 2.332418             11.683921            -2.407907
| 64>   H                    : 1.728114             10.183127            -2.905787
| 65>   C                      -1.804028            9.062981             -1.684498
| 66>   O                      -1.185827            8.137430             -0.790392
| 67>   H                      -0.857489            8.554327             0.021385
| 68>   H                      -1.514621            8.858486             -2.740619
| 69>   H                      -2.837264            8.982155             -1.610011
| 70>   H                      -1.602605            10.074410            -1.308795
| 71> *
| 72>
| 73>                          ****END OF INPUT****
 Total Charge           Charge          ....    0
 Multiplicity           Mult            ....    1
 Number of Electrons    NEL             ....   36
Dispersion correction           -0.001868191
FINAL SINGLE POINT ENERGY      -231.462027867924
Dispersion correction           -0.000233290
FINAL SINGLE POINT ENERGY      -115.732518831611

CARTESIAN COORDINATES (ANGSTROEM)
---------------------------------
  C      1.481568   11.224175   -2.803278
  O      0.321357   11.451695   -2.041558
  H      0.369444   10.797276   -1.331065
  H      1.394443   11.678209   -3.848719
  H      2.332418   11.683921   -2.407907
  H      1.728114   10.183127   -2.905787
  C     -1.804028    9.062981   -1.684498
  O     -1.185827    8.137430   -0.790392
  H     -0.857489    8.554327    0.021385
  H     -1.514621    8.858486   -2.740619
  H     -2.837264    8.982155   -1.610011
  H     -1.602605   10.074410   -1.308795

 Multiplicity           Mult            ....    1
 Number of Electrons    NEL             ....   18
 Basis Dimension        Dim             ....  172

ORBITAL ENERGIES
----------------

  NO   OCC          E(Eh)            E(eV)
   0   2.0000     -19.225502      -523.1525
   1   2.0000     -10.311557      -280.5917
   2   2.0000      -1.125388       -30.6234
   3   2.0000      -0.799399       -21.7528
   4   2.0000      -0.608427       -16.5561
   5   2.0000      -0.537438       -14.6244
   6   2.0000      -0.533800       -14.5254
   7   2.0000      -0.426564       -11.6074
   8   2.0000      -0.370482       -10.0813
   9   0.0000       0.084232         2.2921
  10   0.0000       0.116628         3.1736
  11   0.0000       0.153899         4.1878
  12   0.0000       0.171652         4.6709
  13   0.0000       0.195545         5.3211

MULLIKEN ATOMIC CHARGES
-----------------------
   0 C :   -0.000976
   1 O :   -0.000796
   2 H :   -0.000039
   3 H :    0.000096
   4 H :    0.000031
   5 H :   -0.000011
   6 C :   -0.152496
   7 O :   -0.495314
   8 H :    0.319394
   9 H :    0.112807
  10 H :    0.118446
  11 H :    0.098858
Sum of atomic charges:    0.0000000

LOEWDIN ATOMIC CHARGES
----------------------
   0 C :   -0.001328
   1 O :   -0.007289
   2 H :   -0.008312
   3 H :   -0.000027
   4 H :   -0.000016
   5 H :   -0.000148
   6 C :   -0.358748
   7 O :   -0.097091
   8 H :    0.171747
   9 H :    0.111067
  10 H :    0.085403
  11 H :    0.104744

  Mayer bond orders larger than 0.1
B(  6-C ,  7-O ) :   0.9907 B(  6-C ,  9-H ) :   0.9743 B(  6-C , 10-H ) :   0.9754
B(  6-C , 11-H ) :   0.9908 B(  7-O ,  8-H ) :   0.8952

Dispersion correction           -0.000245119
FINAL SINGLE POINT ENERGY      -115.730104367603

DIPOLE MOMENT
-------------
                                X             Y             Z
Electronic contribution:      0.75093      -1.24277       0.93976
Nuclear contribution   :     -0.82254       1.90566      -0.76715
                        -----------------------------------------
Total Dipole Moment    :     -0.07161       0.66289       0.17261
                        -----------------------------------------
Magnitude (a.u.)       :      0.68873
Magnitude (Debye)      :      1.75061

Rotational constants in cm-1:     4.353536     0.825151     0.784574
Rotational constants in MHz : 130515.719426 24737.410517 23520.933872

                             ****ORCA TERMINATED NORMALLY****
TOTAL RUN TIME: 0 days 0 hours 1 minutes 2 seconds 151 msec
