                         Program Version 4.1.2  - RELEASE  -
|  1> #Run DFT-D3 single point of the dimer
|  2> ! wB97X-D3 def2-TZVP TIGHTSCF CHELPG PMODEL PAL8
|  3>
|  4> %base "16-63_DFT_AB"
|  5>
|  6> %scf
|  7> MaxIter 1000
|  8> end
|  9>
| 10> * xyz 0 1
| 11>   C                      8.058946             -9.033042            0.461038
| 12>   O                      8.872390             -8.090761            1.090432
| 13>   H                      8.823240             -8.265778            1.999192
| 14>   H                      7.747471             -8.809037            -0.550858
| 15>   H                      8.601848             -9.949009            0.269711
| 16>   H                      7.118040             -9.192842            0.968932
| 17>   C                      6.922900             -5.556759            0.074989
| 18>   O                      8.298759             -5.505430            0.194279
| 19>   H                      8.562982             -6.410591            0.330391
| 20>   H                      6.585637             -5.093060            -0.834594
| 21>   H                      6.477739             -6.565026            0.095750
| 22>   H                      6.474502             -4.883424            0.848829
| 23> *
| 24>
| 25> #Run DFT-D3 single point of the molecule with dimer basis set
| 26> $new_job
| 27> %base "16-63_DFT_A"
| 28> ! wB97X-D3 def2-TZVP TIGHTSCF CHELPG PMODEL
| 29>
| 30> %scf
| 31> MaxIter 1000
| 32> end
| 33>
| 34> * xyz 0 1
| 35>   C                      8.058946             -9.033042            0.461038
| 36>   O                      8.872390             -8.090761            1.090432
| 37>   H                      8.823240             -8.265778            1.999192
| 38>   H                      7.747471             -8.809037            -0.550858
| 39>   H                      8.601848             -9.949009            0.269711
| 40>   H                      7.118040             -9.192842            0.968932
| 41>   C                    : 6.922900             -5.556759            0.074989
| 42>   O                    : 8.298759             -5.505430            0.194279
| 43>   H                    : 8.562982             -6.410591            0.330391
| 44>   H                    : 6.585637             -5.093060            -0.834594
| 45>   H                    : 6.477739             -6.565026            0.095750
| 46>   H                    : 6.474502             -4.883424            0.848829
| 47> *
| 48>
| 49> #Run DFT-D3 single point of the particle with dimer basis set
| 50> $new_job
| 51> %base "16-63_DFT_B"
| 52> ! wB97X-D3 def2-TZVP TIGHTSCF CHELPG PMODEL
| 53>
| 54> %scf
| 55> MaxIter 1000
| 56> end
| 57>
| 58> * xyz 0 1
| 59>   C                    : 8.058946             -9.033042            0.461038
| 60>   O                    : 8.872390             -8.090761            1.090432
| 61>   H                    : 8.823240             -8.265778            1.999192
| 62>   H                    : 7.747471             -8.809037            -0.550858
| 63>   H                    : 8.601848             -9.949009            0.269711
| 64>   H                    : 7.118040             -9.192842            0.968932
| 65>   C                      6.922900             -5.556759            0.074989
| 66>   O                      8.298759             -5.505430            0.194279
| 67>   H                      8.562982             -6.410591            0.330391
| 68>   H                      6.585637             -5.093060            -0.834594
| 69>   H                      6.477739             -6.565026            0.095750
| 70>   H                      6.474502             -4.883424            0.848829
| 71> *
| 72>
| 73>                          ****END OF INPUT****
 Total Charge           Charge          ....    0
 Multiplicity           Mult            ....    1
 Number of Electrons    NEL             ....   36
Dispersion correction           -0.002175305
FINAL SINGLE POINT ENERGY      -231.471317738613
Dispersion correction           -0.000234318
FINAL SINGLE POINT ENERGY      -115.731148136674

CARTESIAN COORDINATES (ANGSTROEM)
---------------------------------
  C      8.058946   -9.033042    0.461038
  O      8.872390   -8.090761    1.090432
  H      8.823240   -8.265778    1.999192
  H      7.747471   -8.809037   -0.550858
  H      8.601848   -9.949009    0.269711
  H      7.118040   -9.192842    0.968932
  C      6.922900   -5.556759    0.074989
  O      8.298759   -5.505430    0.194279
  H      8.562982   -6.410591    0.330391
  H      6.585637   -5.093060   -0.834594
  H      6.477739   -6.565026    0.095750
  H      6.474502   -4.883424    0.848829

 Multiplicity           Mult            ....    1
 Number of Electrons    NEL             ....   18
 Basis Dimension        Dim             ....  172

ORBITAL ENERGIES
----------------

  NO   OCC          E(Eh)            E(eV)
   0   2.0000     -19.232702      -523.3484
   1   2.0000     -10.311088      -280.5790
   2   2.0000      -1.151705       -31.3395
   3   2.0000      -0.793565       -21.5940
   4   2.0000      -0.620743       -16.8913
   5   2.0000      -0.537391       -14.6232
   6   2.0000      -0.534071       -14.5328
   7   2.0000      -0.441700       -12.0193
   8   2.0000      -0.368482       -10.0269
   9   0.0000       0.066523         1.8102
  10   0.0000       0.141733         3.8568
  11   0.0000       0.147376         4.0103
  12   0.0000       0.164190         4.4678
  13   0.0000       0.182964         4.9787

MULLIKEN ATOMIC CHARGES
-----------------------
   0 C :   -0.002602
   1 O :   -0.005283
   2 H :   -0.000551
   3 H :    0.000612
   4 H :   -0.000051
   5 H :   -0.000089
   6 C :   -0.172822
   7 O :   -0.446725
   8 H :    0.315583
   9 H :    0.105148
  10 H :    0.103587
  11 H :    0.103193
Sum of atomic charges:   -0.0000000

LOEWDIN ATOMIC CHARGES
----------------------
   0 C :   -0.010309
   1 O :   -0.022991
   2 H :   -0.001710
   3 H :   -0.001527
   4 H :   -0.000094
   5 H :   -0.000758
   6 C :   -0.411773
   7 O :   -0.031735
   8 H :    0.180348
   9 H :    0.094568
  10 H :    0.101520
  11 H :    0.104462

  Mayer bond orders larger than 0.1
B(  6-C ,  7-O ) :   1.0020 B(  6-C ,  9-H ) :   0.9789 B(  6-C , 10-H ) :   0.9759
B(  6-C , 11-H ) :   0.9819 B(  7-O ,  8-H ) :   0.9108

Dispersion correction           -0.000237837
FINAL SINGLE POINT ENERGY      -115.732421726533

DIPOLE MOMENT
-------------
                                X             Y             Z
Electronic contribution:      1.89872       0.08909       0.12968
Nuclear contribution   :     -2.23241      -0.69010      -0.10754
                        -----------------------------------------
Total Dipole Moment    :     -0.33369      -0.60101       0.02214
                        -----------------------------------------
Magnitude (a.u.)       :      0.68779
Magnitude (Debye)      :      1.74823

Rotational constants in cm-1:     4.302691     0.867681     0.824541
Rotational constants in MHz : 128991.430423 26012.413004 24719.119620

                             ****ORCA TERMINATED NORMALLY****
TOTAL RUN TIME: 0 days 0 hours 1 minutes 4 seconds 806 msec
