                         Program Version 4.1.2  - RELEASE  -
|  1> #Run DFT-D3 single point of the dimer
|  2> ! wB97X-D3 def2-TZVP TIGHTSCF CHELPG PMODEL PAL8
|  3>
|  4> %base "22-13_DFT_AB"
|  5>
|  6> %scf
|  7> MaxIter 1000
|  8> end
|  9>
| 10> * xyz 0 1
| 11>   C                      -0.723120            -11.332098           -10.399083
| 12>   O                      -0.595115            -10.311008           -11.360115
| 13>   H                      -0.463579            -9.482378            -10.877371
| 14>   H                      0.148518             -11.591512           -9.878581
| 15>   H                      -1.510318            -11.025015           -9.697890
| 16>   H                      -1.046432            -12.280679           -10.870928
| 17>   C                      0.020977             -8.070914            -8.154523
| 18>   O                      0.457446             -8.283626            -9.449823
| 19>   H                      1.273270             -7.862219            -9.523686
| 20>   H                      0.312577             -7.029594            -7.966081
| 21>   H                      -1.111446            -8.179136            -8.045517
| 22>   H                      0.450601             -8.691300            -7.372302
| 23> *
| 24>
| 25> #Run DFT-D3 single point of the molecule with dimer basis set
| 26> $new_job
| 27> %base "22-13_DFT_A"
| 28> ! wB97X-D3 def2-TZVP TIGHTSCF CHELPG PMODEL
| 29>
| 30> %scf
| 31> MaxIter 1000
| 32> end
| 33>
| 34> * xyz 0 1
| 35>   C                      -0.723120            -11.332098           -10.399083
| 36>   O                      -0.595115            -10.311008           -11.360115
| 37>   H                      -0.463579            -9.482378            -10.877371
| 38>   H                      0.148518             -11.591512           -9.878581
| 39>   H                      -1.510318            -11.025015           -9.697890
| 40>   H                      -1.046432            -12.280679           -10.870928
| 41>   C                    : 0.020977             -8.070914            -8.154523
| 42>   O                    : 0.457446             -8.283626            -9.449823
| 43>   H                    : 1.273270             -7.862219            -9.523686
| 44>   H                    : 0.312577             -7.029594            -7.966081
| 45>   H                    : -1.111446            -8.179136            -8.045517
| 46>   H                    : 0.450601             -8.691300            -7.372302
| 47> *
| 48>
| 49> #Run DFT-D3 single point of the particle with dimer basis set
| 50> $new_job
| 51> %base "22-13_DFT_B"
| 52> ! wB97X-D3 def2-TZVP TIGHTSCF CHELPG PMODEL
| 53>
| 54> %scf
| 55> MaxIter 1000
| 56> end
| 57>
| 58> * xyz 0 1
| 59>   C                    : -0.723120            -11.332098           -10.399083
| 60>   O                    : -0.595115            -10.311008           -11.360115
| 61>   H                    : -0.463579            -9.482378            -10.877371
| 62>   H                    : 0.148518             -11.591512           -9.878581
| 63>   H                    : -1.510318            -11.025015           -9.697890
| 64>   H                    : -1.046432            -12.280679           -10.870928
| 65>   C                      0.020977             -8.070914            -8.154523
| 66>   O                      0.457446             -8.283626            -9.449823
| 67>   H                      1.273270             -7.862219            -9.523686
| 68>   H                      0.312577             -7.029594            -7.966081
| 69>   H                      -1.111446            -8.179136            -8.045517
| 70>   H                      0.450601             -8.691300            -7.372302
| 71> *
| 72>
| 73>                          ****END OF INPUT****
 Total Charge           Charge          ....    0
 Multiplicity           Mult            ....    1
 Number of Electrons    NEL             ....   36
Dispersion correction           -0.001909039
FINAL SINGLE POINT ENERGY      -231.470918010865
Dispersion correction           -0.000231315
FINAL SINGLE POINT ENERGY      -115.734096918455

CARTESIAN COORDINATES (ANGSTROEM)
---------------------------------
  C     -0.723120  -11.332098  -10.399083
  O     -0.595115  -10.311008  -11.360115
  H     -0.463579   -9.482378  -10.877371
  H      0.148518  -11.591512   -9.878581
  H     -1.510318  -11.025015   -9.697890
  H     -1.046432  -12.280679  -10.870928
  C      0.020977   -8.070914   -8.154523
  O      0.457446   -8.283626   -9.449823
  H      1.273270   -7.862219   -9.523686
  H      0.312577   -7.029594   -7.966081
  H     -1.111446   -8.179136   -8.045517
  H      0.450601   -8.691300   -7.372302

 Multiplicity           Mult            ....    1
 Number of Electrons    NEL             ....   18
 Basis Dimension        Dim             ....  172

ORBITAL ENERGIES
----------------

  NO   OCC          E(Eh)            E(eV)
   0   2.0000     -19.228372      -523.2306
   1   2.0000     -10.316371      -280.7227
   2   2.0000      -1.157366       -31.4935
   3   2.0000      -0.793738       -21.5987
   4   2.0000      -0.622523       -16.9397
   5   2.0000      -0.550851       -14.9894
   6   2.0000      -0.530289       -14.4299
   7   2.0000      -0.429581       -11.6895
   8   2.0000      -0.373391       -10.1605
   9   0.0000       0.097821         2.6619
  10   0.0000       0.127758         3.4765
  11   0.0000       0.152741         4.1563
  12   0.0000       0.184807         5.0289
  13   0.0000       0.199777         5.4362

MULLIKEN ATOMIC CHARGES
-----------------------
   0 C :    0.003525
   1 O :    0.000752
   2 H :   -0.009734
   3 H :   -0.003474
   4 H :   -0.000934
   5 H :   -0.000213
   6 C :   -0.157555
   7 O :   -0.448000
   8 H :    0.307060
   9 H :    0.094861
  10 H :    0.115557
  11 H :    0.098153
Sum of atomic charges:   -0.0000000

LOEWDIN ATOMIC CHARGES
----------------------
   0 C :   -0.005742
   1 O :   -0.003936
   2 H :   -0.030732
   3 H :   -0.001170
   4 H :   -0.000394
   5 H :   -0.000083
   6 C :   -0.407880
   7 O :   -0.002686
   8 H :    0.148044
   9 H :    0.098562
  10 H :    0.116150
  11 H :    0.089865

  Mayer bond orders larger than 0.1
B(  6-C ,  7-O ) :   0.9948 B(  6-C ,  9-H ) :   0.9934 B(  6-C , 10-H ) :   0.9749
B(  6-C , 11-H ) :   0.9623 B(  7-O ,  8-H ) :   0.9063

Dispersion correction           -0.000224519
FINAL SINGLE POINT ENERGY      -115.729101580663

DIPOLE MOMENT
-------------
                                X             Y             Z
Electronic contribution:      0.49936      -0.45338      -1.73748
Nuclear contribution   :     -0.12521       0.82437       2.18023
                        -----------------------------------------
Total Dipole Moment    :      0.37415       0.37099       0.44275
                        -----------------------------------------
Magnitude (a.u.)       :      0.68822
Magnitude (Debye)      :      1.74933

Rotational constants in cm-1:     4.310384     0.863693     0.827904
Rotational constants in MHz : 129222.051400 25892.865274 24819.929860

                             ****ORCA TERMINATED NORMALLY****
TOTAL RUN TIME: 0 days 0 hours 1 minutes 7 seconds 457 msec
