                         Program Version 4.1.2  - RELEASE  -
|  1> #Run DFT-D3 single point of the dimer
|  2> ! wB97X-D3 def2-TZVP TIGHTSCF CHELPG PMODEL PAL8
|  3>
|  4> %base "20-21_DFT_AB"
|  5>
|  6> %scf
|  7> MaxIter 1000
|  8> end
|  9>
| 10> * xyz 0 1
| 11>   C                      7.022081             -8.326697            9.853911
| 12>   O                      7.322670             -8.141552            11.271273
| 13>   H                      6.715127             -8.811474            11.650271
| 14>   H                      7.204798             -7.429468            9.312744
| 15>   H                      7.707695             -9.087207            9.380179
| 16>   H                      5.996552             -8.662078            9.599881
| 17>   C                      11.218378            -9.107412            7.618179
| 18>   O                      10.746527            -9.380473            6.350098
| 19>   H                      11.379990            -8.963582            5.761786
| 20>   H                      11.897932            -8.268738            7.736445
| 21>   H                      10.316205            -8.880650            8.214575
| 22>   H                      11.735110            -9.956797            8.001080
| 23> *
| 24>
| 25> #Run DFT-D3 single point of the molecule with dimer basis set
| 26> $new_job
| 27> %base "20-21_DFT_A"
| 28> ! wB97X-D3 def2-TZVP TIGHTSCF CHELPG PMODEL
| 29>
| 30> %scf
| 31> MaxIter 1000
| 32> end
| 33>
| 34> * xyz 0 1
| 35>   C                      7.022081             -8.326697            9.853911
| 36>   O                      7.322670             -8.141552            11.271273
| 37>   H                      6.715127             -8.811474            11.650271
| 38>   H                      7.204798             -7.429468            9.312744
| 39>   H                      7.707695             -9.087207            9.380179
| 40>   H                      5.996552             -8.662078            9.599881
| 41>   C                    : 11.218378            -9.107412            7.618179
| 42>   O                    : 10.746527            -9.380473            6.350098
| 43>   H                    : 11.379990            -8.963582            5.761786
| 44>   H                    : 11.897932            -8.268738            7.736445
| 45>   H                    : 10.316205            -8.880650            8.214575
| 46>   H                    : 11.735110            -9.956797            8.001080
| 47> *
| 48>
| 49> #Run DFT-D3 single point of the particle with dimer basis set
| 50> $new_job
| 51> %base "20-21_DFT_B"
| 52> ! wB97X-D3 def2-TZVP TIGHTSCF CHELPG PMODEL
| 53>
| 54> %scf
| 55> MaxIter 1000
| 56> end
| 57>
| 58> * xyz 0 1
| 59>   C                    : 7.022081             -8.326697            9.853911
| 60>   O                    : 7.322670             -8.141552            11.271273
| 61>   H                    : 6.715127             -8.811474            11.650271
| 62>   H                    : 7.204798             -7.429468            9.312744
| 63>   H                    : 7.707695             -9.087207            9.380179
| 64>   H                    : 5.996552             -8.662078            9.599881
| 65>   C                      11.218378            -9.107412            7.618179
| 66>   O                      10.746527            -9.380473            6.350098
| 67>   H                      11.379990            -8.963582            5.761786
| 68>   H                      11.897932            -8.268738            7.736445
| 69>   H                      10.316205            -8.880650            8.214575
| 70>   H                      11.735110            -9.956797            8.001080
| 71> *
| 72>
| 73>                          ****END OF INPUT****
 Total Charge           Charge          ....    0
 Multiplicity           Mult            ....    1
 Number of Electrons    NEL             ....   36
Dispersion correction           -0.000946764
FINAL SINGLE POINT ENERGY      -231.463384708589
Dispersion correction           -0.000267013
FINAL SINGLE POINT ENERGY      -115.730408479556

CARTESIAN COORDINATES (ANGSTROEM)
---------------------------------
  C      7.022081   -8.326697    9.853911
  O      7.322670   -8.141552   11.271273
  H      6.715127   -8.811474   11.650271
  H      7.204798   -7.429468    9.312744
  H      7.707695   -9.087207    9.380179
  H      5.996552   -8.662078    9.599881
  C     11.218378   -9.107412    7.618179
  O     10.746527   -9.380473    6.350098
  H     11.379990   -8.963582    5.761786
  H     11.897932   -8.268738    7.736445
  H     10.316205   -8.880650    8.214575
  H     11.735110   -9.956797    8.001080

 Multiplicity           Mult            ....    1
 Number of Electrons    NEL             ....   18
 Basis Dimension        Dim             ....  172

ORBITAL ENERGIES
----------------

  NO   OCC          E(Eh)            E(eV)
   0   2.0000     -19.230032      -523.2758
   1   2.0000     -10.305421      -280.4248
   2   2.0000      -1.149437       -31.2778
   3   2.0000      -0.793797       -21.6003
   4   2.0000      -0.621230       -16.9045
   5   2.0000      -0.550219       -14.9722
   6   2.0000      -0.522025       -14.2050
   7   2.0000      -0.437200       -11.8968
   8   2.0000      -0.371590       -10.1115
   9   0.0000       0.088850         2.4177
  10   0.0000       0.116045         3.1577
  11   0.0000       0.155363         4.2276
  12   0.0000       0.169267         4.6060
  13   0.0000       0.188371         5.1258

MULLIKEN ATOMIC CHARGES
-----------------------
   0 C :   -0.001051
   1 O :    0.000038
   2 H :    0.000013
   3 H :   -0.000004
   4 H :    0.001545
   5 H :    0.000032
   6 C :   -0.170349
   7 O :   -0.458114
   8 H :    0.313918
   9 H :    0.102811
  10 H :    0.109829
  11 H :    0.101331
Sum of atomic charges:    0.0000000

LOEWDIN ATOMIC CHARGES
----------------------
   0 C :   -0.000859
   1 O :   -0.000004
   2 H :   -0.000000
   3 H :   -0.000082
   4 H :   -0.001085
   5 H :   -0.000005
   6 C :   -0.412716
   7 O :   -0.050411
   8 H :    0.172959
   9 H :    0.092931
  10 H :    0.109273
  11 H :    0.089998

  Mayer bond orders larger than 0.1
B(  6-C ,  7-O ) :   1.0128 B(  6-C ,  9-H ) :   0.9790 B(  6-C , 10-H ) :   0.9779
B(  6-C , 11-H ) :   0.9778 B(  7-O ,  8-H ) :   0.9027

Dispersion correction           -0.000222022
FINAL SINGLE POINT ENERGY      -115.732157592406

DIPOLE MOMENT
-------------
                                X             Y             Z
Electronic contribution:     -0.66677      -0.42116      -1.66139
Nuclear contribution   :      1.25419       0.80461       1.74473
                        -----------------------------------------
Total Dipole Moment    :      0.58741       0.38345       0.08334
                        -----------------------------------------
Magnitude (a.u.)       :      0.70642
Magnitude (Debye)      :      1.79559

Rotational constants in cm-1:     4.320962     0.872039     0.838871
Rotational constants in MHz : 129539.185087 26143.071257 25148.729925

                             ****ORCA TERMINATED NORMALLY****
TOTAL RUN TIME: 0 days 0 hours 0 minutes 51 seconds 620 msec
