                         Program Version 4.1.2  - RELEASE  -
|  1> #Run DFT-D3 single point of the dimer
|  2> ! wB97X-D3 def2-TZVP TIGHTSCF CHELPG PMODEL PAL8
|  3>
|  4> %base "18-195_DFT_AB"
|  5>
|  6> %scf
|  7> MaxIter 1000
|  8> end
|  9>
| 10> * xyz 0 1
| 11>   C                      -5.155608            4.448761             6.495203
| 12>   O                      -4.963587            4.813747             5.143795
| 13>   H                      -4.164699            5.306233             4.967387
| 14>   H                      -5.003782            5.333135             7.120820
| 15>   H                      -6.091171            3.966939             6.766882
| 16>   H                      -4.363425            3.691716             6.857259
| 17>   C                      -1.590801            5.259536             5.444712
| 18>   O                      -2.579005            6.075560             5.969634
| 19>   H                      -2.371255            6.166465             6.898647
| 20>   H                      -0.617165            5.294617             6.040935
| 21>   H                      -1.920685            4.210477             5.363840
| 22>   H                      -1.254184            5.604891             4.450927
| 23> *
| 24>
| 25> #Run DFT-D3 single point of the molecule with dimer basis set
| 26> $new_job
| 27> %base "18-195_DFT_A"
| 28> ! wB97X-D3 def2-TZVP TIGHTSCF CHELPG PMODEL
| 29>
| 30> %scf
| 31> MaxIter 1000
| 32> end
| 33>
| 34> * xyz 0 1
| 35>   C                      -5.155608            4.448761             6.495203
| 36>   O                      -4.963587            4.813747             5.143795
| 37>   H                      -4.164699            5.306233             4.967387
| 38>   H                      -5.003782            5.333135             7.120820
| 39>   H                      -6.091171            3.966939             6.766882
| 40>   H                      -4.363425            3.691716             6.857259
| 41>   C                    : -1.590801            5.259536             5.444712
| 42>   O                    : -2.579005            6.075560             5.969634
| 43>   H                    : -2.371255            6.166465             6.898647
| 44>   H                    : -0.617165            5.294617             6.040935
| 45>   H                    : -1.920685            4.210477             5.363840
| 46>   H                    : -1.254184            5.604891             4.450927
| 47> *
| 48>
| 49> #Run DFT-D3 single point of the particle with dimer basis set
| 50> $new_job
| 51> %base "18-195_DFT_B"
| 52> ! wB97X-D3 def2-TZVP TIGHTSCF CHELPG PMODEL
| 53>
| 54> %scf
| 55> MaxIter 1000
| 56> end
| 57>
| 58> * xyz 0 1
| 59>   C                    : -5.155608            4.448761             6.495203
| 60>   O                    : -4.963587            4.813747             5.143795
| 61>   H                    : -4.164699            5.306233             4.967387
| 62>   H                    : -5.003782            5.333135             7.120820
| 63>   H                    : -6.091171            3.966939             6.766882
| 64>   H                    : -4.363425            3.691716             6.857259
| 65>   C                      -1.590801            5.259536             5.444712
| 66>   O                      -2.579005            6.075560             5.969634
| 67>   H                      -2.371255            6.166465             6.898647
| 68>   H                      -0.617165            5.294617             6.040935
| 69>   H                      -1.920685            4.210477             5.363840
| 70>   H                      -1.254184            5.604891             4.450927
| 71> *
| 72>
| 73>                          ****END OF INPUT****
 Total Charge           Charge          ....    0
 Multiplicity           Mult            ....    1
 Number of Electrons    NEL             ....   36
Dispersion correction           -0.002368198
FINAL SINGLE POINT ENERGY      -231.469212846271
Dispersion correction           -0.000265467
FINAL SINGLE POINT ENERGY      -115.730358651116

CARTESIAN COORDINATES (ANGSTROEM)
---------------------------------
  C     -5.155608    4.448761    6.495203
  O     -4.963587    4.813747    5.143795
  H     -4.164699    5.306233    4.967387
  H     -5.003782    5.333135    7.120820
  H     -6.091171    3.966939    6.766882
  H     -4.363425    3.691716    6.857259
  C     -1.590801    5.259536    5.444712
  O     -2.579005    6.075560    5.969634
  H     -2.371255    6.166465    6.898647
  H     -0.617165    5.294617    6.040935
  H     -1.920685    4.210477    5.363840
  H     -1.254184    5.604891    4.450927

 Multiplicity           Mult            ....    1
 Number of Electrons    NEL             ....   18
 Basis Dimension        Dim             ....  172

ORBITAL ENERGIES
----------------

  NO   OCC          E(Eh)            E(eV)
   0   2.0000     -19.234402      -523.3947
   1   2.0000     -10.318407      -280.7781
   2   2.0000      -1.150431       -31.3048
   3   2.0000      -0.790008       -21.4972
   4   2.0000      -0.616735       -16.7822
   5   2.0000      -0.546794       -14.8790
   6   2.0000      -0.529134       -14.3985
   7   2.0000      -0.428605       -11.6629
   8   2.0000      -0.376012       -10.2318
   9   0.0000       0.093257         2.5377
  10   0.0000       0.129958         3.5363
  11   0.0000       0.149241         4.0611
  12   0.0000       0.184934         5.0323
  13   0.0000       0.187758         5.1092

MULLIKEN ATOMIC CHARGES
-----------------------
   0 C :   -0.001276
   1 O :    0.002418
   2 H :   -0.000952
   3 H :   -0.006275
   4 H :   -0.000863
   5 H :   -0.002047
   6 C :   -0.171422
   7 O :   -0.455198
   8 H :    0.319598
   9 H :    0.099966
  10 H :    0.106044
  11 H :    0.110007
Sum of atomic charges:   -0.0000000

LOEWDIN ATOMIC CHARGES
----------------------
   0 C :   -0.015356
   1 O :   -0.005883
   2 H :   -0.027434
   3 H :   -0.004799
   4 H :   -0.000223
   5 H :   -0.001467
   6 C :   -0.414399
   7 O :   -0.010788
   8 H :    0.173984
   9 H :    0.104052
  10 H :    0.097580
  11 H :    0.104731

  Mayer bond orders larger than 0.1
B(  6-C ,  7-O ) :   1.0037 B(  6-C ,  9-H ) :   0.9794 B(  6-C , 10-H ) :   0.9729
B(  6-C , 11-H ) :   0.9761 B(  7-O ,  8-H ) :   0.8968

Dispersion correction           -0.000244111
FINAL SINGLE POINT ENERGY      -115.733939720421

DIPOLE MOMENT
-------------
                                X             Y             Z
Electronic contribution:     -1.49146       1.11233       0.57554
Nuclear contribution   :      2.00822      -1.32767      -0.18012
                        -----------------------------------------
Total Dipole Moment    :      0.51675      -0.21534       0.39542
                        -----------------------------------------
Magnitude (a.u.)       :      0.68539
Magnitude (Debye)      :      1.74213

Rotational constants in cm-1:     4.206399     0.849932     0.822954
Rotational constants in MHz : 126104.664016 25480.334490 24671.532083

                             ****ORCA TERMINATED NORMALLY****
TOTAL RUN TIME: 0 days 0 hours 1 minutes 5 seconds 441 msec
