                         Program Version 4.1.2  - RELEASE  -
|  1> #Run DFT-D3 single point of the dimer
|  2> ! wB97X-D3 def2-TZVP TIGHTSCF CHELPG PMODEL PAL8
|  3>
|  4> %base "9-177_DFT_AB"
|  5>
|  6> %scf
|  7> MaxIter 1000
|  8> end
|  9>
| 10> * xyz 0 1
| 11>   C                      -3.049772            3.971039             1.999479
| 12>   O                      -4.150856            4.440409             2.744925
| 13>   H                      -4.224266            5.375310             2.680488
| 14>   H                      -3.204653            2.957929             1.505377
| 15>   H                      -2.924149            4.441856             1.049381
| 16>   H                      -2.092798            4.019810             2.500846
| 17>   C                      -4.842045            7.838323             1.272649
| 18>   O                      -4.123788            7.309092             2.305676
| 19>   H                      -3.199384            7.520210             2.117756
| 20>   H                      -5.833426            7.371464             1.154109
| 21>   H                      -4.977565            8.933817             1.339982
| 22>   H                      -4.219223            7.709401             0.386398
| 23> *
| 24>
| 25> #Run DFT-D3 single point of the molecule with dimer basis set
| 26> $new_job
| 27> %base "9-177_DFT_A"
| 28> ! wB97X-D3 def2-TZVP TIGHTSCF CHELPG PMODEL
| 29>
| 30> %scf
| 31> MaxIter 1000
| 32> end
| 33>
| 34> * xyz 0 1
| 35>   C                      -3.049772            3.971039             1.999479
| 36>   O                      -4.150856            4.440409             2.744925
| 37>   H                      -4.224266            5.375310             2.680488
| 38>   H                      -3.204653            2.957929             1.505377
| 39>   H                      -2.924149            4.441856             1.049381
| 40>   H                      -2.092798            4.019810             2.500846
| 41>   C                    : -4.842045            7.838323             1.272649
| 42>   O                    : -4.123788            7.309092             2.305676
| 43>   H                    : -3.199384            7.520210             2.117756
| 44>   H                    : -5.833426            7.371464             1.154109
| 45>   H                    : -4.977565            8.933817             1.339982
| 46>   H                    : -4.219223            7.709401             0.386398
| 47> *
| 48>
| 49> #Run DFT-D3 single point of the particle with dimer basis set
| 50> $new_job
| 51> %base "9-177_DFT_B"
| 52> ! wB97X-D3 def2-TZVP TIGHTSCF CHELPG PMODEL
| 53>
| 54> %scf
| 55> MaxIter 1000
| 56> end
| 57>
| 58> * xyz 0 1
| 59>   C                    : -3.049772            3.971039             1.999479
| 60>   O                    : -4.150856            4.440409             2.744925
| 61>   H                    : -4.224266            5.375310             2.680488
| 62>   H                    : -3.204653            2.957929             1.505377
| 63>   H                    : -2.924149            4.441856             1.049381
| 64>   H                    : -2.092798            4.019810             2.500846
| 65>   C                      -4.842045            7.838323             1.272649
| 66>   O                      -4.123788            7.309092             2.305676
| 67>   H                      -3.199384            7.520210             2.117756
| 68>   H                      -5.833426            7.371464             1.154109
| 69>   H                      -4.977565            8.933817             1.339982
| 70>   H                      -4.219223            7.709401             0.386398
| 71> *
| 72>
| 73>                          ****END OF INPUT****
 Total Charge           Charge          ....    0
 Multiplicity           Mult            ....    1
 Number of Electrons    NEL             ....   36
Dispersion correction           -0.001868494
FINAL SINGLE POINT ENERGY      -231.466704246061
Dispersion correction           -0.000267579
FINAL SINGLE POINT ENERGY      -115.726926628744

CARTESIAN COORDINATES (ANGSTROEM)
---------------------------------
  C     -3.049772    3.971039    1.999479
  O     -4.150856    4.440409    2.744925
  H     -4.224266    5.375310    2.680488
  H     -3.204653    2.957929    1.505377
  H     -2.924149    4.441856    1.049381
  H     -2.092798    4.019810    2.500846
  C     -4.842045    7.838323    1.272649
  O     -4.123788    7.309092    2.305676
  H     -3.199384    7.520210    2.117756
  H     -5.833426    7.371464    1.154109
  H     -4.977565    8.933817    1.339982
  H     -4.219223    7.709401    0.386398

 Multiplicity           Mult            ....    1
 Number of Electrons    NEL             ....   18
 Basis Dimension        Dim             ....  172

ORBITAL ENERGIES
----------------

  NO   OCC          E(Eh)            E(eV)
   0   2.0000     -19.231526      -523.3164
   1   2.0000     -10.311274      -280.5840
   2   2.0000      -1.154508       -31.4158
   3   2.0000      -0.789654       -21.4876
   4   2.0000      -0.622937       -16.9510
   5   2.0000      -0.544226       -14.8091
   6   2.0000      -0.538107       -14.6426
   7   2.0000      -0.433448       -11.7947
   8   2.0000      -0.367831       -10.0092
   9   0.0000       0.088673         2.4129
  10   0.0000       0.125321         3.4102
  11   0.0000       0.155468         4.2305
  12   0.0000       0.180869         4.9217
  13   0.0000       0.198514         5.4019

MULLIKEN ATOMIC CHARGES
-----------------------
   0 C :   -0.005263
   1 O :   -0.000382
   2 H :   -0.003993
   3 H :   -0.000319
   4 H :   -0.001428
   5 H :    0.000503
   6 C :   -0.155100
   7 O :   -0.457079
   8 H :    0.319564
   9 H :    0.118882
  10 H :    0.091411
  11 H :    0.093203
Sum of atomic charges:    0.0000000

LOEWDIN ATOMIC CHARGES
----------------------
   0 C :   -0.005083
   1 O :   -0.005240
   2 H :   -0.040011
   3 H :   -0.000084
   4 H :   -0.001050
   5 H :   -0.000124
   6 C :   -0.424183
   7 O :   -0.003136
   8 H :    0.181543
   9 H :    0.109444
  10 H :    0.094062
  11 H :    0.093864

  Mayer bond orders larger than 0.1
B(  6-C ,  7-O ) :   0.9908 B(  6-C ,  9-H ) :   0.9750 B(  6-C , 10-H ) :   0.9655
B(  6-C , 11-H ) :   0.9958 B(  7-O ,  8-H ) :   0.8936

Dispersion correction           -0.000210007
FINAL SINGLE POINT ENERGY      -115.731918080510

DIPOLE MOMENT
-------------
                                X             Y             Z
Electronic contribution:      0.73040      -0.81306       1.50318
Nuclear contribution   :     -0.40729       1.13659      -2.00371
                        -----------------------------------------
Total Dipole Moment    :      0.32311       0.32353      -0.50053
                        -----------------------------------------
Magnitude (a.u.)       :      0.67794
Magnitude (Debye)      :      1.72318

Rotational constants in cm-1:     4.243069     0.888431     0.844863
Rotational constants in MHz : 127204.012839 26634.499399 25328.350742

                             ****ORCA TERMINATED NORMALLY****
TOTAL RUN TIME: 0 days 0 hours 0 minutes 47 seconds 670 msec
