                         Program Version 4.1.2  - RELEASE  -
|  1> #Run DFT-D3 single point of the dimer
|  2> ! wB97X-D3 def2-TZVP TIGHTSCF CHELPG PMODEL PAL8
|  3>
|  4> %base "13-182_DFT_AB"
|  5>
|  6> %scf
|  7> MaxIter 1000
|  8> end
|  9>
| 10> * xyz 0 1
| 11>   C                      0.369082             6.018789             0.516317
| 12>   O                      0.823945             7.087038             -0.312205
| 13>   H                      0.576789             6.977978             -1.240275
| 14>   H                      0.907541             6.050071             1.503454
| 15>   H                      -0.689153            5.914101             0.885084
| 16>   H                      0.581556             5.000459             0.074209
| 17>   C                      0.416081             6.341552             -3.830665
| 18>   O                      0.004939             5.756950             -2.596167
| 19>   H                      -0.646958            5.116949             -2.802898
| 20>   H                      -0.303278            7.107280             -4.079319
| 21>   H                      1.418122             6.880632             -3.792920
| 22>   H                      0.462358             5.697803             -4.709192
| 23> *
| 24>
| 25> #Run DFT-D3 single point of the molecule with dimer basis set
| 26> $new_job
| 27> %base "13-182_DFT_A"
| 28> ! wB97X-D3 def2-TZVP TIGHTSCF CHELPG PMODEL
| 29>
| 30> %scf
| 31> MaxIter 1000
| 32> end
| 33>
| 34> * xyz 0 1
| 35>   C                      0.369082             6.018789             0.516317
| 36>   O                      0.823945             7.087038             -0.312205
| 37>   H                      0.576789             6.977978             -1.240275
| 38>   H                      0.907541             6.050071             1.503454
| 39>   H                      -0.689153            5.914101             0.885084
| 40>   H                      0.581556             5.000459             0.074209
| 41>   C                    : 0.416081             6.341552             -3.830665
| 42>   O                    : 0.004939             5.756950             -2.596167
| 43>   H                    : -0.646958            5.116949             -2.802898
| 44>   H                    : -0.303278            7.107280             -4.079319
| 45>   H                    : 1.418122             6.880632             -3.792920
| 46>   H                    : 0.462358             5.697803             -4.709192
| 47> *
| 48>
| 49> #Run DFT-D3 single point of the particle with dimer basis set
| 50> $new_job
| 51> %base "13-182_DFT_B"
| 52> ! wB97X-D3 def2-TZVP TIGHTSCF CHELPG PMODEL
| 53>
| 54> %scf
| 55> MaxIter 1000
| 56> end
| 57>
| 58> * xyz 0 1
| 59>   C                    : 0.369082             6.018789             0.516317
| 60>   O                    : 0.823945             7.087038             -0.312205
| 61>   H                    : 0.576789             6.977978             -1.240275
| 62>   H                    : 0.907541             6.050071             1.503454
| 63>   H                    : -0.689153            5.914101             0.885084
| 64>   H                    : 0.581556             5.000459             0.074209
| 65>   C                      0.416081             6.341552             -3.830665
| 66>   O                      0.004939             5.756950             -2.596167
| 67>   H                      -0.646958            5.116949             -2.802898
| 68>   H                      -0.303278            7.107280             -4.079319
| 69>   H                      1.418122             6.880632             -3.792920
| 70>   H                      0.462358             5.697803             -4.709192
| 71> *
| 72>
| 73>                          ****END OF INPUT****
 Total Charge           Charge          ....    0
 Multiplicity           Mult            ....    1
 Number of Electrons    NEL             ....   36
Dispersion correction           -0.001970827
FINAL SINGLE POINT ENERGY      -231.465653269254
Dispersion correction           -0.000308011
FINAL SINGLE POINT ENERGY      -115.728740738359

CARTESIAN COORDINATES (ANGSTROEM)
---------------------------------
  C      0.369082    6.018789    0.516317
  O      0.823945    7.087038   -0.312205
  H      0.576789    6.977978   -1.240275
  H      0.907541    6.050071    1.503454
  H     -0.689153    5.914101    0.885084
  H      0.581556    5.000459    0.074209
  C      0.416081    6.341552   -3.830665
  O      0.004939    5.756950   -2.596167
  H     -0.646958    5.116949   -2.802898
  H     -0.303278    7.107280   -4.079319
  H      1.418122    6.880632   -3.792920
  H      0.462358    5.697803   -4.709192

 Multiplicity           Mult            ....    1
 Number of Electrons    NEL             ....   18
 Basis Dimension        Dim             ....  172

ORBITAL ENERGIES
----------------

  NO   OCC          E(Eh)            E(eV)
   0   2.0000     -19.232174      -523.3341
   1   2.0000     -10.317126      -280.7433
   2   2.0000      -1.139979       -31.0204
   3   2.0000      -0.797583       -21.7033
   4   2.0000      -0.615403       -16.7460
   5   2.0000      -0.537698       -14.6315
   6   2.0000      -0.523894       -14.2559
   7   2.0000      -0.438524       -11.9328
   8   2.0000      -0.374665       -10.1952
   9   0.0000       0.101061         2.7500
  10   0.0000       0.128073         3.4850
  11   0.0000       0.148662         4.0453
  12   0.0000       0.184075         5.0089
  13   0.0000       0.203765         5.5447

MULLIKEN ATOMIC CHARGES
-----------------------
   0 C :    0.004865
   1 O :    0.001476
   2 H :   -0.007211
   3 H :   -0.000307
   4 H :   -0.001001
   5 H :   -0.006932
   6 C :   -0.185928
   7 O :   -0.459114
   8 H :    0.309465
   9 H :    0.111633
  10 H :    0.120078
  11 H :    0.112976
Sum of atomic charges:    0.0000000

LOEWDIN ATOMIC CHARGES
----------------------
   0 C :   -0.012062
   1 O :   -0.006570
   2 H :   -0.035846
   3 H :   -0.000137
   4 H :   -0.000367
   5 H :   -0.004401
   6 C :   -0.379320
   7 O :   -0.024340
   8 H :    0.154981
   9 H :    0.094227
  10 H :    0.117970
  11 H :    0.095865

  Mayer bond orders larger than 0.1
B(  6-C ,  7-O ) :   0.9852 B(  6-C ,  9-H ) :   0.9814 B(  6-C , 10-H ) :   0.9745
B(  6-C , 11-H ) :   0.9667 B(  7-O ,  8-H ) :   0.9028

Dispersion correction           -0.000256016
FINAL SINGLE POINT ENERGY      -115.731607979648

DIPOLE MOMENT
-------------
                                X             Y             Z
Electronic contribution:     -0.42798      -0.80956       1.70242
Nuclear contribution   :      0.16565       0.62917      -2.35458
                        -----------------------------------------
Total Dipole Moment    :     -0.26233      -0.18039      -0.65216
                        -----------------------------------------
Magnitude (a.u.)       :      0.72572
Magnitude (Debye)      :      1.84464

Rotational constants in cm-1:     4.415694     0.811452     0.779567
Rotational constants in MHz : 132379.185880 24326.731226 23370.844151

                             ****ORCA TERMINATED NORMALLY****
TOTAL RUN TIME: 0 days 0 hours 1 minutes 14 seconds 433 msec
