                         Program Version 4.1.2  - RELEASE  -
|  1> #Run DFT-D3 single point of the dimer
|  2> ! wB97X-D3 def2-TZVP TIGHTSCF CHELPG PMODEL PAL8
|  3>
|  4> %base "8-55_DFT_AB"
|  5>
|  6> %scf
|  7> MaxIter 1000
|  8> end
|  9>
| 10> * xyz 0 1
| 11>   C                      6.612373             9.872498             10.935106
| 12>   O                      6.658939             8.784720             10.115513
| 13>   H                      7.112642             8.038896             10.574830
| 14>   H                      7.626650             10.041357            11.277156
| 15>   H                      6.384965             10.789706            10.351545
| 16>   H                      5.976746             9.789047             11.837496
| 17>   C                      8.297950             9.638053             6.999184
| 18>   O                      7.073123             9.026462             7.254794
| 19>   H                      6.756923             9.261665             8.121239
| 20>   H                      8.609197             9.209825             6.040132
| 21>   H                      8.162283             10.762873            6.849724
| 22>   H                      9.095038             9.417143             7.781061
| 23> *
| 24>
| 25> #Run DFT-D3 single point of the molecule with dimer basis set
| 26> $new_job
| 27> %base "8-55_DFT_A"
| 28> ! wB97X-D3 def2-TZVP TIGHTSCF CHELPG PMODEL
| 29>
| 30> %scf
| 31> MaxIter 1000
| 32> end
| 33>
| 34> * xyz 0 1
| 35>   C                      6.612373             9.872498             10.935106
| 36>   O                      6.658939             8.784720             10.115513
| 37>   H                      7.112642             8.038896             10.574830
| 38>   H                      7.626650             10.041357            11.277156
| 39>   H                      6.384965             10.789706            10.351545
| 40>   H                      5.976746             9.789047             11.837496
| 41>   C                    : 8.297950             9.638053             6.999184
| 42>   O                    : 7.073123             9.026462             7.254794
| 43>   H                    : 6.756923             9.261665             8.121239
| 44>   H                    : 8.609197             9.209825             6.040132
| 45>   H                    : 8.162283             10.762873            6.849724
| 46>   H                    : 9.095038             9.417143             7.781061
| 47> *
| 48>
| 49> #Run DFT-D3 single point of the particle with dimer basis set
| 50> $new_job
| 51> %base "8-55_DFT_B"
| 52> ! wB97X-D3 def2-TZVP TIGHTSCF CHELPG PMODEL
| 53>
| 54> %scf
| 55> MaxIter 1000
| 56> end
| 57>
| 58> * xyz 0 1
| 59>   C                    : 6.612373             9.872498             10.935106
| 60>   O                    : 6.658939             8.784720             10.115513
| 61>   H                    : 7.112642             8.038896             10.574830
| 62>   H                    : 7.626650             10.041357            11.277156
| 63>   H                    : 6.384965             10.789706            10.351545
| 64>   H                    : 5.976746             9.789047             11.837496
| 65>   C                      8.297950             9.638053             6.999184
| 66>   O                      7.073123             9.026462             7.254794
| 67>   H                      6.756923             9.261665             8.121239
| 68>   H                      8.609197             9.209825             6.040132
| 69>   H                      8.162283             10.762873            6.849724
| 70>   H                      9.095038             9.417143             7.781061
| 71> *
| 72>
| 73>                          ****END OF INPUT****
 Total Charge           Charge          ....    0
 Multiplicity           Mult            ....    1
 Number of Electrons    NEL             ....   36
Dispersion correction           -0.001796021
FINAL SINGLE POINT ENERGY      -231.472467417377
Dispersion correction           -0.000225081
FINAL SINGLE POINT ENERGY      -115.731855386572

CARTESIAN COORDINATES (ANGSTROEM)
---------------------------------
  C      6.612373    9.872498   10.935106
  O      6.658939    8.784720   10.115513
  H      7.112642    8.038896   10.574830
  H      7.626650   10.041357   11.277156
  H      6.384965   10.789706   10.351545
  H      5.976746    9.789047   11.837496
  C      8.297950    9.638053    6.999184
  O      7.073123    9.026462    7.254794
  H      6.756923    9.261665    8.121239
  H      8.609197    9.209825    6.040132
  H      8.162283   10.762873    6.849724
  H      9.095038    9.417143    7.781061

 Multiplicity           Mult            ....    1
 Number of Electrons    NEL             ....   18
 Basis Dimension        Dim             ....  172

ORBITAL ENERGIES
----------------

  NO   OCC          E(Eh)            E(eV)
   0   2.0000     -19.230429      -523.2866
   1   2.0000     -10.321250      -280.8555
   2   2.0000      -1.144396       -31.1406
   3   2.0000      -0.790422       -21.5085
   4   2.0000      -0.612259       -16.6604
   5   2.0000      -0.540057       -14.6957
   6   2.0000      -0.527603       -14.3568
   7   2.0000      -0.429578       -11.6894
   8   2.0000      -0.373092       -10.1523
   9   0.0000       0.068011         1.8507
  10   0.0000       0.136064         3.7025
  11   0.0000       0.152130         4.1397
  12   0.0000       0.155820         4.2401
  13   0.0000       0.187935         5.1140

MULLIKEN ATOMIC CHARGES
-----------------------
   0 C :   -0.002269
   1 O :   -0.003888
   2 H :   -0.000507
   3 H :    0.000083
   4 H :   -0.000399
   5 H :   -0.000088
   6 C :   -0.154631
   7 O :   -0.463401
   8 H :    0.312535
   9 H :    0.117191
  10 H :    0.096956
  11 H :    0.098419
Sum of atomic charges:    0.0000000

LOEWDIN ATOMIC CHARGES
----------------------
   0 C :   -0.004127
   1 O :   -0.015823
   2 H :   -0.001119
   3 H :   -0.000083
   4 H :   -0.000850
   5 H :   -0.000087
   6 C :   -0.409235
   7 O :   -0.046972
   8 H :    0.167945
   9 H :    0.109301
  10 H :    0.100775
  11 H :    0.100276

  Mayer bond orders larger than 0.1
B(  6-C ,  7-O ) :   0.9972 B(  6-C ,  9-H ) :   0.9761 B(  6-C , 10-H ) :   0.9758
B(  6-C , 11-H ) :   0.9656 B(  7-O ,  8-H ) :   0.9051

Dispersion correction           -0.000251256
FINAL SINGLE POINT ENERGY      -115.734846336089

DIPOLE MOMENT
-------------
                                X             Y             Z
Electronic contribution:     -1.56523      -0.86463       0.25735
Nuclear contribution   :      1.82012       1.22284       0.17491
                        -----------------------------------------
Total Dipole Moment    :      0.25490       0.35822       0.43226
                        -----------------------------------------
Magnitude (a.u.)       :      0.61655
Magnitude (Debye)      :      1.56716

Rotational constants in cm-1:     4.090053     0.844633     0.821559
Rotational constants in MHz : 122616.715816 25321.459976 24629.733555

                             ****ORCA TERMINATED NORMALLY****
TOTAL RUN TIME: 0 days 0 hours 0 minutes 46 seconds 995 msec
