                         Program Version 4.1.2  - RELEASE  -
|  1> #Run DFT-D3 single point of the dimer
|  2> ! wB97X-D3 def2-TZVP TIGHTSCF CHELPG PMODEL PAL8
|  3>
|  4> %base "3-168_DFT_AB"
|  5>
|  6> %scf
|  7> MaxIter 1000
|  8> end
|  9>
| 10> * xyz 0 1
| 11>   C                      -10.460390           6.993618             -2.940169
| 12>   O                      -11.137937           7.880939             -3.857199
| 13>   H                      -10.804482           8.759338             -3.663140
| 14>   H                      -10.279277           7.614093             -2.074205
| 15>   H                      -11.075828           6.130439             -2.718789
| 16>   H                      -9.541268            6.572760             -3.474219
| 17>   C                      -7.280729            10.984344            -2.982515
| 18>   O                      -7.888206            10.581002            -4.157496
| 19>   H                      -7.397070            9.775579             -4.450965
| 20>   H                      -7.612625            11.926285            -2.619531
| 21>   H                      -7.518263            10.162889            -2.288875
| 22>   H                      -6.158756            10.927150            -3.035597
| 23> *
| 24>
| 25> #Run DFT-D3 single point of the molecule with dimer basis set
| 26> $new_job
| 27> %base "3-168_DFT_A"
| 28> ! wB97X-D3 def2-TZVP TIGHTSCF CHELPG PMODEL
| 29>
| 30> %scf
| 31> MaxIter 1000
| 32> end
| 33>
| 34> * xyz 0 1
| 35>   C                      -10.460390           6.993618             -2.940169
| 36>   O                      -11.137937           7.880939             -3.857199
| 37>   H                      -10.804482           8.759338             -3.663140
| 38>   H                      -10.279277           7.614093             -2.074205
| 39>   H                      -11.075828           6.130439             -2.718789
| 40>   H                      -9.541268            6.572760             -3.474219
| 41>   C                    : -7.280729            10.984344            -2.982515
| 42>   O                    : -7.888206            10.581002            -4.157496
| 43>   H                    : -7.397070            9.775579             -4.450965
| 44>   H                    : -7.612625            11.926285            -2.619531
| 45>   H                    : -7.518263            10.162889            -2.288875
| 46>   H                    : -6.158756            10.927150            -3.035597
| 47> *
| 48>
| 49> #Run DFT-D3 single point of the particle with dimer basis set
| 50> $new_job
| 51> %base "3-168_DFT_B"
| 52> ! wB97X-D3 def2-TZVP TIGHTSCF CHELPG PMODEL
| 53>
| 54> %scf
| 55> MaxIter 1000
| 56> end
| 57>
| 58> * xyz 0 1
| 59>   C                    : -10.460390           6.993618             -2.940169
| 60>   O                    : -11.137937           7.880939             -3.857199
| 61>   H                    : -10.804482           8.759338             -3.663140
| 62>   H                    : -10.279277           7.614093             -2.074205
| 63>   H                    : -11.075828           6.130439             -2.718789
| 64>   H                    : -9.541268            6.572760             -3.474219
| 65>   C                      -7.280729            10.984344            -2.982515
| 66>   O                      -7.888206            10.581002            -4.157496
| 67>   H                      -7.397070            9.775579             -4.450965
| 68>   H                      -7.612625            11.926285            -2.619531
| 69>   H                      -7.518263            10.162889            -2.288875
| 70>   H                      -6.158756            10.927150            -3.035597
| 71> *
| 72>
| 73>                          ****END OF INPUT****
 Total Charge           Charge          ....    0
 Multiplicity           Mult            ....    1
 Number of Electrons    NEL             ....   36
Dispersion correction           -0.001055047
FINAL SINGLE POINT ENERGY      -231.461224576358
Dispersion correction           -0.000235752
FINAL SINGLE POINT ENERGY      -115.730583172735

CARTESIAN COORDINATES (ANGSTROEM)
---------------------------------
  C    -10.460390    6.993618   -2.940169
  O    -11.137937    7.880939   -3.857199
  H    -10.804482    8.759338   -3.663140
  H    -10.279277    7.614093   -2.074205
  H    -11.075828    6.130439   -2.718789
  H     -9.541268    6.572760   -3.474219
  C     -7.280729   10.984344   -2.982515
  O     -7.888206   10.581002   -4.157496
  H     -7.397070    9.775579   -4.450965
  H     -7.612625   11.926285   -2.619531
  H     -7.518263   10.162889   -2.288875
  H     -6.158756   10.927150   -3.035597

 Multiplicity           Mult            ....    1
 Number of Electrons    NEL             ....   18
 Basis Dimension        Dim             ....  172

ORBITAL ENERGIES
----------------

  NO   OCC          E(Eh)            E(eV)
   0   2.0000     -19.231460      -523.3146
   1   2.0000     -10.311566      -280.5920
   2   2.0000      -1.143485       -31.1158
   3   2.0000      -0.789461       -21.4823
   4   2.0000      -0.614327       -16.7167
   5   2.0000      -0.546714       -14.8768
   6   2.0000      -0.532311       -14.4849
   7   2.0000      -0.437399       -11.9022
   8   2.0000      -0.362832        -9.8732
   9   0.0000       0.082651         2.2490
  10   0.0000       0.117935         3.2092
  11   0.0000       0.155852         4.2410
  12   0.0000       0.172885         4.7045
  13   0.0000       0.183508         4.9935

MULLIKEN ATOMIC CHARGES
-----------------------
   0 C :   -0.000751
   1 O :    0.000536
   2 H :   -0.002517
   3 H :    0.000105
   4 H :   -0.000051
   5 H :   -0.000081
   6 C :   -0.170288
   7 O :   -0.466387
   8 H :    0.320803
   9 H :    0.121147
  10 H :    0.101176
  11 H :    0.096307
Sum of atomic charges:   -0.0000000

LOEWDIN ATOMIC CHARGES
----------------------
   0 C :   -0.000403
   1 O :   -0.000108
   2 H :   -0.002149
   3 H :   -0.000074
   4 H :   -0.000020
   5 H :   -0.000069
   6 C :   -0.411906
   7 O :   -0.069503
   8 H :    0.191152
   9 H :    0.099242
  10 H :    0.096613
  11 H :    0.097226

  Mayer bond orders larger than 0.1
B(  6-C ,  7-O ) :   0.9899 B(  6-C ,  9-H ) :   0.9696 B(  6-C , 10-H ) :   0.9901
B(  6-C , 11-H ) :   0.9760 B(  7-O ,  8-H ) :   0.8916

Dispersion correction           -0.000204717
FINAL SINGLE POINT ENERGY      -115.728784060925

DIPOLE MOMENT
-------------
                                X             Y             Z
Electronic contribution:     -0.96177      -0.15457      -1.55634
Nuclear contribution   :      1.49131      -0.18611       1.81189
                        -----------------------------------------
Total Dipole Moment    :      0.52955      -0.34068       0.25554
                        -----------------------------------------
Magnitude (a.u.)       :      0.67955
Magnitude (Debye)      :      1.72727

Rotational constants in cm-1:     4.186968     0.874509     0.829645
Rotational constants in MHz : 125522.136681 26217.110789 24872.141546

                             ****ORCA TERMINATED NORMALLY****
TOTAL RUN TIME: 0 days 0 hours 5 minutes 30 seconds 737 msec
