                         Program Version 4.1.2  - RELEASE  -
|  1> #Run DFT-D3 single point of the dimer
|  2> ! wB97X-D3 def2-TZVP TIGHTSCF CHELPG PMODEL PAL8
|  3>
|  4> %base "8-164_DFT_AB"
|  5>
|  6> %scf
|  7> MaxIter 1000
|  8> end
|  9>
| 10> * xyz 0 1
| 11>   C                      1.349163             10.492451            -10.514174
| 12>   O                      1.365359             10.181597            -9.148429
| 13>   H                      0.735344             9.473616             -8.959441
| 14>   H                      0.307704             10.782875            -10.802773
| 15>   H                      2.044243             11.313737            -10.780355
| 16>   H                      1.682850             9.493341             -10.950823
| 17>   C                      -1.650579            9.227980             -8.348944
| 18>   O                      -0.629983            8.256102             -8.409026
| 19>   H                      -0.933344            7.469864             -7.936534
| 20>   H                      -2.390901            9.132812             -9.129706
| 21>   H                      -2.275235            9.158791             -7.423598
| 22>   H                      -1.298081            10.255404            -8.571022
| 23> *
| 24>
| 25> #Run DFT-D3 single point of the molecule with dimer basis set
| 26> $new_job
| 27> %base "8-164_DFT_A"
| 28> ! wB97X-D3 def2-TZVP TIGHTSCF CHELPG PMODEL
| 29>
| 30> %scf
| 31> MaxIter 1000
| 32> end
| 33>
| 34> * xyz 0 1
| 35>   C                      1.349163             10.492451            -10.514174
| 36>   O                      1.365359             10.181597            -9.148429
| 37>   H                      0.735344             9.473616             -8.959441
| 38>   H                      0.307704             10.782875            -10.802773
| 39>   H                      2.044243             11.313737            -10.780355
| 40>   H                      1.682850             9.493341             -10.950823
| 41>   C                    : -1.650579            9.227980             -8.348944
| 42>   O                    : -0.629983            8.256102             -8.409026
| 43>   H                    : -0.933344            7.469864             -7.936534
| 44>   H                    : -2.390901            9.132812             -9.129706
| 45>   H                    : -2.275235            9.158791             -7.423598
| 46>   H                    : -1.298081            10.255404            -8.571022
| 47> *
| 48>
| 49> #Run DFT-D3 single point of the particle with dimer basis set
| 50> $new_job
| 51> %base "8-164_DFT_B"
| 52> ! wB97X-D3 def2-TZVP TIGHTSCF CHELPG PMODEL
| 53>
| 54> %scf
| 55> MaxIter 1000
| 56> end
| 57>
| 58> * xyz 0 1
| 59>   C                    : 1.349163             10.492451            -10.514174
| 60>   O                    : 1.365359             10.181597            -9.148429
| 61>   H                    : 0.735344             9.473616             -8.959441
| 62>   H                    : 0.307704             10.782875            -10.802773
| 63>   H                    : 2.044243             11.313737            -10.780355
| 64>   H                    : 1.682850             9.493341             -10.950823
| 65>   C                      -1.650579            9.227980             -8.348944
| 66>   O                      -0.629983            8.256102             -8.409026
| 67>   H                      -0.933344            7.469864             -7.936534
| 68>   H                      -2.390901            9.132812             -9.129706
| 69>   H                      -2.275235            9.158791             -7.423598
| 70>   H                      -1.298081            10.255404            -8.571022
| 71> *
| 72>
| 73>                          ****END OF INPUT****
 Total Charge           Charge          ....    0
 Multiplicity           Mult            ....    1
 Number of Electrons    NEL             ....   36
Dispersion correction           -0.001979666
FINAL SINGLE POINT ENERGY      -231.467860081381
Dispersion correction           -0.000218778
FINAL SINGLE POINT ENERGY      -115.729188407055

CARTESIAN COORDINATES (ANGSTROEM)
---------------------------------
  C      1.349163   10.492451  -10.514174
  O      1.365359   10.181597   -9.148429
  H      0.735344    9.473616   -8.959441
  H      0.307704   10.782875  -10.802773
  H      2.044243   11.313737  -10.780355
  H      1.682850    9.493341  -10.950823
  C     -1.650579    9.227980   -8.348944
  O     -0.629983    8.256102   -8.409026
  H     -0.933344    7.469864   -7.936534
  H     -2.390901    9.132812   -9.129706
  H     -2.275235    9.158791   -7.423598
  H     -1.298081   10.255404   -8.571022

 Multiplicity           Mult            ....    1
 Number of Electrons    NEL             ....   18
 Basis Dimension        Dim             ....  172

ORBITAL ENERGIES
----------------

  NO   OCC          E(Eh)            E(eV)
   0   2.0000     -19.234939      -523.4093
   1   2.0000     -10.316015      -280.7130
   2   2.0000      -1.137996       -30.9664
   3   2.0000      -0.796309       -21.6687
   4   2.0000      -0.615456       -16.7474
   5   2.0000      -0.539657       -14.6848
   6   2.0000      -0.523229       -14.2378
   7   2.0000      -0.438224       -11.9247
   8   2.0000      -0.370495       -10.0817
   9   0.0000       0.096306         2.6206
  10   0.0000       0.122466         3.3325
  11   0.0000       0.150145         4.0856
  12   0.0000       0.187769         5.1095
  13   0.0000       0.202243         5.5033

MULLIKEN ATOMIC CHARGES
-----------------------
   0 C :   -0.000015
   1 O :    0.000769
   2 H :   -0.006608
   3 H :    0.000204
   4 H :   -0.000023
   5 H :   -0.000861
   6 C :   -0.176548
   7 O :   -0.455322
   8 H :    0.312954
   9 H :    0.099970
  10 H :    0.106460
  11 H :    0.119019
Sum of atomic charges:    0.0000000

LOEWDIN ATOMIC CHARGES
----------------------
   0 C :   -0.002663
   1 O :   -0.004989
   2 H :   -0.038348
   3 H :   -0.000836
   4 H :   -0.000022
   5 H :   -0.000287
   6 C :   -0.391528
   7 O :   -0.041575
   8 H :    0.174510
   9 H :    0.090470
  10 H :    0.101114
  11 H :    0.114153

  Mayer bond orders larger than 0.1
B(  6-C ,  7-O ) :   1.0004 B(  6-C ,  9-H ) :   0.9720 B(  6-C , 10-H ) :   0.9781
B(  6-C , 11-H ) :   0.9785 B(  7-O ,  8-H ) :   0.8962

Dispersion correction           -0.000257304
FINAL SINGLE POINT ENERGY      -115.731679662192

DIPOLE MOMENT
-------------
                                X             Y             Z
Electronic contribution:      1.53968      -1.21099      -0.08109
Nuclear contribution   :     -2.14681       1.08025       0.38665
                        -----------------------------------------
Total Dipole Moment    :     -0.60713      -0.13074       0.30556
                        -----------------------------------------
Magnitude (a.u.)       :      0.69215
Magnitude (Debye)      :      1.75930

Rotational constants in cm-1:     4.373250     0.829478     0.784199
Rotational constants in MHz : 131106.723506 24867.136801 23509.708252

                             ****ORCA TERMINATED NORMALLY****
TOTAL RUN TIME: 0 days 0 hours 0 minutes 49 seconds 856 msec
