                         Program Version 4.1.2  - RELEASE  -
|  1> #Run DFT geometry optimization
|  2> ! wB97X-D3 def2-TZVP TIGHTSCF Grid5 FinalGrid6 Opt CHELPG PAL4
|  3>
|  4> %base "7_geo_opt"
|  5> %geom MaxIter 500
|  6> end
|  7>
|  8> %geom
|  9>   Constraints
| 10>     { B 2 1 C }
| 11>   end
| 12> end
| 13>
| 14>
| 15> * xyz 0 1
| 16>   C                    3.011386             -1.180741            0.598395
| 17>   O                    4.394752             -1.127894            0.874211
| 18>   H                    4.772117             -0.379178            0.412590
| 19>   H                    2.806513             -1.318808            -0.469446
| 20>   H                    2.611711             -2.040109            1.135802
| 21>   H                    2.484836             -0.284335            0.945562
| 22> *
| 23>
| 24>                          ****END OF INPUT****
 Total Charge           Charge          ....    0
 Multiplicity           Mult            ....    1
 Number of Electrons    NEL             ....   18
Dispersion correction           -0.000239227
FINAL SINGLE POINT ENERGY      -115.738051207784
Dispersion correction            ... done
                    ***********************HURRAY********************

CARTESIAN COORDINATES (ANGSTROEM)
---------------------------------
  C      3.011432   -1.180779    0.598430
  O      4.394769   -1.127866    0.874180
  H      4.772127   -0.379135    0.412579
  H      2.806523   -1.318820   -0.469412
  H      2.611599   -2.040101    1.135776
  H      2.484865   -0.284365    0.945561

 Multiplicity           Mult            ....    1
 Number of Electrons    NEL             ....   18
 Basis Dimension        Dim             ....   86

ORBITAL ENERGIES
----------------

  NO   OCC          E(Eh)            E(eV)
   0   2.0000     -19.228045      -523.2217
   1   2.0000     -10.315114      -280.6885
   2   2.0000      -1.136886       -30.9362
   3   2.0000      -0.795384       -21.6435
   4   2.0000      -0.611643       -16.6437
   5   2.0000      -0.541777       -14.7425
   6   2.0000      -0.526351       -14.3227
   7   2.0000      -0.433804       -11.8044
   8   2.0000      -0.373616       -10.1666
   9   0.0000       0.116686         3.1752
  10   0.0000       0.156692         4.2638
  11   0.0000       0.202582         5.5125
  12   0.0000       0.205115         5.5815
  13   0.0000       0.226385         6.1603

MULLIKEN ATOMIC CHARGES
-----------------------
   0 C :   -0.150853
   1 O :   -0.477591
   2 H :    0.312966
   3 H :    0.098623
   4 H :    0.118229
   5 H :    0.098626
Sum of atomic charges:    0.0000000

LOEWDIN ATOMIC CHARGES
----------------------
   0 C :   -0.385145
   1 O :   -0.075883
   2 H :    0.165541
   3 H :    0.093400
   4 H :    0.108689
   5 H :    0.093398

  Mayer bond orders larger than 0.1
B(  0-C ,  1-O ) :   0.9986 B(  0-C ,  3-H ) :   0.9755 B(  0-C ,  4-H ) :   0.9749
B(  0-C ,  5-H ) :   0.9755 B(  1-O ,  2-H ) :   0.9003

Dispersion correction           -0.000239227
FINAL SINGLE POINT ENERGY      -115.738051225167

DIPOLE MOMENT
-------------
                                X             Y             Z
Electronic contribution:      1.75610      -0.02808       0.41971
Nuclear contribution   :     -2.06594       0.47557      -0.81728
                        -----------------------------------------
Total Dipole Moment    :     -0.30984       0.44749      -0.39757
                        -----------------------------------------
Magnitude (a.u.)       :      0.67403
Magnitude (Debye)      :      1.71325

Rotational constants in cm-1:     4.293703     0.833829     0.804962
Rotational constants in MHz : 128721.985256 24997.575569 24132.162043

                             ****ORCA TERMINATED NORMALLY****
TOTAL RUN TIME: 0 days 0 hours 0 minutes 36 seconds 309 msec
