                         Program Version 4.1.2  - RELEASE  -
|  1> #Run DFT-D3 single point of the dimer
|  2> ! wB97X-D3 def2-TZVP TIGHTSCF CHELPG PMODEL PAL8
|  3>
|  4> %base "21-1_DFT_AB"
|  5>
|  6> %scf
|  7> MaxIter 1000
|  8> end
|  9>
| 10> * xyz 0 1
| 11>   C                      -9.555378            -10.803507           -11.046135
| 12>   O                      -10.201272           -9.541897            -10.891227
| 13>   H                      -9.591396            -8.944921            -11.332116
| 14>   H                      -9.162109            -10.902993           -12.087031
| 15>   H                      -8.852526            -11.007908           -10.232011
| 16>   H                      -10.232557           -11.601163           -11.023796
| 17>   C                      -8.175844            -6.461726            -9.529841
| 18>   O                      -6.888502            -6.628987            -8.963924
| 19>   H                      -6.925999            -7.424524            -8.347092
| 20>   H                      -8.688891            -7.439171            -9.596102
| 21>   H                      -8.830355            -5.949237            -8.826932
| 22>   H                      -8.134614            -6.010198            -10.551838
| 23> *
| 24>
| 25> #Run DFT-D3 single point of the molecule with dimer basis set
| 26> $new_job
| 27> %base "21-1_DFT_A"
| 28> ! wB97X-D3 def2-TZVP TIGHTSCF CHELPG PMODEL
| 29>
| 30> %scf
| 31> MaxIter 1000
| 32> end
| 33>
| 34> * xyz 0 1
| 35>   C                      -9.555378            -10.803507           -11.046135
| 36>   O                      -10.201272           -9.541897            -10.891227
| 37>   H                      -9.591396            -8.944921            -11.332116
| 38>   H                      -9.162109            -10.902993           -12.087031
| 39>   H                      -8.852526            -11.007908           -10.232011
| 40>   H                      -10.232557           -11.601163           -11.023796
| 41>   C                    : -8.175844            -6.461726            -9.529841
| 42>   O                    : -6.888502            -6.628987            -8.963924
| 43>   H                    : -6.925999            -7.424524            -8.347092
| 44>   H                    : -8.688891            -7.439171            -9.596102
| 45>   H                    : -8.830355            -5.949237            -8.826932
| 46>   H                    : -8.134614            -6.010198            -10.551838
| 47> *
| 48>
| 49> #Run DFT-D3 single point of the particle with dimer basis set
| 50> $new_job
| 51> %base "21-1_DFT_B"
| 52> ! wB97X-D3 def2-TZVP TIGHTSCF CHELPG PMODEL
| 53>
| 54> %scf
| 55> MaxIter 1000
| 56> end
| 57>
| 58> * xyz 0 1
| 59>   C                    : -9.555378            -10.803507           -11.046135
| 60>   O                    : -10.201272           -9.541897            -10.891227
| 61>   H                    : -9.591396            -8.944921            -11.332116
| 62>   H                    : -9.162109            -10.902993           -12.087031
| 63>   H                    : -8.852526            -11.007908           -10.232011
| 64>   H                    : -10.232557           -11.601163           -11.023796
| 65>   C                      -8.175844            -6.461726            -9.529841
| 66>   O                      -6.888502            -6.628987            -8.963924
| 67>   H                      -6.925999            -7.424524            -8.347092
| 68>   H                      -8.688891            -7.439171            -9.596102
| 69>   H                      -8.830355            -5.949237            -8.826932
| 70>   H                      -8.134614            -6.010198            -10.551838
| 71> *
| 72>
| 73>                          ****END OF INPUT****
 Total Charge           Charge          ....    0
 Multiplicity           Mult            ....    1
 Number of Electrons    NEL             ....   36
Dispersion correction           -0.001289959
FINAL SINGLE POINT ENERGY      -231.463105571774
Dispersion correction           -0.000236253
FINAL SINGLE POINT ENERGY      -115.731343304751

CARTESIAN COORDINATES (ANGSTROEM)
---------------------------------
  C     -9.555378  -10.803507  -11.046135
  O    -10.201272   -9.541897  -10.891227
  H     -9.591396   -8.944921  -11.332116
  H     -9.162109  -10.902993  -12.087031
  H     -8.852526  -11.007908  -10.232011
  H    -10.232557  -11.601163  -11.023796
  C     -8.175844   -6.461726   -9.529841
  O     -6.888502   -6.628987   -8.963924
  H     -6.925999   -7.424524   -8.347092
  H     -8.688891   -7.439171   -9.596102
  H     -8.830355   -5.949237   -8.826932
  H     -8.134614   -6.010198  -10.551838

 Multiplicity           Mult            ....    1
 Number of Electrons    NEL             ....   18
 Basis Dimension        Dim             ....  172

ORBITAL ENERGIES
----------------

  NO   OCC          E(Eh)            E(eV)
   0   2.0000     -19.233047      -523.3578
   1   2.0000     -10.316358      -280.7224
   2   2.0000      -1.127064       -30.6690
   3   2.0000      -0.788545       -21.4574
   4   2.0000      -0.608059       -16.5461
   5   2.0000      -0.540208       -14.6998
   6   2.0000      -0.521312       -14.1856
   7   2.0000      -0.432177       -11.7601
   8   2.0000      -0.369395       -10.0518
   9   0.0000       0.080078         2.1790
  10   0.0000       0.111603         3.0369
  11   0.0000       0.143838         3.9140
  12   0.0000       0.176932         4.8146
  13   0.0000       0.187394         5.0993

MULLIKEN ATOMIC CHARGES
-----------------------
   0 C :    0.000339
   1 O :    0.000095
   2 H :   -0.001640
   3 H :   -0.000040
   4 H :   -0.000048
   5 H :    0.000042
   6 C :   -0.168871
   7 O :   -0.475706
   8 H :    0.319356
   9 H :    0.100291
  10 H :    0.102768
  11 H :    0.123414
Sum of atomic charges:   -0.0000000

LOEWDIN ATOMIC CHARGES
----------------------
   0 C :   -0.000532
   1 O :   -0.001880
   2 H :   -0.004281
   3 H :   -0.000005
   4 H :   -0.000076
   5 H :   -0.000004
   6 C :   -0.392549
   7 O :   -0.102376
   8 H :    0.196731
   9 H :    0.098609
  10 H :    0.092999
  11 H :    0.113365

  Mayer bond orders larger than 0.1
B(  6-C ,  7-O ) :   1.0020 B(  6-C ,  9-H ) :   0.9873 B(  6-C , 10-H ) :   0.9696
B(  6-C , 11-H ) :   0.9686 B(  7-O ,  8-H ) :   0.8915

Dispersion correction           -0.000240568
FINAL SINGLE POINT ENERGY      -115.730458182848

DIPOLE MOMENT
-------------
                                X             Y             Z
Electronic contribution:      1.76706       0.03371       0.56482
Nuclear contribution   :     -2.30142      -0.48800      -0.40262
                        -----------------------------------------
Total Dipole Moment    :     -0.53436      -0.45429       0.16221
                        -----------------------------------------
Magnitude (a.u.)       :      0.71988
Magnitude (Debye)      :      1.82979

Rotational constants in cm-1:     4.144276     0.830787     0.790512
Rotational constants in MHz : 124242.265973 24906.365612 23698.958903

                             ****ORCA TERMINATED NORMALLY****
TOTAL RUN TIME: 0 days 0 hours 1 minutes 1 seconds 297 msec
