                         Program Version 4.1.2  - RELEASE  -
|  1> #Run DFT-D3 single point of the dimer
|  2> ! wB97X-D3 def2-TZVP TIGHTSCF CHELPG PMODEL PAL8
|  3>
|  4> %base "10-91_DFT_AB"
|  5>
|  6> %scf
|  7> MaxIter 1000
|  8> end
|  9>
| 10> * xyz 0 1
| 11>   C                      0.325050             3.682876             4.670970
| 12>   O                      -0.846528            4.166738             4.035653
| 13>   H                      -1.548622            4.059657             4.702336
| 14>   H                      0.917244             3.089913             4.008710
| 15>   H                      1.078371             4.362851             4.962118
| 16>   H                      0.047949             3.124406             5.575140
| 17>   C                      -0.763538            4.518089             0.464524
| 18>   O                      0.245991             4.951680             1.330421
| 19>   H                      -0.039478            4.728302             2.232446
| 20>   H                      -1.715412            5.158409             0.546746
| 21>   H                      -0.446664            4.588392             -0.586874
| 22>   H                      -1.020754            3.449014             0.638337
| 23> *
| 24>
| 25> #Run DFT-D3 single point of the molecule with dimer basis set
| 26> $new_job
| 27> %base "10-91_DFT_A"
| 28> ! wB97X-D3 def2-TZVP TIGHTSCF CHELPG PMODEL
| 29>
| 30> %scf
| 31> MaxIter 1000
| 32> end
| 33>
| 34> * xyz 0 1
| 35>   C                      0.325050             3.682876             4.670970
| 36>   O                      -0.846528            4.166738             4.035653
| 37>   H                      -1.548622            4.059657             4.702336
| 38>   H                      0.917244             3.089913             4.008710
| 39>   H                      1.078371             4.362851             4.962118
| 40>   H                      0.047949             3.124406             5.575140
| 41>   C                    : -0.763538            4.518089             0.464524
| 42>   O                    : 0.245991             4.951680             1.330421
| 43>   H                    : -0.039478            4.728302             2.232446
| 44>   H                    : -1.715412            5.158409             0.546746
| 45>   H                    : -0.446664            4.588392             -0.586874
| 46>   H                    : -1.020754            3.449014             0.638337
| 47> *
| 48>
| 49> #Run DFT-D3 single point of the particle with dimer basis set
| 50> $new_job
| 51> %base "10-91_DFT_B"
| 52> ! wB97X-D3 def2-TZVP TIGHTSCF CHELPG PMODEL
| 53>
| 54> %scf
| 55> MaxIter 1000
| 56> end
| 57>
| 58> * xyz 0 1
| 59>   C                    : 0.325050             3.682876             4.670970
| 60>   O                    : -0.846528            4.166738             4.035653
| 61>   H                    : -1.548622            4.059657             4.702336
| 62>   H                    : 0.917244             3.089913             4.008710
| 63>   H                    : 1.078371             4.362851             4.962118
| 64>   H                    : 0.047949             3.124406             5.575140
| 65>   C                      -0.763538            4.518089             0.464524
| 66>   O                      0.245991             4.951680             1.330421
| 67>   H                      -0.039478            4.728302             2.232446
| 68>   H                      -1.715412            5.158409             0.546746
| 69>   H                      -0.446664            4.588392             -0.586874
| 70>   H                      -1.020754            3.449014             0.638337
| 71> *
| 72>
| 73>                          ****END OF INPUT****
 Total Charge           Charge          ....    0
 Multiplicity           Mult            ....    1
 Number of Electrons    NEL             ....   36
Dispersion correction           -0.001759092
FINAL SINGLE POINT ENERGY      -231.471209194969
Dispersion correction           -0.000247701
FINAL SINGLE POINT ENERGY      -115.728701059409

CARTESIAN COORDINATES (ANGSTROEM)
---------------------------------
  C      0.325050    3.682876    4.670970
  O     -0.846528    4.166738    4.035653
  H     -1.548622    4.059657    4.702336
  H      0.917244    3.089913    4.008710
  H      1.078371    4.362851    4.962118
  H      0.047949    3.124406    5.575140
  C     -0.763538    4.518089    0.464524
  O      0.245991    4.951680    1.330421
  H     -0.039478    4.728302    2.232446
  H     -1.715412    5.158409    0.546746
  H     -0.446664    4.588392   -0.586874
  H     -1.020754    3.449014    0.638337

 Multiplicity           Mult            ....    1
 Number of Electrons    NEL             ....   18
 Basis Dimension        Dim             ....  172

ORBITAL ENERGIES
----------------

  NO   OCC          E(Eh)            E(eV)
   0   2.0000     -19.234937      -523.4092
   1   2.0000     -10.320788      -280.8429
   2   2.0000      -1.141415       -31.0595
   3   2.0000      -0.788408       -21.4537
   4   2.0000      -0.610477       -16.6119
   5   2.0000      -0.538597       -14.6560
   6   2.0000      -0.530539       -14.4367
   7   2.0000      -0.431495       -11.7416
   8   2.0000      -0.373298       -10.1580
   9   0.0000       0.070475         1.9177
  10   0.0000       0.131133         3.5683
  11   0.0000       0.154971         4.2170
  12   0.0000       0.158754         4.3199
  13   0.0000       0.186317         5.0700

MULLIKEN ATOMIC CHARGES
-----------------------
   0 C :   -0.000970
   1 O :   -0.002735
   2 H :   -0.000127
   3 H :   -0.002537
   4 H :   -0.000013
   5 H :   -0.000032
   6 C :   -0.170653
   7 O :   -0.461459
   8 H :    0.317849
   9 H :    0.096208
  10 H :    0.123241
  11 H :    0.101229
Sum of atomic charges:    0.0000000

LOEWDIN ATOMIC CHARGES
----------------------
   0 C :   -0.007001
   1 O :   -0.014166
   2 H :   -0.000518
   3 H :   -0.001704
   4 H :   -0.000251
   5 H :   -0.000098
   6 C :   -0.409901
   7 O :   -0.060094
   8 H :    0.186991
   9 H :    0.101464
  10 H :    0.108606
  11 H :    0.096672

  Mayer bond orders larger than 0.1
B(  6-C ,  7-O ) :   0.9970 B(  6-C ,  9-H ) :   0.9743 B(  6-C , 10-H ) :   0.9723
B(  6-C , 11-H ) :   0.9736 B(  7-O ,  8-H ) :   0.9028

Dispersion correction           -0.000248401
FINAL SINGLE POINT ENERGY      -115.735271557033

DIPOLE MOMENT
-------------
                                X             Y             Z
Electronic contribution:      1.48637       0.61744       1.03553
Nuclear contribution   :     -2.02199      -0.93075      -0.81892
                        -----------------------------------------
Total Dipole Moment    :     -0.53561      -0.31331       0.21661
                        -----------------------------------------
Magnitude (a.u.)       :      0.65724
Magnitude (Debye)      :      1.67057

Rotational constants in cm-1:     4.139513     0.834111     0.809100
Rotational constants in MHz : 124099.487756 25006.015487 24256.198036

                             ****ORCA TERMINATED NORMALLY****
TOTAL RUN TIME: 0 days 0 hours 1 minutes 1 seconds 462 msec
