                         Program Version 4.1.2  - RELEASE  -
|  1> #Run DFT-D3 single point of the dimer
|  2> ! wB97X-D3 def2-TZVP TIGHTSCF CHELPG PMODEL PAL8
|  3>
|  4> %base "9-32_DFT_AB"
|  5>
|  6> %scf
|  7> MaxIter 1000
|  8> end
|  9>
| 10> * xyz 0 1
| 11>   C                      -2.236262            -7.219065            -3.038028
| 12>   O                      -2.089203            -8.488530            -3.702297
| 13>   H                      -2.620605            -8.479153            -4.503310
| 14>   H                      -1.906942            -6.405743            -3.624474
| 15>   H                      -3.225869            -6.961767            -2.730361
| 16>   H                      -1.644495            -7.133655            -2.155844
| 17>   C                      1.061126             -5.582666            -5.535615
| 18>   O                      1.556001             -6.689900            -6.140903
| 19>   H                      2.135670             -6.401627            -6.868289
| 20>   H                      1.822330             -4.909375            -5.115184
| 21>   H                      0.414181             -5.020178            -6.205043
| 22>   H                      0.333162             -5.885599            -4.781976
| 23> *
| 24>
| 25> #Run DFT-D3 single point of the molecule with dimer basis set
| 26> $new_job
| 27> %base "9-32_DFT_A"
| 28> ! wB97X-D3 def2-TZVP TIGHTSCF CHELPG PMODEL
| 29>
| 30> %scf
| 31> MaxIter 1000
| 32> end
| 33>
| 34> * xyz 0 1
| 35>   C                      -2.236262            -7.219065            -3.038028
| 36>   O                      -2.089203            -8.488530            -3.702297
| 37>   H                      -2.620605            -8.479153            -4.503310
| 38>   H                      -1.906942            -6.405743            -3.624474
| 39>   H                      -3.225869            -6.961767            -2.730361
| 40>   H                      -1.644495            -7.133655            -2.155844
| 41>   C                    : 1.061126             -5.582666            -5.535615
| 42>   O                    : 1.556001             -6.689900            -6.140903
| 43>   H                    : 2.135670             -6.401627            -6.868289
| 44>   H                    : 1.822330             -4.909375            -5.115184
| 45>   H                    : 0.414181             -5.020178            -6.205043
| 46>   H                    : 0.333162             -5.885599            -4.781976
| 47> *
| 48>
| 49> #Run DFT-D3 single point of the particle with dimer basis set
| 50> $new_job
| 51> %base "9-32_DFT_B"
| 52> ! wB97X-D3 def2-TZVP TIGHTSCF CHELPG PMODEL
| 53>
| 54> %scf
| 55> MaxIter 1000
| 56> end
| 57>
| 58> * xyz 0 1
| 59>   C                    : -2.236262            -7.219065            -3.038028
| 60>   O                    : -2.089203            -8.488530            -3.702297
| 61>   H                    : -2.620605            -8.479153            -4.503310
| 62>   H                    : -1.906942            -6.405743            -3.624474
| 63>   H                    : -3.225869            -6.961767            -2.730361
| 64>   H                    : -1.644495            -7.133655            -2.155844
| 65>   C                      1.061126             -5.582666            -5.535615
| 66>   O                      1.556001             -6.689900            -6.140903
| 67>   H                      2.135670             -6.401627            -6.868289
| 68>   H                      1.822330             -4.909375            -5.115184
| 69>   H                      0.414181             -5.020178            -6.205043
| 70>   H                      0.333162             -5.885599            -4.781976
| 71> *
| 72>
| 73>                          ****END OF INPUT****
 Total Charge           Charge          ....    0
 Multiplicity           Mult            ....    1
 Number of Electrons    NEL             ....   36
Dispersion correction           -0.001166974
FINAL SINGLE POINT ENERGY      -231.465484526937
Dispersion correction           -0.000258077
FINAL SINGLE POINT ENERGY      -115.732247289243

CARTESIAN COORDINATES (ANGSTROEM)
---------------------------------
  C     -2.236262   -7.219065   -3.038028
  O     -2.089203   -8.488530   -3.702297
  H     -2.620605   -8.479153   -4.503310
  H     -1.906942   -6.405743   -3.624474
  H     -3.225869   -6.961767   -2.730361
  H     -1.644495   -7.133655   -2.155844
  C      1.061126   -5.582666   -5.535615
  O      1.556001   -6.689900   -6.140903
  H      2.135670   -6.401627   -6.868289
  H      1.822330   -4.909375   -5.115184
  H      0.414181   -5.020178   -6.205043
  H      0.333162   -5.885599   -4.781976

 Multiplicity           Mult            ....    1
 Number of Electrons    NEL             ....   18
 Basis Dimension        Dim             ....  172

ORBITAL ENERGIES
----------------

  NO   OCC          E(Eh)            E(eV)
   0   2.0000     -19.231866      -523.3257
   1   2.0000     -10.306348      -280.4500
   2   2.0000      -1.153734       -31.3947
   3   2.0000      -0.792839       -21.5742
   4   2.0000      -0.620470       -16.8838
   5   2.0000      -0.552618       -15.0375
   6   2.0000      -0.531751       -14.4697
   7   2.0000      -0.426877       -11.6159
   8   2.0000      -0.370799       -10.0900
   9   0.0000       0.088488         2.4079
  10   0.0000       0.116255         3.1635
  11   0.0000       0.155773         4.2388
  12   0.0000       0.169356         4.6084
  13   0.0000       0.188903         5.1403

MULLIKEN ATOMIC CHARGES
-----------------------
   0 C :    0.001179
   1 O :   -0.000091
   2 H :   -0.000026
   3 H :   -0.000657
   4 H :    0.000046
   5 H :   -0.000368
   6 C :   -0.157006
   7 O :   -0.459281
   8 H :    0.317993
   9 H :    0.093817
  10 H :    0.089429
  11 H :    0.114965
Sum of atomic charges:    0.0000000

LOEWDIN ATOMIC CHARGES
----------------------
   0 C :   -0.001850
   1 O :   -0.000011
   2 H :   -0.000015
   3 H :   -0.002511
   4 H :   -0.000008
   5 H :   -0.000104
   6 C :   -0.436903
   7 O :   -0.036136
   8 H :    0.182864
   9 H :    0.093074
  10 H :    0.090559
  11 H :    0.111041

  Mayer bond orders larger than 0.1
B(  6-C ,  7-O ) :   1.0216 B(  6-C ,  9-H ) :   0.9750 B(  6-C , 10-H ) :   0.9828
B(  6-C , 11-H ) :   0.9710 B(  7-O ,  8-H ) :   0.8940

Dispersion correction           -0.000219521
FINAL SINGLE POINT ENERGY      -115.733259420325

DIPOLE MOMENT
-------------
                                X             Y             Z
Electronic contribution:      0.71472      -1.59194      -0.69758
Nuclear contribution   :     -0.54589       2.15986       0.45099
                        -----------------------------------------
Total Dipole Moment    :      0.16883       0.56791      -0.24659
                        -----------------------------------------
Magnitude (a.u.)       :      0.64174
Magnitude (Debye)      :      1.63118

Rotational constants in cm-1:     4.327406     0.886972     0.853850
Rotational constants in MHz : 129732.353712 26590.761450 25597.771548

                             ****ORCA TERMINATED NORMALLY****
TOTAL RUN TIME: 0 days 0 hours 0 minutes 42 seconds 225 msec
