                         Program Version 4.1.2  - RELEASE  -
|  1> #Run DFT-D3 single point of the dimer
|  2> ! wB97X-D3 def2-TZVP TIGHTSCF CHELPG PMODEL PAL8
|  3>
|  4> %base "8-56_DFT_AB"
|  5>
|  6> %scf
|  7> MaxIter 1000
|  8> end
|  9>
| 10> * xyz 0 1
| 11>   C                      6.612373             9.872498             10.935106
| 12>   O                      6.658939             8.784720             10.115513
| 13>   H                      7.112642             8.038896             10.574830
| 14>   H                      7.626650             10.041357            11.277156
| 15>   H                      6.384965             10.789706            10.351545
| 16>   H                      5.976746             9.789047             11.837496
| 17>   C                      5.754893             6.097062             8.882843
| 18>   O                      5.269778             6.465289             10.118696
| 19>   H                      5.525233             7.396811             10.175203
| 20>   H                      5.549808             5.035463             8.641466
| 21>   H                      5.309479             6.610149             8.022095
| 22>   H                      6.883333             6.227854             8.796637
| 23> *
| 24>
| 25> #Run DFT-D3 single point of the molecule with dimer basis set
| 26> $new_job
| 27> %base "8-56_DFT_A"
| 28> ! wB97X-D3 def2-TZVP TIGHTSCF CHELPG PMODEL
| 29>
| 30> %scf
| 31> MaxIter 1000
| 32> end
| 33>
| 34> * xyz 0 1
| 35>   C                      6.612373             9.872498             10.935106
| 36>   O                      6.658939             8.784720             10.115513
| 37>   H                      7.112642             8.038896             10.574830
| 38>   H                      7.626650             10.041357            11.277156
| 39>   H                      6.384965             10.789706            10.351545
| 40>   H                      5.976746             9.789047             11.837496
| 41>   C                    : 5.754893             6.097062             8.882843
| 42>   O                    : 5.269778             6.465289             10.118696
| 43>   H                    : 5.525233             7.396811             10.175203
| 44>   H                    : 5.549808             5.035463             8.641466
| 45>   H                    : 5.309479             6.610149             8.022095
| 46>   H                    : 6.883333             6.227854             8.796637
| 47> *
| 48>
| 49> #Run DFT-D3 single point of the particle with dimer basis set
| 50> $new_job
| 51> %base "8-56_DFT_B"
| 52> ! wB97X-D3 def2-TZVP TIGHTSCF CHELPG PMODEL
| 53>
| 54> %scf
| 55> MaxIter 1000
| 56> end
| 57>
| 58> * xyz 0 1
| 59>   C                    : 6.612373             9.872498             10.935106
| 60>   O                    : 6.658939             8.784720             10.115513
| 61>   H                    : 7.112642             8.038896             10.574830
| 62>   H                    : 7.626650             10.041357            11.277156
| 63>   H                    : 6.384965             10.789706            10.351545
| 64>   H                    : 5.976746             9.789047             11.837496
| 65>   C                      5.754893             6.097062             8.882843
| 66>   O                      5.269778             6.465289             10.118696
| 67>   H                      5.525233             7.396811             10.175203
| 68>   H                      5.549808             5.035463             8.641466
| 69>   H                      5.309479             6.610149             8.022095
| 70>   H                      6.883333             6.227854             8.796637
| 71> *
| 72>
| 73>                          ****END OF INPUT****
 Total Charge           Charge          ....    0
 Multiplicity           Mult            ....    1
 Number of Electrons    NEL             ....   36
Dispersion correction           -0.001819019
FINAL SINGLE POINT ENERGY      -231.470345690377
Dispersion correction           -0.000225081
FINAL SINGLE POINT ENERGY      -115.732154314695

CARTESIAN COORDINATES (ANGSTROEM)
---------------------------------
  C      6.612373    9.872498   10.935106
  O      6.658939    8.784720   10.115513
  H      7.112642    8.038896   10.574830
  H      7.626650   10.041357   11.277156
  H      6.384965   10.789706   10.351545
  H      5.976746    9.789047   11.837496
  C      5.754893    6.097062    8.882843
  O      5.269778    6.465289   10.118696
  H      5.525233    7.396811   10.175203
  H      5.549808    5.035463    8.641466
  H      5.309479    6.610149    8.022095
  H      6.883333    6.227854    8.796637

 Multiplicity           Mult            ....    1
 Number of Electrons    NEL             ....   18
 Basis Dimension        Dim             ....  172

ORBITAL ENERGIES
----------------

  NO   OCC          E(Eh)            E(eV)
   0   2.0000     -19.239368      -523.5298
   1   2.0000     -10.316363      -280.7225
   2   2.0000      -1.154096       -31.4046
   3   2.0000      -0.788919       -21.4676
   4   2.0000      -0.617962       -16.8156
   5   2.0000      -0.543535       -14.7903
   6   2.0000      -0.532235       -14.4829
   7   2.0000      -0.433955       -11.8085
   8   2.0000      -0.375008       -10.2045
   9   0.0000       0.071300         1.9402
  10   0.0000       0.129819         3.5326
  11   0.0000       0.153913         4.1882
  12   0.0000       0.169668         4.6169
  13   0.0000       0.190686         5.1888

MULLIKEN ATOMIC CHARGES
-----------------------
   0 C :   -0.001743
   1 O :   -0.005656
   2 H :   -0.004711
   3 H :    0.000095
   4 H :    0.000113
   5 H :   -0.000219
   6 C :   -0.179371
   7 O :   -0.444815
   8 H :    0.323206
   9 H :    0.117886
  10 H :    0.100364
  11 H :    0.094850
Sum of atomic charges:   -0.0000000

LOEWDIN ATOMIC CHARGES
----------------------
   0 C :   -0.003999
   1 O :   -0.027743
   2 H :   -0.011825
   3 H :   -0.000087
   4 H :   -0.000066
   5 H :   -0.000296
   6 C :   -0.429666
   7 O :   -0.026469
   8 H :    0.197415
   9 H :    0.109982
  10 H :    0.092488
  11 H :    0.100267

  Mayer bond orders larger than 0.1
B(  6-C ,  7-O ) :   1.0086 B(  6-C ,  9-H ) :   0.9732 B(  6-C , 10-H ) :   0.9757
B(  6-C , 11-H ) :   0.9753 B(  7-O ,  8-H ) :   0.9010

Dispersion correction           -0.000233856
FINAL SINGLE POINT ENERGY      -115.733473669255

DIPOLE MOMENT
-------------
                                X             Y             Z
Electronic contribution:     -0.80945       0.39072       1.81286
Nuclear contribution   :      1.10891       0.03571      -2.22129
                        -----------------------------------------
Total Dipole Moment    :      0.29946       0.42643      -0.40843
                        -----------------------------------------
Magnitude (a.u.)       :      0.66207
Magnitude (Debye)      :      1.68284

Rotational constants in cm-1:     4.244060     0.856652     0.825078
Rotational constants in MHz : 127233.706491 25681.768486 24735.212871

                             ****ORCA TERMINATED NORMALLY****
TOTAL RUN TIME: 0 days 0 hours 0 minutes 48 seconds 190 msec
