                         Program Version 4.1.2  - RELEASE  -
|  1> #Run DFT-D3 single point of the dimer
|  2> ! wB97X-D3 def2-TZVP TIGHTSCF CHELPG PMODEL PAL8
|  3>
|  4> %base "16-192_DFT_AB"
|  5>
|  6> %scf
|  7> MaxIter 1000
|  8> end
|  9>
| 10> * xyz 0 1
| 11>   C                      10.999349            -5.266649            -1.319768
| 12>   O                      11.616505            -5.919857            -0.228641
| 13>   H                      10.790786            -6.069596            0.322672
| 14>   H                      11.675425            -4.939022            -2.153195
| 15>   H                      10.217054            -5.852464            -1.723310
| 16>   H                      10.436245            -4.378384            -0.978400
| 17>   C                      6.922900             -5.556759            0.074989
| 18>   O                      8.298759             -5.505430            0.194279
| 19>   H                      8.562982             -6.410591            0.330391
| 20>   H                      6.585637             -5.093060            -0.834594
| 21>   H                      6.477739             -6.565026            0.095750
| 22>   H                      6.474502             -4.883424            0.848829
| 23> *
| 24>
| 25> #Run DFT-D3 single point of the molecule with dimer basis set
| 26> $new_job
| 27> %base "16-192_DFT_A"
| 28> ! wB97X-D3 def2-TZVP TIGHTSCF CHELPG PMODEL
| 29>
| 30> %scf
| 31> MaxIter 1000
| 32> end
| 33>
| 34> * xyz 0 1
| 35>   C                      10.999349            -5.266649            -1.319768
| 36>   O                      11.616505            -5.919857            -0.228641
| 37>   H                      10.790786            -6.069596            0.322672
| 38>   H                      11.675425            -4.939022            -2.153195
| 39>   H                      10.217054            -5.852464            -1.723310
| 40>   H                      10.436245            -4.378384            -0.978400
| 41>   C                    : 6.922900             -5.556759            0.074989
| 42>   O                    : 8.298759             -5.505430            0.194279
| 43>   H                    : 8.562982             -6.410591            0.330391
| 44>   H                    : 6.585637             -5.093060            -0.834594
| 45>   H                    : 6.477739             -6.565026            0.095750
| 46>   H                    : 6.474502             -4.883424            0.848829
| 47> *
| 48>
| 49> #Run DFT-D3 single point of the particle with dimer basis set
| 50> $new_job
| 51> %base "16-192_DFT_B"
| 52> ! wB97X-D3 def2-TZVP TIGHTSCF CHELPG PMODEL
| 53>
| 54> %scf
| 55> MaxIter 1000
| 56> end
| 57>
| 58> * xyz 0 1
| 59>   C                    : 10.999349            -5.266649            -1.319768
| 60>   O                    : 11.616505            -5.919857            -0.228641
| 61>   H                    : 10.790786            -6.069596            0.322672
| 62>   H                    : 11.675425            -4.939022            -2.153195
| 63>   H                    : 10.217054            -5.852464            -1.723310
| 64>   H                    : 10.436245            -4.378384            -0.978400
| 65>   C                      6.922900             -5.556759            0.074989
| 66>   O                      8.298759             -5.505430            0.194279
| 67>   H                      8.562982             -6.410591            0.330391
| 68>   H                      6.585637             -5.093060            -0.834594
| 69>   H                      6.477739             -6.565026            0.095750
| 70>   H                      6.474502             -4.883424            0.848829
| 71> *
| 72>
| 73>                          ****END OF INPUT****
 Total Charge           Charge          ....    0
 Multiplicity           Mult            ....    1
 Number of Electrons    NEL             ....   36
Dispersion correction           -0.001922629
FINAL SINGLE POINT ENERGY      -231.460629138130
Dispersion correction           -0.000215747
FINAL SINGLE POINT ENERGY      -115.727230875436

CARTESIAN COORDINATES (ANGSTROEM)
---------------------------------
  C     10.999349   -5.266649   -1.319768
  O     11.616505   -5.919857   -0.228641
  H     10.790786   -6.069596    0.322672
  H     11.675425   -4.939022   -2.153195
  H     10.217054   -5.852464   -1.723310
  H     10.436245   -4.378384   -0.978400
  C      6.922900   -5.556759    0.074989
  O      8.298759   -5.505430    0.194279
  H      8.562982   -6.410591    0.330391
  H      6.585637   -5.093060   -0.834594
  H      6.477739   -6.565026    0.095750
  H      6.474502   -4.883424    0.848829

 Multiplicity           Mult            ....    1
 Number of Electrons    NEL             ....   18
 Basis Dimension        Dim             ....  172

ORBITAL ENERGIES
----------------

  NO   OCC          E(Eh)            E(eV)
   0   2.0000     -19.233170      -523.3612
   1   2.0000     -10.311434      -280.5884
   2   2.0000      -1.152132       -31.3511
   3   2.0000      -0.793916       -21.6036
   4   2.0000      -0.621138       -16.9020
   5   2.0000      -0.537680       -14.6310
   6   2.0000      -0.534401       -14.5418
   7   2.0000      -0.442058       -12.0290
   8   2.0000      -0.368743       -10.0340
   9   0.0000       0.093809         2.5527
  10   0.0000       0.127741         3.4760
  11   0.0000       0.153173         4.1681
  12   0.0000       0.185390         5.0447
  13   0.0000       0.192468         5.2373

MULLIKEN ATOMIC CHARGES
-----------------------
   0 C :    0.017318
   1 O :   -0.000220
   2 H :   -0.003964
   3 H :   -0.000657
   4 H :   -0.015204
   5 H :   -0.008519
   6 C :   -0.179784
   7 O :   -0.440923
   8 H :    0.319512
   9 H :    0.106122
  10 H :    0.104311
  11 H :    0.102007
Sum of atomic charges:    0.0000000

LOEWDIN ATOMIC CHARGES
----------------------
   0 C :   -0.015390
   1 O :   -0.000388
   2 H :   -0.006108
   3 H :   -0.000130
   4 H :   -0.006959
   5 H :   -0.006513
   6 C :   -0.415365
   7 O :   -0.021971
   8 H :    0.174780
   9 H :    0.094497
  10 H :    0.098791
  11 H :    0.104755

  Mayer bond orders larger than 0.1
B(  6-C ,  7-O ) :   1.0170 B(  6-C ,  9-H ) :   0.9793 B(  6-C , 10-H ) :   0.9797
B(  6-C , 11-H ) :   0.9797 B(  7-O ,  8-H ) :   0.8963

Dispersion correction           -0.000237837
FINAL SINGLE POINT ENERGY      -115.732455529728

DIPOLE MOMENT
-------------
                                X             Y             Z
Electronic contribution:      1.88630       0.07843       0.14042
Nuclear contribution   :     -2.23241      -0.69010      -0.10754
                        -----------------------------------------
Total Dipole Moment    :     -0.34611      -0.61167       0.03288
                        -----------------------------------------
Magnitude (a.u.)       :      0.70357
Magnitude (Debye)      :      1.78834

Rotational constants in cm-1:     4.302691     0.867681     0.824541
Rotational constants in MHz : 128991.430423 26012.413004 24719.119620

                             ****ORCA TERMINATED NORMALLY****
TOTAL RUN TIME: 0 days 0 hours 1 minutes 5 seconds 836 msec
