                         Program Version 4.1.2  - RELEASE  -
|  1> #Run DFT-D3 single point of the dimer
|  2> ! wB97X-D3 def2-TZVP TIGHTSCF CHELPG PMODEL PAL8
|  3>
|  4> %base "22-108_DFT_AB"
|  5>
|  6> %scf
|  7> MaxIter 1000
|  8> end
|  9>
| 10> * xyz 0 1
| 11>   C                      -3.235452            7.974834             -3.610997
| 12>   O                      -2.335744            9.037216             -3.968717
| 13>   H                      -2.699700            9.576640             -4.691973
| 14>   H                      -3.591304            8.059104             -2.564382
| 15>   H                      -4.201722            8.035616             -4.246307
| 16>   H                      -2.818901            6.977032             -3.763111
| 17>   C                      -5.583380            10.547708            -4.794975
| 18>   O                      -4.322914            10.563281            -5.290126
| 19>   H                      -4.382848            10.627977            -6.245043
| 20>   H                      -5.522878            10.291070            -3.754556
| 21>   H                      -5.904439            11.575678            -4.861461
| 22>   H                      -6.284927            9.842735             -5.113026
| 23> *
| 24>
| 25> #Run DFT-D3 single point of the molecule with dimer basis set
| 26> $new_job
| 27> %base "22-108_DFT_A"
| 28> ! wB97X-D3 def2-TZVP TIGHTSCF CHELPG PMODEL
| 29>
| 30> %scf
| 31> MaxIter 1000
| 32> end
| 33>
| 34> * xyz 0 1
| 35>   C                      -3.235452            7.974834             -3.610997
| 36>   O                      -2.335744            9.037216             -3.968717
| 37>   H                      -2.699700            9.576640             -4.691973
| 38>   H                      -3.591304            8.059104             -2.564382
| 39>   H                      -4.201722            8.035616             -4.246307
| 40>   H                      -2.818901            6.977032             -3.763111
| 41>   C                    : -5.583380            10.547708            -4.794975
| 42>   O                    : -4.322914            10.563281            -5.290126
| 43>   H                    : -4.382848            10.627977            -6.245043
| 44>   H                    : -5.522878            10.291070            -3.754556
| 45>   H                    : -5.904439            11.575678            -4.861461
| 46>   H                    : -6.284927            9.842735             -5.113026
| 47> *
| 48>
| 49> #Run DFT-D3 single point of the particle with dimer basis set
| 50> $new_job
| 51> %base "22-108_DFT_B"
| 52> ! wB97X-D3 def2-TZVP TIGHTSCF CHELPG PMODEL
| 53>
| 54> %scf
| 55> MaxIter 1000
| 56> end
| 57>
| 58> * xyz 0 1
| 59>   C                    : -3.235452            7.974834             -3.610997
| 60>   O                    : -2.335744            9.037216             -3.968717
| 61>   H                    : -2.699700            9.576640             -4.691973
| 62>   H                    : -3.591304            8.059104             -2.564382
| 63>   H                    : -4.201722            8.035616             -4.246307
| 64>   H                    : -2.818901            6.977032             -3.763111
| 65>   C                      -5.583380            10.547708            -4.794975
| 66>   O                      -4.322914            10.563281            -5.290126
| 67>   H                      -4.382848            10.627977            -6.245043
| 68>   H                      -5.522878            10.291070            -3.754556
| 69>   H                      -5.904439            11.575678            -4.861461
| 70>   H                      -6.284927            9.842735             -5.113026
| 71> *
| 72>
| 73>                          ****END OF INPUT****
 Total Charge           Charge          ....    0
 Multiplicity           Mult            ....    1
 Number of Electrons    NEL             ....   36
Dispersion correction           -0.002263621
FINAL SINGLE POINT ENERGY      -231.465216539872
Dispersion correction           -0.000279436
FINAL SINGLE POINT ENERGY      -115.732146077819

CARTESIAN COORDINATES (ANGSTROEM)
---------------------------------
  C     -3.235452    7.974834   -3.610997
  O     -2.335744    9.037216   -3.968717
  H     -2.699700    9.576640   -4.691973
  H     -3.591304    8.059104   -2.564382
  H     -4.201722    8.035616   -4.246307
  H     -2.818901    6.977032   -3.763111
  C     -5.583380   10.547708   -4.794975
  O     -4.322914   10.563281   -5.290126
  H     -4.382848   10.627977   -6.245043
  H     -5.522878   10.291070   -3.754556
  H     -5.904439   11.575678   -4.861461
  H     -6.284927    9.842735   -5.113026

 Multiplicity           Mult            ....    1
 Number of Electrons    NEL             ....   18
 Basis Dimension        Dim             ....  172

ORBITAL ENERGIES
----------------

  NO   OCC          E(Eh)            E(eV)
   0   2.0000     -19.229327      -523.2566
   1   2.0000     -10.296665      -280.1865
   2   2.0000      -1.156600       -31.4727
   3   2.0000      -0.800799       -21.7908
   4   2.0000      -0.623142       -16.9566
   5   2.0000      -0.564342       -15.3565
   6   2.0000      -0.529776       -14.4159
   7   2.0000      -0.425774       -11.5859
   8   2.0000      -0.372027       -10.1234
   9   0.0000       0.096722         2.6319
  10   0.0000       0.129877         3.5341
  11   0.0000       0.155923         4.2429
  12   0.0000       0.188798         5.1374
  13   0.0000       0.203852         5.5471

MULLIKEN ATOMIC CHARGES
-----------------------
   0 C :    0.003716
   1 O :    0.000360
   2 H :   -0.009851
   3 H :   -0.001032
   4 H :   -0.002547
   5 H :   -0.000014
   6 C :   -0.160801
   7 O :   -0.462370
   8 H :    0.313441
   9 H :    0.110683
  10 H :    0.102220
  11 H :    0.106196
Sum of atomic charges:   -0.0000000

LOEWDIN ATOMIC CHARGES
----------------------
   0 C :   -0.007639
   1 O :   -0.006228
   2 H :   -0.038052
   3 H :   -0.000317
   4 H :   -0.004472
   5 H :   -0.000043
   6 C :   -0.424315
   7 O :    0.013944
   8 H :    0.173958
   9 H :    0.109280
  10 H :    0.098194
  11 H :    0.085691

  Mayer bond orders larger than 0.1
B(  6-C ,  7-O ) :   0.9884 B(  6-C ,  9-H ) :   0.9795 B(  6-C , 10-H ) :   0.9900
B(  6-C , 11-H ) :   0.9673 B(  7-O ,  8-H ) :   0.8972

Dispersion correction           -0.000208296
FINAL SINGLE POINT ENERGY      -115.726469832188

DIPOLE MOMENT
-------------
                                X             Y             Z
Electronic contribution:      1.65308      -0.07571      -0.68312
Nuclear contribution   :     -2.15707       0.09112       0.27318
                        -----------------------------------------
Total Dipole Moment    :     -0.50398       0.01541      -0.40995
                        -----------------------------------------
Magnitude (a.u.)       :      0.64984
Magnitude (Debye)      :      1.65177

Rotational constants in cm-1:     4.544273     0.892681     0.870274
Rotational constants in MHz : 136233.871753 26761.890214 26090.168110

                             ****ORCA TERMINATED NORMALLY****
TOTAL RUN TIME: 0 days 0 hours 1 minutes 4 seconds 512 msec
