                         Program Version 4.1.2  - RELEASE  -
|  1> #Run DFT-D3 single point of the dimer
|  2> ! wB97X-D3 def2-TZVP TIGHTSCF CHELPG PMODEL PAL8
|  3>
|  4> %base "17-42_DFT_AB"
|  5>
|  6> %scf
|  7> MaxIter 1000
|  8> end
|  9>
| 10> * xyz 0 1
| 11>   C                      8.855435             2.500085             -1.398292
| 12>   O                      8.460156             1.355056             -0.672985
| 13>   H                      9.255421             1.118995             -0.121987
| 14>   H                      9.214119             3.364614             -0.741264
| 15>   H                      9.646805             2.202095             -2.062144
| 16>   H                      8.024161             2.826217             -2.019382
| 17>   C                      6.352193             4.195746             -4.190666
| 18>   O                      5.100575             4.500113             -4.616961
| 19>   H                      4.495087             4.304367             -3.860152
| 20>   H                      7.093230             4.700914             -4.815245
| 21>   H                      6.551793             4.589563             -3.174605
| 22>   H                      6.623159             3.143777             -4.209572
| 23> *
| 24>
| 25> #Run DFT-D3 single point of the molecule with dimer basis set
| 26> $new_job
| 27> %base "17-42_DFT_A"
| 28> ! wB97X-D3 def2-TZVP TIGHTSCF CHELPG PMODEL
| 29>
| 30> %scf
| 31> MaxIter 1000
| 32> end
| 33>
| 34> * xyz 0 1
| 35>   C                      8.855435             2.500085             -1.398292
| 36>   O                      8.460156             1.355056             -0.672985
| 37>   H                      9.255421             1.118995             -0.121987
| 38>   H                      9.214119             3.364614             -0.741264
| 39>   H                      9.646805             2.202095             -2.062144
| 40>   H                      8.024161             2.826217             -2.019382
| 41>   C                    : 6.352193             4.195746             -4.190666
| 42>   O                    : 5.100575             4.500113             -4.616961
| 43>   H                    : 4.495087             4.304367             -3.860152
| 44>   H                    : 7.093230             4.700914             -4.815245
| 45>   H                    : 6.551793             4.589563             -3.174605
| 46>   H                    : 6.623159             3.143777             -4.209572
| 47> *
| 48>
| 49> #Run DFT-D3 single point of the particle with dimer basis set
| 50> $new_job
| 51> %base "17-42_DFT_B"
| 52> ! wB97X-D3 def2-TZVP TIGHTSCF CHELPG PMODEL
| 53>
| 54> %scf
| 55> MaxIter 1000
| 56> end
| 57>
| 58> * xyz 0 1
| 59>   C                    : 8.855435             2.500085             -1.398292
| 60>   O                    : 8.460156             1.355056             -0.672985
| 61>   H                    : 9.255421             1.118995             -0.121987
| 62>   H                    : 9.214119             3.364614             -0.741264
| 63>   H                    : 9.646805             2.202095             -2.062144
| 64>   H                    : 8.024161             2.826217             -2.019382
| 65>   C                      6.352193             4.195746             -4.190666
| 66>   O                      5.100575             4.500113             -4.616961
| 67>   H                      4.495087             4.304367             -3.860152
| 68>   H                      7.093230             4.700914             -4.815245
| 69>   H                      6.551793             4.589563             -3.174605
| 70>   H                      6.623159             3.143777             -4.209572
| 71> *
| 72>
| 73>                          ****END OF INPUT****
 Total Charge           Charge          ....    0
 Multiplicity           Mult            ....    1
 Number of Electrons    NEL             ....   36
Dispersion correction           -0.001238211
FINAL SINGLE POINT ENERGY      -231.467313853542
Dispersion correction           -0.000231603
FINAL SINGLE POINT ENERGY      -115.733404781169

CARTESIAN COORDINATES (ANGSTROEM)
---------------------------------
  C      8.855435    2.500085   -1.398292
  O      8.460156    1.355056   -0.672985
  H      9.255421    1.118995   -0.121987
  H      9.214119    3.364614   -0.741264
  H      9.646805    2.202095   -2.062144
  H      8.024161    2.826217   -2.019382
  C      6.352193    4.195746   -4.190666
  O      5.100575    4.500113   -4.616961
  H      4.495087    4.304367   -3.860152
  H      7.093230    4.700914   -4.815245
  H      6.551793    4.589563   -3.174605
  H      6.623159    3.143777   -4.209572

 Multiplicity           Mult            ....    1
 Number of Electrons    NEL             ....   18
 Basis Dimension        Dim             ....  172

ORBITAL ENERGIES
----------------

  NO   OCC          E(Eh)            E(eV)
   0   2.0000     -19.235664      -523.4290
   1   2.0000     -10.307336      -280.4769
   2   2.0000      -1.152785       -31.3689
   3   2.0000      -0.790306       -21.5053
   4   2.0000      -0.619452       -16.8561
   5   2.0000      -0.548725       -14.9316
   6   2.0000      -0.534380       -14.5412
   7   2.0000      -0.426700       -11.6111
   8   2.0000      -0.372678       -10.1411
   9   0.0000       0.083293         2.2665
  10   0.0000       0.112573         3.0633
  11   0.0000       0.146686         3.9915
  12   0.0000       0.175831         4.7846
  13   0.0000       0.187538         5.1032

MULLIKEN ATOMIC CHARGES
-----------------------
   0 C :    0.004737
   1 O :   -0.000069
   2 H :    0.000001
   3 H :   -0.000181
   4 H :   -0.000234
   5 H :   -0.009132
   6 C :   -0.145407
   7 O :   -0.454260
   8 H :    0.320233
   9 H :    0.104699
  10 H :    0.088601
  11 H :    0.091013
Sum of atomic charges:   -0.0000000

LOEWDIN ATOMIC CHARGES
----------------------
   0 C :   -0.001685
   1 O :   -0.000007
   2 H :   -0.000002
   3 H :   -0.000037
   4 H :   -0.000026
   5 H :   -0.004791
   6 C :   -0.439603
   7 O :   -0.040398
   8 H :    0.193804
   9 H :    0.106943
  10 H :    0.095772
  11 H :    0.090030

  Mayer bond orders larger than 0.1
B(  6-C ,  7-O ) :   1.0265 B(  6-C ,  9-H ) :   0.9701 B(  6-C , 10-H ) :   0.9861
B(  6-C , 11-H ) :   0.9697 B(  7-O ,  8-H ) :   0.8926

Dispersion correction           -0.000226117
FINAL SINGLE POINT ENERGY      -115.733201938264

DIPOLE MOMENT
-------------
                                X             Y             Z
Electronic contribution:     -1.74428       0.39634      -0.75841
Nuclear contribution   :      1.80689      -0.60442       1.37192
                        -----------------------------------------
Total Dipole Moment    :      0.06262      -0.20809       0.61350
                        -----------------------------------------
Magnitude (a.u.)       :      0.65085
Magnitude (Debye)      :      1.65433

Rotational constants in cm-1:     4.311738     0.881375     0.848739
Rotational constants in MHz : 129262.651971 26422.956111 25444.559823

                             ****ORCA TERMINATED NORMALLY****
TOTAL RUN TIME: 0 days 0 hours 1 minutes 10 seconds 957 msec
