                         Program Version 4.1.2  - RELEASE  -
|  1> #Run DFT-D3 single point of the dimer
|  2> ! wB97X-D3 def2-TZVP TIGHTSCF CHELPG PMODEL PAL8
|  3>
|  4> %base "10-133_DFT_AB"
|  5>
|  6> %scf
|  7> MaxIter 1000
|  8> end
|  9>
| 10> * xyz 0 1
| 11>   C                      3.771709             8.520026             -2.309033
| 12>   O                      4.367163             8.443631             -3.620214
| 13>   H                      5.116592             9.031496             -3.647781
| 14>   H                      3.720613             9.562944             -1.984320
| 15>   H                      2.808419             8.065377             -2.246526
| 16>   H                      4.336444             7.999039             -1.611922
| 17>   C                      3.499586             8.319768             -7.141324
| 18>   O                      2.321511             8.924710             -6.484986
| 19>   H                      2.518691             9.534076             -5.769485
| 20>   H                      3.785110             7.387685             -6.723798
| 21>   H                      3.415933             8.256690             -8.169854
| 22>   H                      4.386838             8.958711             -7.198337
| 23> *
| 24>
| 25> #Run DFT-D3 single point of the molecule with dimer basis set
| 26> $new_job
| 27> %base "10-133_DFT_A"
| 28> ! wB97X-D3 def2-TZVP TIGHTSCF CHELPG PMODEL
| 29>
| 30> %scf
| 31> MaxIter 1000
| 32> end
| 33>
| 34> * xyz 0 1
| 35>   C                      3.771709             8.520026             -2.309033
| 36>   O                      4.367163             8.443631             -3.620214
| 37>   H                      5.116592             9.031496             -3.647781
| 38>   H                      3.720613             9.562944             -1.984320
| 39>   H                      2.808419             8.065377             -2.246526
| 40>   H                      4.336444             7.999039             -1.611922
| 41>   C                    : 3.499586             8.319768             -7.141324
| 42>   O                    : 2.321511             8.924710             -6.484986
| 43>   H                    : 2.518691             9.534076             -5.769485
| 44>   H                    : 3.785110             7.387685             -6.723798
| 45>   H                    : 3.415933             8.256690             -8.169854
| 46>   H                    : 4.386838             8.958711             -7.198337
| 47> *
| 48>
| 49> #Run DFT-D3 single point of the particle with dimer basis set
| 50> $new_job
| 51> %base "10-133_DFT_B"
| 52> ! wB97X-D3 def2-TZVP TIGHTSCF CHELPG PMODEL
| 53>
| 54> %scf
| 55> MaxIter 1000
| 56> end
| 57>
| 58> * xyz 0 1
| 59>   C                    : 3.771709             8.520026             -2.309033
| 60>   O                    : 4.367163             8.443631             -3.620214
| 61>   H                    : 5.116592             9.031496             -3.647781
| 62>   H                    : 3.720613             9.562944             -1.984320
| 63>   H                    : 2.808419             8.065377             -2.246526
| 64>   H                    : 4.336444             7.999039             -1.611922
| 65>   C                      3.499586             8.319768             -7.141324
| 66>   O                      2.321511             8.924710             -6.484986
| 67>   H                      2.518691             9.534076             -5.769485
| 68>   H                      3.785110             7.387685             -6.723798
| 69>   H                      3.415933             8.256690             -8.169854
| 70>   H                      4.386838             8.958711             -7.198337
| 71> *
| 72>
| 73>                          ****END OF INPUT****
 Total Charge           Charge          ....    0
 Multiplicity           Mult            ....    1
 Number of Electrons    NEL             ....   36
Dispersion correction           -0.001571779
FINAL SINGLE POINT ENERGY      -231.456618749780
Dispersion correction           -0.000238944
FINAL SINGLE POINT ENERGY      -115.732396975903

CARTESIAN COORDINATES (ANGSTROEM)
---------------------------------
  C      3.771709    8.520026   -2.309033
  O      4.367163    8.443631   -3.620214
  H      5.116592    9.031496   -3.647781
  H      3.720613    9.562944   -1.984320
  H      2.808419    8.065377   -2.246526
  H      4.336444    7.999039   -1.611922
  C      3.499586    8.319768   -7.141324
  O      2.321511    8.924710   -6.484986
  H      2.518691    9.534076   -5.769485
  H      3.785110    7.387685   -6.723798
  H      3.415933    8.256690   -8.169854
  H      4.386838    8.958711   -7.198337

 Multiplicity           Mult            ....    1
 Number of Electrons    NEL             ....   18
 Basis Dimension        Dim             ....  172

ORBITAL ENERGIES
----------------

  NO   OCC          E(Eh)            E(eV)
   0   2.0000     -19.229876      -523.2715
   1   2.0000     -10.310303      -280.5576
   2   2.0000      -1.113434       -30.2981
   3   2.0000      -0.813854       -22.1461
   4   2.0000      -0.605166       -16.4674
   5   2.0000      -0.550800       -14.9880
   6   2.0000      -0.512604       -13.9487
   7   2.0000      -0.422469       -11.4960
   8   2.0000      -0.381511       -10.3814
   9   0.0000       0.075092         2.0434
  10   0.0000       0.126089         3.4311
  11   0.0000       0.141027         3.8375
  12   0.0000       0.171254         4.6601
  13   0.0000       0.185288         5.0419

MULLIKEN ATOMIC CHARGES
-----------------------
   0 C :   -0.001424
   1 O :   -0.000160
   2 H :   -0.000143
   3 H :    0.000144
   4 H :   -0.000011
   5 H :   -0.000037
   6 C :   -0.169834
   7 O :   -0.502411
   8 H :    0.320693
   9 H :    0.116300
  10 H :    0.130561
  11 H :    0.106324
Sum of atomic charges:   -0.0000000

LOEWDIN ATOMIC CHARGES
----------------------
   0 C :   -0.000894
   1 O :   -0.001630
   2 H :   -0.000285
   3 H :   -0.000018
   4 H :   -0.000114
   5 H :   -0.000027
   6 C :   -0.334529
   7 O :   -0.117916
   8 H :    0.162295
   9 H :    0.093473
  10 H :    0.096407
  11 H :    0.103238

  Mayer bond orders larger than 0.1
B(  6-C ,  7-O ) :   0.9943 B(  6-C ,  9-H ) :   0.9779 B(  6-C , 10-H ) :   0.9704
B(  6-C , 11-H ) :   0.9763 B(  7-O ,  8-H ) :   0.8954

Dispersion correction           -0.000301399
FINAL SINGLE POINT ENERGY      -115.722219166054

DIPOLE MOMENT
-------------
                                X             Y             Z
Electronic contribution:     -1.60914       0.57782       0.78171
Nuclear contribution   :      2.28744      -0.42571      -0.64808
                        -----------------------------------------
Total Dipole Moment    :      0.67829       0.15211       0.13364
                        -----------------------------------------
Magnitude (a.u.)       :      0.70787
Magnitude (Debye)      :      1.79926

Rotational constants in cm-1:     4.777342     0.750334     0.740942
Rotational constants in MHz : 143221.121132 22494.458867 22212.879714

                             ****ORCA TERMINATED NORMALLY****
TOTAL RUN TIME: 0 days 0 hours 1 minutes 3 seconds 522 msec
