                         Program Version 4.1.2  - RELEASE  -
|  1> #Run DFT-D3 single point of the dimer
|  2> ! wB97X-D3 def2-TZVP TIGHTSCF CHELPG PMODEL PAL8
|  3>
|  4> %base "20-24_DFT_AB"
|  5>
|  6> %scf
|  7> MaxIter 1000
|  8> end
|  9>
| 10> * xyz 0 1
| 11>   C                      7.022081             -8.326697            9.853911
| 12>   O                      7.322670             -8.141552            11.271273
| 13>   H                      6.715127             -8.811474            11.650271
| 14>   H                      7.204798             -7.429468            9.312744
| 15>   H                      7.707695             -9.087207            9.380179
| 16>   H                      5.996552             -8.662078            9.599881
| 17>   C                      4.619494             -5.669133            9.328870
| 18>   O                      5.415506             -5.051413            8.453942
| 19>   H                      5.431894             -4.151331            8.758755
| 20>   H                      5.132494             -6.027316            10.281299
| 21>   H                      3.793606             -5.067204            9.683257
| 22>   H                      4.142823             -6.556134            8.824996
| 23> *
| 24>
| 25> #Run DFT-D3 single point of the molecule with dimer basis set
| 26> $new_job
| 27> %base "20-24_DFT_A"
| 28> ! wB97X-D3 def2-TZVP TIGHTSCF CHELPG PMODEL
| 29>
| 30> %scf
| 31> MaxIter 1000
| 32> end
| 33>
| 34> * xyz 0 1
| 35>   C                      7.022081             -8.326697            9.853911
| 36>   O                      7.322670             -8.141552            11.271273
| 37>   H                      6.715127             -8.811474            11.650271
| 38>   H                      7.204798             -7.429468            9.312744
| 39>   H                      7.707695             -9.087207            9.380179
| 40>   H                      5.996552             -8.662078            9.599881
| 41>   C                    : 4.619494             -5.669133            9.328870
| 42>   O                    : 5.415506             -5.051413            8.453942
| 43>   H                    : 5.431894             -4.151331            8.758755
| 44>   H                    : 5.132494             -6.027316            10.281299
| 45>   H                    : 3.793606             -5.067204            9.683257
| 46>   H                    : 4.142823             -6.556134            8.824996
| 47> *
| 48>
| 49> #Run DFT-D3 single point of the particle with dimer basis set
| 50> $new_job
| 51> %base "20-24_DFT_B"
| 52> ! wB97X-D3 def2-TZVP TIGHTSCF CHELPG PMODEL
| 53>
| 54> %scf
| 55> MaxIter 1000
| 56> end
| 57>
| 58> * xyz 0 1
| 59>   C                    : 7.022081             -8.326697            9.853911
| 60>   O                    : 7.322670             -8.141552            11.271273
| 61>   H                    : 6.715127             -8.811474            11.650271
| 62>   H                    : 7.204798             -7.429468            9.312744
| 63>   H                    : 7.707695             -9.087207            9.380179
| 64>   H                    : 5.996552             -8.662078            9.599881
| 65>   C                      4.619494             -5.669133            9.328870
| 66>   O                      5.415506             -5.051413            8.453942
| 67>   H                      5.431894             -4.151331            8.758755
| 68>   H                      5.132494             -6.027316            10.281299
| 69>   H                      3.793606             -5.067204            9.683257
| 70>   H                      4.142823             -6.556134            8.824996
| 71> *
| 72>
| 73>                          ****END OF INPUT****
 Total Charge           Charge          ....    0
 Multiplicity           Mult            ....    1
 Number of Electrons    NEL             ....   36
Dispersion correction           -0.001887001
FINAL SINGLE POINT ENERGY      -231.462002011803
Dispersion correction           -0.000267013
FINAL SINGLE POINT ENERGY      -115.730607800821

CARTESIAN COORDINATES (ANGSTROEM)
---------------------------------
  C      7.022081   -8.326697    9.853911
  O      7.322670   -8.141552   11.271273
  H      6.715127   -8.811474   11.650271
  H      7.204798   -7.429468    9.312744
  H      7.707695   -9.087207    9.380179
  H      5.996552   -8.662078    9.599881
  C      4.619494   -5.669133    9.328870
  O      5.415506   -5.051413    8.453942
  H      5.431894   -4.151331    8.758755
  H      5.132494   -6.027316   10.281299
  H      3.793606   -5.067204    9.683257
  H      4.142823   -6.556134    8.824996

 Multiplicity           Mult            ....    1
 Number of Electrons    NEL             ....   18
 Basis Dimension        Dim             ....  172

ORBITAL ENERGIES
----------------

  NO   OCC          E(Eh)            E(eV)
   0   2.0000     -19.235258      -523.4180
   1   2.0000     -10.312573      -280.6194
   2   2.0000      -1.171878       -31.8884
   3   2.0000      -0.787526       -21.4297
   4   2.0000      -0.633387       -17.2353
   5   2.0000      -0.546214       -14.8632
   6   2.0000      -0.536007       -14.5855
   7   2.0000      -0.431802       -11.7499
   8   2.0000      -0.370468       -10.0810
   9   0.0000       0.089874         2.4456
  10   0.0000       0.118900         3.2354
  11   0.0000       0.158775         4.3205
  12   0.0000       0.169349         4.6082
  13   0.0000       0.194866         5.3026

MULLIKEN ATOMIC CHARGES
-----------------------
   0 C :    0.003739
   1 O :   -0.000382
   2 H :   -0.000303
   3 H :   -0.001204
   4 H :    0.000175
   5 H :   -0.001576
   6 C :   -0.173144
   7 O :   -0.433530
   8 H :    0.317201
   9 H :    0.080747
  10 H :    0.105314
  11 H :    0.102964
Sum of atomic charges:   -0.0000000

LOEWDIN ATOMIC CHARGES
----------------------
   0 C :   -0.007237
   1 O :   -0.000527
   2 H :   -0.000223
   3 H :   -0.002567
   4 H :   -0.000053
   5 H :   -0.001884
   6 C :   -0.460626
   7 O :   -0.002171
   8 H :    0.175453
   9 H :    0.098227
  10 H :    0.089114
  11 H :    0.112494

  Mayer bond orders larger than 0.1
B(  6-C ,  7-O ) :   1.0209 B(  6-C ,  9-H ) :   0.9704 B(  6-C , 10-H ) :   0.9775
B(  6-C , 11-H ) :   0.9755 B(  7-O ,  8-H ) :   0.8988

Dispersion correction           -0.000218242
FINAL SINGLE POINT ENERGY      -115.729404003796

DIPOLE MOMENT
-------------
                                X             Y             Z
Electronic contribution:      1.18732       0.84242      -1.36999
Nuclear contribution   :     -1.46693      -0.43607       1.82378
                        -----------------------------------------
Total Dipole Moment    :     -0.27961       0.40635       0.45379
                        -----------------------------------------
Magnitude (a.u.)       :      0.67025
Magnitude (Debye)      :      1.70363

Rotational constants in cm-1:     4.229986     0.906455     0.871517
Rotational constants in MHz : 126811.789892 27174.831204 26127.424272

                             ****ORCA TERMINATED NORMALLY****
TOTAL RUN TIME: 0 days 0 hours 1 minutes 4 seconds 189 msec
