                         Program Version 4.1.2  - RELEASE  -
|  1> #Run DFT-D3 single point of the dimer
|  2> ! wB97X-D3 def2-TZVP TIGHTSCF CHELPG PMODEL PAL8
|  3>
|  4> %base "6-99_DFT_AB"
|  5>
|  6> %scf
|  7> MaxIter 1000
|  8> end
|  9>
| 10> * xyz 0 1
| 11>   C                      6.664978             3.067073             1.226311
| 12>   O                      8.059023             2.989451             1.564592
| 13>   H                      8.160365             2.945944             2.478638
| 14>   H                      6.091341             2.145018             1.217380
| 15>   H                      6.072127             3.731938             1.852075
| 16>   H                      6.459341             3.559162             0.310594
| 17>   C                      9.705342             0.411539             3.221765
| 18>   O                      10.390401            -0.825732            3.217696
| 19>   H                      9.910130             -1.311990            2.517229
| 20>   H                      8.603460             0.070727             3.184463
| 21>   H                      9.931842             1.116046             4.018518
| 22>   H                      9.853176             0.875626             2.236560
| 23> *
| 24>
| 25> #Run DFT-D3 single point of the molecule with dimer basis set
| 26> $new_job
| 27> %base "6-99_DFT_A"
| 28> ! wB97X-D3 def2-TZVP TIGHTSCF CHELPG PMODEL
| 29>
| 30> %scf
| 31> MaxIter 1000
| 32> end
| 33>
| 34> * xyz 0 1
| 35>   C                      6.664978             3.067073             1.226311
| 36>   O                      8.059023             2.989451             1.564592
| 37>   H                      8.160365             2.945944             2.478638
| 38>   H                      6.091341             2.145018             1.217380
| 39>   H                      6.072127             3.731938             1.852075
| 40>   H                      6.459341             3.559162             0.310594
| 41>   C                    : 9.705342             0.411539             3.221765
| 42>   O                    : 10.390401            -0.825732            3.217696
| 43>   H                    : 9.910130             -1.311990            2.517229
| 44>   H                    : 8.603460             0.070727             3.184463
| 45>   H                    : 9.931842             1.116046             4.018518
| 46>   H                    : 9.853176             0.875626             2.236560
| 47> *
| 48>
| 49> #Run DFT-D3 single point of the particle with dimer basis set
| 50> $new_job
| 51> %base "6-99_DFT_B"
| 52> ! wB97X-D3 def2-TZVP TIGHTSCF CHELPG PMODEL
| 53>
| 54> %scf
| 55> MaxIter 1000
| 56> end
| 57>
| 58> * xyz 0 1
| 59>   C                    : 6.664978             3.067073             1.226311
| 60>   O                    : 8.059023             2.989451             1.564592
| 61>   H                    : 8.160365             2.945944             2.478638
| 62>   H                    : 6.091341             2.145018             1.217380
| 63>   H                    : 6.072127             3.731938             1.852075
| 64>   H                    : 6.459341             3.559162             0.310594
| 65>   C                      9.705342             0.411539             3.221765
| 66>   O                      10.390401            -0.825732            3.217696
| 67>   H                      9.910130             -1.311990            2.517229
| 68>   H                      8.603460             0.070727             3.184463
| 69>   H                      9.931842             1.116046             4.018518
| 70>   H                      9.853176             0.875626             2.236560
| 71> *
| 72>
| 73>                          ****END OF INPUT****
 Total Charge           Charge          ....    0
 Multiplicity           Mult            ....    1
 Number of Electrons    NEL             ....   36
Dispersion correction           -0.001531883
FINAL SINGLE POINT ENERGY      -231.454457780106
Dispersion correction           -0.000278732
FINAL SINGLE POINT ENERGY      -115.728282739394

CARTESIAN COORDINATES (ANGSTROEM)
---------------------------------
  C      6.664978    3.067073    1.226311
  O      8.059023    2.989451    1.564592
  H      8.160365    2.945944    2.478638
  H      6.091341    2.145018    1.217380
  H      6.072127    3.731938    1.852075
  H      6.459341    3.559162    0.310594
  C      9.705342    0.411539    3.221765
  O     10.390401   -0.825732    3.217696
  H      9.910130   -1.311990    2.517229
  H      8.603460    0.070727    3.184463
  H      9.931842    1.116046    4.018518
  H      9.853176    0.875626    2.236560

 Multiplicity           Mult            ....    1
 Number of Electrons    NEL             ....   18
 Basis Dimension        Dim             ....  172

ORBITAL ENERGIES
----------------

  NO   OCC          E(Eh)            E(eV)
   0   2.0000     -19.230336      -523.2840
   1   2.0000     -10.320764      -280.8423
   2   2.0000      -1.137436       -30.9512
   3   2.0000      -0.785327       -21.3698
   4   2.0000      -0.606749       -16.5105
   5   2.0000      -0.539325       -14.6758
   6   2.0000      -0.534718       -14.5504
   7   2.0000      -0.437152       -11.8955
   8   2.0000      -0.364318        -9.9136
   9   0.0000       0.079856         2.1730
  10   0.0000       0.107071         2.9135
  11   0.0000       0.141437         3.8487
  12   0.0000       0.176750         4.8096
  13   0.0000       0.188890         5.1400

MULLIKEN ATOMIC CHARGES
-----------------------
   0 C :   -0.000358
   1 O :   -0.000626
   2 H :    0.000407
   3 H :   -0.000162
   4 H :   -0.000011
   5 H :    0.000008
   6 C :   -0.195290
   7 O :   -0.463300
   8 H :    0.318091
   9 H :    0.098713
  10 H :    0.135118
  11 H :    0.107410
Sum of atomic charges:    0.0000000

LOEWDIN ATOMIC CHARGES
----------------------
   0 C :   -0.000523
   1 O :   -0.002502
   2 H :   -0.002404
   3 H :   -0.000103
   4 H :   -0.000005
   5 H :   -0.000007
   6 C :   -0.395147
   7 O :   -0.092223
   8 H :    0.184810
   9 H :    0.106394
  10 H :    0.106477
  11 H :    0.095233

  Mayer bond orders larger than 0.1
B(  6-C ,  7-O ) :   0.9865 B(  6-C ,  9-H ) :   0.9946 B(  6-C , 10-H ) :   0.9637
B(  6-C , 11-H ) :   0.9755 B(  7-O ,  8-H ) :   0.8974

Dispersion correction           -0.000205435
FINAL SINGLE POINT ENERGY      -115.725158371269

DIPOLE MOMENT
-------------
                                X             Y             Z
Electronic contribution:      1.17129      -1.38900       0.33179
Nuclear contribution   :     -1.70706       1.57500      -0.75492
                        -----------------------------------------
Total Dipole Moment    :     -0.53577       0.18600      -0.42313
                        -----------------------------------------
Magnitude (a.u.)       :      0.70759
Magnitude (Debye)      :      1.79856

Rotational constants in cm-1:     4.050196     0.848504     0.804611
Rotational constants in MHz : 121421.836300 25437.516321 24121.621767

                             ****ORCA TERMINATED NORMALLY****
TOTAL RUN TIME: 0 days 0 hours 0 minutes 45 seconds 849 msec
