                         Program Version 4.1.2  - RELEASE  -
|  1> #Run DFT-D3 single point of the dimer
|  2> ! wB97X-D3 def2-TZVP TIGHTSCF CHELPG PMODEL PAL8
|  3>
|  4> %base "2-55_DFT_AB"
|  5>
|  6> %scf
|  7> MaxIter 1000
|  8> end
|  9>
| 10> * xyz 0 1
| 11>   C                      0.999467             -9.027304            -3.912011
| 12>   O                      2.186414             -9.130388            -3.186209
| 13>   H                      2.083546             -9.885682            -2.567494
| 14>   H                      0.950091             -9.809537            -4.582821
| 15>   H                      0.089306             -9.087572            -3.267712
| 16>   H                      0.963477             -8.154280            -4.573107
| 17>   C                      5.076919             -10.100200           -4.491884
| 18>   O                      4.875564             -8.751591            -4.271763
| 19>   H                      5.776038             -8.429535            -4.025102
| 20>   H                      4.079127             -10.597135           -4.605720
| 21>   H                      5.674618             -10.291725           -5.409982
| 22>   H                      5.579315             -10.598143           -3.609433
| 23> *
| 24>
| 25> #Run DFT-D3 single point of the molecule with dimer basis set
| 26> $new_job
| 27> %base "2-55_DFT_A"
| 28> ! wB97X-D3 def2-TZVP TIGHTSCF CHELPG PMODEL
| 29>
| 30> %scf
| 31> MaxIter 1000
| 32> end
| 33>
| 34> * xyz 0 1
| 35>   C                      0.999467             -9.027304            -3.912011
| 36>   O                      2.186414             -9.130388            -3.186209
| 37>   H                      2.083546             -9.885682            -2.567494
| 38>   H                      0.950091             -9.809537            -4.582821
| 39>   H                      0.089306             -9.087572            -3.267712
| 40>   H                      0.963477             -8.154280            -4.573107
| 41>   C                    : 5.076919             -10.100200           -4.491884
| 42>   O                    : 4.875564             -8.751591            -4.271763
| 43>   H                    : 5.776038             -8.429535            -4.025102
| 44>   H                    : 4.079127             -10.597135           -4.605720
| 45>   H                    : 5.674618             -10.291725           -5.409982
| 46>   H                    : 5.579315             -10.598143           -3.609433
| 47> *
| 48>
| 49> #Run DFT-D3 single point of the particle with dimer basis set
| 50> $new_job
| 51> %base "2-55_DFT_B"
| 52> ! wB97X-D3 def2-TZVP TIGHTSCF CHELPG PMODEL
| 53>
| 54> %scf
| 55> MaxIter 1000
| 56> end
| 57>
| 58> * xyz 0 1
| 59>   C                    : 0.999467             -9.027304            -3.912011
| 60>   O                    : 2.186414             -9.130388            -3.186209
| 61>   H                    : 2.083546             -9.885682            -2.567494
| 62>   H                    : 0.950091             -9.809537            -4.582821
| 63>   H                    : 0.089306             -9.087572            -3.267712
| 64>   H                    : 0.963477             -8.154280            -4.573107
| 65>   C                      5.076919             -10.100200           -4.491884
| 66>   O                      4.875564             -8.751591            -4.271763
| 67>   H                      5.776038             -8.429535            -4.025102
| 68>   H                      4.079127             -10.597135           -4.605720
| 69>   H                      5.674618             -10.291725           -5.409982
| 70>   H                      5.579315             -10.598143           -3.609433
| 71> *
| 72>
| 73>                          ****END OF INPUT****
 Total Charge           Charge          ....    0
 Multiplicity           Mult            ....    1
 Number of Electrons    NEL             ....   36
Dispersion correction           -0.001749479
FINAL SINGLE POINT ENERGY      -231.461525918104
Dispersion correction           -0.000223826
FINAL SINGLE POINT ENERGY      -115.731027923329

CARTESIAN COORDINATES (ANGSTROEM)
---------------------------------
  C      0.999467   -9.027304   -3.912011
  O      2.186414   -9.130388   -3.186209
  H      2.083546   -9.885682   -2.567494
  H      0.950091   -9.809537   -4.582821
  H      0.089306   -9.087572   -3.267712
  H      0.963477   -8.154280   -4.573107
  C      5.076919  -10.100200   -4.491884
  O      4.875564   -8.751591   -4.271763
  H      5.776038   -8.429535   -4.025102
  H      4.079127  -10.597135   -4.605720
  H      5.674618  -10.291725   -5.409982
  H      5.579315  -10.598143   -3.609433

 Multiplicity           Mult            ....    1
 Number of Electrons    NEL             ....   18
 Basis Dimension        Dim             ....  172

ORBITAL ENERGIES
----------------

  NO   OCC          E(Eh)            E(eV)
   0   2.0000     -19.236060      -523.4398
   1   2.0000     -10.318320      -280.7758
   2   2.0000      -1.147027       -31.2122
   3   2.0000      -0.782900       -21.3038
   4   2.0000      -0.612405       -16.6644
   5   2.0000      -0.544557       -14.8182
   6   2.0000      -0.527518       -14.3545
   7   2.0000      -0.432734       -11.7753
   8   2.0000      -0.372458       -10.1351
   9   0.0000       0.090465         2.4617
  10   0.0000       0.116111         3.1595
  11   0.0000       0.153325         4.1722
  12   0.0000       0.178864         4.8671
  13   0.0000       0.186769         5.0822

MULLIKEN ATOMIC CHARGES
-----------------------
   0 C :   -0.000840
   1 O :    0.000517
   2 H :   -0.000270
   3 H :   -0.000575
   4 H :   -0.000026
   5 H :   -0.000062
   6 C :   -0.178861
   7 O :   -0.454299
   8 H :    0.316931
   9 H :    0.117193
  10 H :    0.101757
  11 H :    0.098536
Sum of atomic charges:   -0.0000000

LOEWDIN ATOMIC CHARGES
----------------------
   0 C :   -0.001654
   1 O :   -0.007190
   2 H :   -0.000840
   3 H :   -0.000277
   4 H :   -0.000022
   5 H :   -0.000132
   6 C :   -0.428991
   7 O :   -0.057275
   8 H :    0.190794
   9 H :    0.112644
  10 H :    0.094909
  11 H :    0.098034

  Mayer bond orders larger than 0.1
B(  6-C ,  7-O ) :   1.0026 B(  6-C ,  9-H ) :   0.9737 B(  6-C , 10-H ) :   0.9700
B(  6-C , 11-H ) :   0.9766 B(  7-O ,  8-H ) :   0.8944

Dispersion correction           -0.000225950
FINAL SINGLE POINT ENERGY      -115.733927117542

DIPOLE MOMENT
-------------
                                X             Y             Z
Electronic contribution:     -0.42033       1.84120       0.22313
Nuclear contribution   :      1.03269      -2.12008      -0.15075
                        -----------------------------------------
Total Dipole Moment    :      0.61236      -0.27888       0.07238
                        -----------------------------------------
Magnitude (a.u.)       :      0.67676
Magnitude (Debye)      :      1.72018

Rotational constants in cm-1:     4.038519     0.863262     0.829447
Rotational constants in MHz : 121071.741501 25879.943949 24866.207478

                             ****ORCA TERMINATED NORMALLY****
TOTAL RUN TIME: 0 days 0 hours 5 minutes 54 seconds 12 msec
