                         Program Version 4.1.2  - RELEASE  -
|  1> #Run DFT-D3 single point of the dimer
|  2> ! wB97X-D3 def2-TZVP TIGHTSCF CHELPG PMODEL PAL8
|  3>
|  4> %base "11-166_DFT_AB"
|  5>
|  6> %scf
|  7> MaxIter 1000
|  8> end
|  9>
| 10> * xyz 0 1
| 11>   C                      4.793840             7.418470             2.811903
| 12>   O                      4.656899             8.783272             3.233300
| 13>   H                      3.764442             9.009522             3.134224
| 14>   H                      5.710245             7.339293             2.221049
| 15>   H                      4.829713             6.712218             3.625068
| 16>   H                      3.924075             7.075925             2.209920
| 17>   C                      7.235443             9.089465             5.644530
| 18>   O                      7.280481             9.683275             4.368788
| 19>   H                      6.414151             9.523031             3.910607
| 20>   H                      6.394428             9.403947             6.267391
| 21>   H                      7.340276             7.952158             5.674665
| 22>   H                      8.131908             9.358944             6.263459
| 23> *
| 24>
| 25> #Run DFT-D3 single point of the molecule with dimer basis set
| 26> $new_job
| 27> %base "11-166_DFT_A"
| 28> ! wB97X-D3 def2-TZVP TIGHTSCF CHELPG PMODEL
| 29>
| 30> %scf
| 31> MaxIter 1000
| 32> end
| 33>
| 34> * xyz 0 1
| 35>   C                      4.793840             7.418470             2.811903
| 36>   O                      4.656899             8.783272             3.233300
| 37>   H                      3.764442             9.009522             3.134224
| 38>   H                      5.710245             7.339293             2.221049
| 39>   H                      4.829713             6.712218             3.625068
| 40>   H                      3.924075             7.075925             2.209920
| 41>   C                    : 7.235443             9.089465             5.644530
| 42>   O                    : 7.280481             9.683275             4.368788
| 43>   H                    : 6.414151             9.523031             3.910607
| 44>   H                    : 6.394428             9.403947             6.267391
| 45>   H                    : 7.340276             7.952158             5.674665
| 46>   H                    : 8.131908             9.358944             6.263459
| 47> *
| 48>
| 49> #Run DFT-D3 single point of the particle with dimer basis set
| 50> $new_job
| 51> %base "11-166_DFT_B"
| 52> ! wB97X-D3 def2-TZVP TIGHTSCF CHELPG PMODEL
| 53>
| 54> %scf
| 55> MaxIter 1000
| 56> end
| 57>
| 58> * xyz 0 1
| 59>   C                    : 4.793840             7.418470             2.811903
| 60>   O                    : 4.656899             8.783272             3.233300
| 61>   H                    : 3.764442             9.009522             3.134224
| 62>   H                    : 5.710245             7.339293             2.221049
| 63>   H                    : 4.829713             6.712218             3.625068
| 64>   H                    : 3.924075             7.075925             2.209920
| 65>   C                      7.235443             9.089465             5.644530
| 66>   O                      7.280481             9.683275             4.368788
| 67>   H                      6.414151             9.523031             3.910607
| 68>   H                      6.394428             9.403947             6.267391
| 69>   H                      7.340276             7.952158             5.674665
| 70>   H                      8.131908             9.358944             6.263459
| 71> *
| 72>
| 73>                          ****END OF INPUT****
 Total Charge           Charge          ....    0
 Multiplicity           Mult            ....    1
 Number of Electrons    NEL             ....   36
Dispersion correction           -0.001916269
FINAL SINGLE POINT ENERGY      -231.475034973437
Dispersion correction           -0.000252911
FINAL SINGLE POINT ENERGY      -115.734143922977

CARTESIAN COORDINATES (ANGSTROEM)
---------------------------------
  C      4.793840    7.418470    2.811903
  O      4.656899    8.783272    3.233300
  H      3.764442    9.009522    3.134224
  H      5.710245    7.339293    2.221049
  H      4.829713    6.712218    3.625068
  H      3.924075    7.075925    2.209920
  C      7.235443    9.089465    5.644530
  O      7.280481    9.683275    4.368788
  H      6.414151    9.523031    3.910607
  H      6.394428    9.403947    6.267391
  H      7.340276    7.952158    5.674665
  H      8.131908    9.358944    6.263459

 Multiplicity           Mult            ....    1
 Number of Electrons    NEL             ....   18
 Basis Dimension        Dim             ....  172

ORBITAL ENERGIES
----------------

  NO   OCC          E(Eh)            E(eV)
   0   2.0000     -19.239964      -523.5460
   1   2.0000     -10.320383      -280.8319
   2   2.0000      -1.134822       -30.8801
   3   2.0000      -0.790455       -21.5094
   4   2.0000      -0.609577       -16.5874
   5   2.0000      -0.539883       -14.6910
   6   2.0000      -0.523703       -14.2507
   7   2.0000      -0.426406       -11.6031
   8   2.0000      -0.376655       -10.2493
   9   0.0000       0.068128         1.8538
  10   0.0000       0.135583         3.6894
  11   0.0000       0.139253         3.7893
  12   0.0000       0.161370         4.3911
  13   0.0000       0.196111         5.3364

MULLIKEN ATOMIC CHARGES
-----------------------
   0 C :   -0.004338
   1 O :   -0.002352
   2 H :   -0.000240
   3 H :   -0.000329
   4 H :    0.000036
   5 H :   -0.000153
   6 C :   -0.184178
   7 O :   -0.465486
   8 H :    0.321814
   9 H :    0.112450
  10 H :    0.100050
  11 H :    0.122726
Sum of atomic charges:   -0.0000000

LOEWDIN ATOMIC CHARGES
----------------------
   0 C :   -0.005218
   1 O :   -0.016329
   2 H :   -0.000808
   3 H :   -0.000924
   4 H :   -0.000272
   5 H :   -0.000112
   6 C :   -0.413420
   7 O :   -0.071688
   8 H :    0.198795
   9 H :    0.094576
  10 H :    0.101165
  11 H :    0.114235

  Mayer bond orders larger than 0.1
B(  6-C ,  7-O ) :   1.0021 B(  6-C ,  9-H ) :   0.9726 B(  6-C , 10-H ) :   0.9686
B(  6-C , 11-H ) :   0.9735 B(  7-O ,  8-H ) :   0.8959

Dispersion correction           -0.000280043
FINAL SINGLE POINT ENERGY      -115.731865247144

DIPOLE MOMENT
-------------
                                X             Y             Z
Electronic contribution:      0.08687       0.90899      -1.78444
Nuclear contribution   :     -0.62586      -1.20645       2.00233
                        -----------------------------------------
Total Dipole Moment    :     -0.53899      -0.29746       0.21788
                        -----------------------------------------
Magnitude (a.u.)       :      0.65305
Magnitude (Debye)      :      1.65991

Rotational constants in cm-1:     4.279572     0.811079     0.788297
Rotational constants in MHz : 128298.345500 24315.527812 23632.543524

                             ****ORCA TERMINATED NORMALLY****
TOTAL RUN TIME: 0 days 0 hours 1 minutes 12 seconds 481 msec
