                         Program Version 4.1.2  - RELEASE  -
|  1> #Run DFT-D3 single point of the dimer
|  2> ! wB97X-D3 def2-TZVP TIGHTSCF CHELPG PMODEL PAL8
|  3>
|  4> %base "1-162_DFT_AB"
|  5>
|  6> %scf
|  7> MaxIter 1000
|  8> end
|  9>
| 10> * xyz 0 1
| 11>   C                      -5.673843            9.678529             0.887699
| 12>   O                      -5.079798            8.484025             1.211510
| 13>   H                      -4.231268            8.659638             1.607767
| 14>   H                      -5.775124            10.359576            1.647475
| 15>   H                      -5.041630            10.146954            0.099919
| 16>   H                      -6.710823            9.493351             0.457744
| 17>   C                      -5.483037            7.300299             -1.008413
| 18>   O                      -5.819396            8.662700             -0.637939
| 19>   H                      -6.117906            9.242234             -1.359859
| 20>   H                      -4.475292            7.022951             -0.745541
| 21>   H                      -6.112279            6.623709             -0.355056
| 22>   H                      -5.780481            6.976767             -2.064381
| 23> *
| 24>
| 25> #Run DFT-D3 single point of the molecule with dimer basis set
| 26> $new_job
| 27> %base "1-162_DFT_A"
| 28> ! wB97X-D3 def2-TZVP TIGHTSCF CHELPG PMODEL
| 29>
| 30> %scf
| 31> MaxIter 1000
| 32> end
| 33>
| 34> * xyz 0 1
| 35>   C                      -5.673843            9.678529             0.887699
| 36>   O                      -5.079798            8.484025             1.211510
| 37>   H                      -4.231268            8.659638             1.607767
| 38>   H                      -5.775124            10.359576            1.647475
| 39>   H                      -5.041630            10.146954            0.099919
| 40>   H                      -6.710823            9.493351             0.457744
| 41>   C                    : -5.483037            7.300299             -1.008413
| 42>   O                    : -5.819396            8.662700             -0.637939
| 43>   H                    : -6.117906            9.242234             -1.359859
| 44>   H                    : -4.475292            7.022951             -0.745541
| 45>   H                    : -6.112279            6.623709             -0.355056
| 46>   H                    : -5.780481            6.976767             -2.064381
| 47> *
| 48>
| 49> #Run DFT-D3 single point of the particle with dimer basis set
| 50> $new_job
| 51> %base "1-162_DFT_B"
| 52> ! wB97X-D3 def2-TZVP TIGHTSCF CHELPG PMODEL
| 53>
| 54> %scf
| 55> MaxIter 1000
| 56> end
| 57>
| 58> * xyz 0 1
| 59>   C                    : -5.673843            9.678529             0.887699
| 60>   O                    : -5.079798            8.484025             1.211510
| 61>   H                    : -4.231268            8.659638             1.607767
| 62>   H                    : -5.775124            10.359576            1.647475
| 63>   H                    : -5.041630            10.146954            0.099919
| 64>   H                    : -6.710823            9.493351             0.457744
| 65>   C                      -5.483037            7.300299             -1.008413
| 66>   O                      -5.819396            8.662700             -0.637939
| 67>   H                      -6.117906            9.242234             -1.359859
| 68>   H                      -4.475292            7.022951             -0.745541
| 69>   H                      -6.112279            6.623709             -0.355056
| 70>   H                      -5.780481            6.976767             -2.064381
| 71> *
| 72>
| 73>                          ****END OF INPUT****
 Total Charge           Charge          ....    0
 Multiplicity           Mult            ....    1
 Number of Electrons    NEL             ....   36
Dispersion correction           -0.002323033
FINAL SINGLE POINT ENERGY      -231.336378046713
Dispersion correction           -0.000215787
FINAL SINGLE POINT ENERGY      -115.730693724675

CARTESIAN COORDINATES (ANGSTROEM)
---------------------------------
  C     -5.673843    9.678529    0.887699
  O     -5.079798    8.484025    1.211510
  H     -4.231268    8.659638    1.607767
  H     -5.775124   10.359576    1.647475
  H     -5.041630   10.146954    0.099919
  H     -6.710823    9.493351    0.457744
  C     -5.483037    7.300299   -1.008413
  O     -5.819396    8.662700   -0.637939
  H     -6.117906    9.242234   -1.359859
  H     -4.475292    7.022951   -0.745541
  H     -6.112279    6.623709   -0.355056
  H     -5.780481    6.976767   -2.064381

 Multiplicity           Mult            ....    1
 Number of Electrons    NEL             ....   18
 Basis Dimension        Dim             ....  172

ORBITAL ENERGIES
----------------

  NO   OCC          E(Eh)            E(eV)
   0   2.0000     -19.233010      -523.3568
   1   2.0000     -10.326284      -280.9925
   2   2.0000      -1.120025       -30.4774
   3   2.0000      -0.796700       -21.6793
   4   2.0000      -0.604985       -16.4625
   5   2.0000      -0.537625       -14.6295
   6   2.0000      -0.516445       -14.0532
   7   2.0000      -0.428832       -11.6691
   8   2.0000      -0.372888       -10.1468
   9   0.0000       0.099940         2.7195
  10   0.0000       0.138719         3.7747
  11   0.0000       0.144060         3.9201
  12   0.0000       0.184758         5.0275
  13   0.0000       0.191332         5.2064

MULLIKEN ATOMIC CHARGES
-----------------------
   0 C :    0.016153
   1 O :    0.014188
   2 H :   -0.001047
   3 H :   -0.002992
   4 H :   -0.019144
   5 H :   -0.015020
   6 C :   -0.171858
   7 O :   -0.495302
   8 H :    0.322871
   9 H :    0.123542
  10 H :    0.113980
  11 H :    0.114630
Sum of atomic charges:    0.0000000

LOEWDIN ATOMIC CHARGES
----------------------
   0 C :   -0.236488
   1 O :   -0.065797
   2 H :   -0.003759
   3 H :   -0.003196
   4 H :   -0.037154
   5 H :   -0.061235
   6 C :   -0.335955
   7 O :    0.227970
   8 H :    0.190943
   9 H :    0.101164
  10 H :    0.112851
  11 H :    0.110656

  Mayer bond orders larger than 0.1
B(  6-C ,  7-O ) :   0.9952 B(  6-C ,  9-H ) :   0.9754 B(  6-C , 10-H ) :   0.9852
B(  6-C , 11-H ) :   0.9655 B(  7-O ,  8-H ) :   0.8889

Dispersion correction           -0.000304026
FINAL SINGLE POINT ENERGY      -115.728812179797

DIPOLE MOMENT
-------------
                                X             Y             Z
Electronic contribution:     -0.23581       1.77893       0.46551
Nuclear contribution   :      0.17384      -1.99811      -1.09404
                        -----------------------------------------
Total Dipole Moment    :     -0.06198      -0.21918      -0.62853
                        -----------------------------------------
Magnitude (a.u.)       :      0.66853
Magnitude (Debye)      :      1.69927

Rotational constants in cm-1:     4.297438     0.779001     0.748672
Rotational constants in MHz : 128833.939557 23353.873089 22444.608139

                             ****ORCA TERMINATED NORMALLY****
TOTAL RUN TIME: 0 days 0 hours 6 minutes 21 seconds 868 msec
