                         Program Version 4.1.2  - RELEASE  -
|  1> #Run DFT-D3 single point of the dimer
|  2> ! wB97X-D3 def2-TZVP TIGHTSCF CHELPG PMODEL PAL8
|  3>
|  4> %base "14-221_DFT_AB"
|  5>
|  6> %scf
|  7> MaxIter 1000
|  8> end
|  9>
| 10> * xyz 0 1
| 11>   C                      -6.014238            7.072502             2.361991
| 12>   O                      -6.223887            8.258419             1.706351
| 13>   H                      -6.623164            8.010038             0.897433
| 14>   H                      -5.496970            7.270082             3.295492
| 15>   H                      -6.945831            6.523959             2.467177
| 16>   H                      -5.412304            6.397185             1.786378
| 17>   C                      -3.816625            10.040734            4.070678
| 18>   O                      -4.532435            10.559169            2.959660
| 19>   H                      -4.967202            9.731673             2.630932
| 20>   H                      -4.238293            9.086609             4.198698
| 21>   H                      -2.760037            9.934247             3.895425
| 22>   H                      -3.928372            10.744662            4.911495
| 23> *
| 24>
| 25> #Run DFT-D3 single point of the molecule with dimer basis set
| 26> $new_job
| 27> %base "14-221_DFT_A"
| 28> ! wB97X-D3 def2-TZVP TIGHTSCF CHELPG PMODEL
| 29>
| 30> %scf
| 31> MaxIter 1000
| 32> end
| 33>
| 34> * xyz 0 1
| 35>   C                      -6.014238            7.072502             2.361991
| 36>   O                      -6.223887            8.258419             1.706351
| 37>   H                      -6.623164            8.010038             0.897433
| 38>   H                      -5.496970            7.270082             3.295492
| 39>   H                      -6.945831            6.523959             2.467177
| 40>   H                      -5.412304            6.397185             1.786378
| 41>   C                    : -3.816625            10.040734            4.070678
| 42>   O                    : -4.532435            10.559169            2.959660
| 43>   H                    : -4.967202            9.731673             2.630932
| 44>   H                    : -4.238293            9.086609             4.198698
| 45>   H                    : -2.760037            9.934247             3.895425
| 46>   H                    : -3.928372            10.744662            4.911495
| 47> *
| 48>
| 49> #Run DFT-D3 single point of the particle with dimer basis set
| 50> $new_job
| 51> %base "14-221_DFT_B"
| 52> ! wB97X-D3 def2-TZVP TIGHTSCF CHELPG PMODEL
| 53>
| 54> %scf
| 55> MaxIter 1000
| 56> end
| 57>
| 58> * xyz 0 1
| 59>   C                    : -6.014238            7.072502             2.361991
| 60>   O                    : -6.223887            8.258419             1.706351
| 61>   H                    : -6.623164            8.010038             0.897433
| 62>   H                    : -5.496970            7.270082             3.295492
| 63>   H                    : -6.945831            6.523959             2.467177
| 64>   H                    : -5.412304            6.397185             1.786378
| 65>   C                      -3.816625            10.040734            4.070678
| 66>   O                      -4.532435            10.559169            2.959660
| 67>   H                      -4.967202            9.731673             2.630932
| 68>   H                      -4.238293            9.086609             4.198698
| 69>   H                      -2.760037            9.934247             3.895425
| 70>   H                      -3.928372            10.744662            4.911495
| 71> *
| 72>
| 73>                          ****END OF INPUT****
 Total Charge           Charge          ....    0
 Multiplicity           Mult            ....    1
 Number of Electrons    NEL             ....   36
Dispersion correction           -0.001784052
FINAL SINGLE POINT ENERGY      -231.466005896891
Dispersion correction           -0.000195653
FINAL SINGLE POINT ENERGY      -115.732820251293

CARTESIAN COORDINATES (ANGSTROEM)
---------------------------------
  C     -6.014238    7.072502    2.361991
  O     -6.223887    8.258419    1.706351
  H     -6.623164    8.010038    0.897433
  H     -5.496970    7.270082    3.295492
  H     -6.945831    6.523959    2.467177
  H     -5.412304    6.397185    1.786378
  C     -3.816625   10.040734    4.070678
  O     -4.532435   10.559169    2.959660
  H     -4.967202    9.731673    2.630932
  H     -4.238293    9.086609    4.198698
  H     -2.760037    9.934247    3.895425
  H     -3.928372   10.744662    4.911495

 Multiplicity           Mult            ....    1
 Number of Electrons    NEL             ....   18
 Basis Dimension        Dim             ....  172

ORBITAL ENERGIES
----------------

  NO   OCC          E(Eh)            E(eV)
   0   2.0000     -19.230739      -523.2950
   1   2.0000     -10.308019      -280.4954
   2   2.0000      -1.133789       -30.8520
   3   2.0000      -0.791376       -21.5344
   4   2.0000      -0.612424       -16.6649
   5   2.0000      -0.542140       -14.7524
   6   2.0000      -0.528647       -14.3852
   7   2.0000      -0.439823       -11.9682
   8   2.0000      -0.370660       -10.0862
   9   0.0000       0.065393         1.7794
  10   0.0000       0.131550         3.5797
  11   0.0000       0.146380         3.9832
  12   0.0000       0.171266         4.6604
  13   0.0000       0.191423         5.2089

MULLIKEN ATOMIC CHARGES
-----------------------
   0 C :   -0.004107
   1 O :    0.000655
   2 H :    0.000025
   3 H :    0.001434
   4 H :   -0.000025
   5 H :    0.000140
   6 C :   -0.153861
   7 O :   -0.459994
   8 H :    0.306715
   9 H :    0.093802
  10 H :    0.103358
  11 H :    0.111859
Sum of atomic charges:    0.0000000

LOEWDIN ATOMIC CHARGES
----------------------
   0 C :   -0.004946
   1 O :   -0.011500
   2 H :   -0.000520
   3 H :   -0.003187
   4 H :   -0.000082
   5 H :   -0.000056
   6 C :   -0.372695
   7 O :   -0.090228
   8 H :    0.194692
   9 H :    0.089912
  10 H :    0.092681
  11 H :    0.105931

  Mayer bond orders larger than 0.1
B(  6-C ,  7-O ) :   1.0007 B(  6-C ,  9-H ) :   0.9989 B(  6-C , 10-H ) :   0.9703
B(  6-C , 11-H ) :   0.9780 B(  7-O ,  8-H ) :   0.9142

Dispersion correction           -0.000216844
FINAL SINGLE POINT ENERGY      -115.727270188519

DIPOLE MOMENT
-------------
                                X             Y             Z
Electronic contribution:     -0.80759       0.79509      -1.31169
Nuclear contribution   :      0.82171      -1.51327       1.54394
                        -----------------------------------------
Total Dipole Moment    :      0.01412      -0.71818       0.23225
                        -----------------------------------------
Magnitude (a.u.)       :      0.75493
Magnitude (Debye)      :      1.91889

Rotational constants in cm-1:     4.209199     0.852514     0.809323
Rotational constants in MHz : 126188.606424 25557.736336 24262.887839

                             ****ORCA TERMINATED NORMALLY****
TOTAL RUN TIME: 0 days 0 hours 1 minutes 10 seconds 494 msec
