                         Program Version 4.1.2  - RELEASE  -
|  1> #Run DFT-D3 single point of the dimer
|  2> ! wB97X-D3 def2-TZVP TIGHTSCF CHELPG PMODEL PAL8
|  3>
|  4> %base "17-173_DFT_AB"
|  5>
|  6> %scf
|  7> MaxIter 1000
|  8> end
|  9>
| 10> * xyz 0 1
| 11>   C                      -4.390305            -7.853721            -8.340512
| 12>   O                      -3.239923            -7.533643            -7.534374
| 13>   H                      -3.454352            -6.886440            -6.874207
| 14>   H                      -4.282908            -8.754104            -8.899500
| 15>   H                      -5.215125            -8.003807            -7.642085
| 16>   H                      -4.738968            -7.005567            -9.008015
| 17>   C                      -4.225287            -9.509128            -3.946584
| 18>   O                      -4.810577            -9.394818            -5.219701
| 19>   H                      -4.267590            -8.685789            -5.669393
| 20>   H                      -3.201929            -9.967774            -3.965152
| 21>   H                      -4.104531            -8.511236            -3.536366
| 22>   H                      -4.850558            -10.069945           -3.300331
| 23> *
| 24>
| 25> #Run DFT-D3 single point of the molecule with dimer basis set
| 26> $new_job
| 27> %base "17-173_DFT_A"
| 28> ! wB97X-D3 def2-TZVP TIGHTSCF CHELPG PMODEL
| 29>
| 30> %scf
| 31> MaxIter 1000
| 32> end
| 33>
| 34> * xyz 0 1
| 35>   C                      -4.390305            -7.853721            -8.340512
| 36>   O                      -3.239923            -7.533643            -7.534374
| 37>   H                      -3.454352            -6.886440            -6.874207
| 38>   H                      -4.282908            -8.754104            -8.899500
| 39>   H                      -5.215125            -8.003807            -7.642085
| 40>   H                      -4.738968            -7.005567            -9.008015
| 41>   C                    : -4.225287            -9.509128            -3.946584
| 42>   O                    : -4.810577            -9.394818            -5.219701
| 43>   H                    : -4.267590            -8.685789            -5.669393
| 44>   H                    : -3.201929            -9.967774            -3.965152
| 45>   H                    : -4.104531            -8.511236            -3.536366
| 46>   H                    : -4.850558            -10.069945           -3.300331
| 47> *
| 48>
| 49> #Run DFT-D3 single point of the particle with dimer basis set
| 50> $new_job
| 51> %base "17-173_DFT_B"
| 52> ! wB97X-D3 def2-TZVP TIGHTSCF CHELPG PMODEL
| 53>
| 54> %scf
| 55> MaxIter 1000
| 56> end
| 57>
| 58> * xyz 0 1
| 59>   C                    : -4.390305            -7.853721            -8.340512
| 60>   O                    : -3.239923            -7.533643            -7.534374
| 61>   H                    : -3.454352            -6.886440            -6.874207
| 62>   H                    : -4.282908            -8.754104            -8.899500
| 63>   H                    : -5.215125            -8.003807            -7.642085
| 64>   H                    : -4.738968            -7.005567            -9.008015
| 65>   C                      -4.225287            -9.509128            -3.946584
| 66>   O                      -4.810577            -9.394818            -5.219701
| 67>   H                      -4.267590            -8.685789            -5.669393
| 68>   H                      -3.201929            -9.967774            -3.965152
| 69>   H                      -4.104531            -8.511236            -3.536366
| 70>   H                      -4.850558            -10.069945           -3.300331
| 71> *
| 72>
| 73>                          ****END OF INPUT****
 Total Charge           Charge          ....    0
 Multiplicity           Mult            ....    1
 Number of Electrons    NEL             ....   36
Dispersion correction           -0.001696334
FINAL SINGLE POINT ENERGY      -231.469217183541
Dispersion correction           -0.000256504
FINAL SINGLE POINT ENERGY      -115.732538678857

CARTESIAN COORDINATES (ANGSTROEM)
---------------------------------
  C     -4.390305   -7.853721   -8.340512
  O     -3.239923   -7.533643   -7.534374
  H     -3.454352   -6.886440   -6.874207
  H     -4.282908   -8.754104   -8.899500
  H     -5.215125   -8.003807   -7.642085
  H     -4.738968   -7.005567   -9.008015
  C     -4.225287   -9.509128   -3.946584
  O     -4.810577   -9.394818   -5.219701
  H     -4.267590   -8.685789   -5.669393
  H     -3.201929   -9.967774   -3.965152
  H     -4.104531   -8.511236   -3.536366
  H     -4.850558  -10.069945   -3.300331

 Multiplicity           Mult            ....    1
 Number of Electrons    NEL             ....   18
 Basis Dimension        Dim             ....  172

ORBITAL ENERGIES
----------------

  NO   OCC          E(Eh)            E(eV)
   0   2.0000     -19.235024      -523.4116
   1   2.0000     -10.310698      -280.5684
   2   2.0000      -1.134930       -30.8830
   3   2.0000      -0.791382       -21.5346
   4   2.0000      -0.608698       -16.5635
   5   2.0000      -0.539103       -14.6697
   6   2.0000      -0.532438       -14.4884
   7   2.0000      -0.438993       -11.9456
   8   2.0000      -0.371082       -10.0977
   9   0.0000       0.073391         1.9971
  10   0.0000       0.126716         3.4481
  11   0.0000       0.157468         4.2849
  12   0.0000       0.174586         4.7507
  13   0.0000       0.192016         5.2250

MULLIKEN ATOMIC CHARGES
-----------------------
   0 C :   -0.002716
   1 O :    0.001583
   2 H :   -0.001031
   3 H :    0.000427
   4 H :   -0.002815
   5 H :    0.000064
   6 C :   -0.169246
   7 O :   -0.460387
   8 H :    0.315959
   9 H :    0.095384
  10 H :    0.102757
  11 H :    0.120021
Sum of atomic charges:   -0.0000000

LOEWDIN ATOMIC CHARGES
----------------------
   0 C :   -0.006382
   1 O :   -0.004570
   2 H :   -0.002712
   3 H :   -0.000193
   4 H :   -0.004057
   5 H :   -0.000055
   6 C :   -0.393665
   7 O :   -0.080080
   8 H :    0.201142
   9 H :    0.097983
  10 H :    0.093505
  11 H :    0.099085

  Mayer bond orders larger than 0.1
B(  6-C ,  7-O ) :   1.0010 B(  6-C ,  9-H ) :   0.9688 B(  6-C , 10-H ) :   0.9875
B(  6-C , 11-H ) :   0.9744 B(  7-O ,  8-H ) :   0.8973

Dispersion correction           -0.000223569
FINAL SINGLE POINT ENERGY      -115.733649696046

DIPOLE MOMENT
-------------
                                X             Y             Z
Electronic contribution:     -0.94829      -0.04955      -1.58002
Nuclear contribution   :      1.48297       0.44383       1.81472
                        -----------------------------------------
Total Dipole Moment    :      0.53467       0.39428       0.23470
                        -----------------------------------------
Magnitude (a.u.)       :      0.70457
Magnitude (Debye)      :      1.79086

Rotational constants in cm-1:     4.208983     0.845423     0.810985
Rotational constants in MHz : 126182.133917 25345.154459 24312.718952

                             ****ORCA TERMINATED NORMALLY****
TOTAL RUN TIME: 0 days 0 hours 1 minutes 8 seconds 965 msec
