                         Program Version 4.1.2  - RELEASE  -
|  1> #Run DFT-D3 single point of the dimer
|  2> ! wB97X-D3 def2-TZVP TIGHTSCF CHELPG PMODEL PAL8
|  3>
|  4> %base "15-173_DFT_AB"
|  5>
|  6> %scf
|  7> MaxIter 1000
|  8> end
|  9>
| 10> * xyz 0 1
| 11>   C                      -7.822597            1.089316             10.615063
| 12>   O                      -8.579110            0.171024             11.426707
| 13>   H                      -9.266079            -0.089083            10.777624
| 14>   H                      -7.499782            0.617102             9.711597
| 15>   H                      -8.479123            1.922696             10.343100
| 16>   H                      -6.830121            1.278858             11.089223
| 17>   C                      -11.019096           -1.306331            9.423019
| 18>   O                      -10.503379           -0.012999            9.587634
| 19>   H                      -10.647649           0.485361             8.784333
| 20>   H                      -11.145676           -1.523060            8.374772
| 21>   H                      -10.302011           -2.070106            9.755812
| 22>   H                      -11.940407           -1.438613            10.028585
| 23> *
| 24>
| 25> #Run DFT-D3 single point of the molecule with dimer basis set
| 26> $new_job
| 27> %base "15-173_DFT_A"
| 28> ! wB97X-D3 def2-TZVP TIGHTSCF CHELPG PMODEL
| 29>
| 30> %scf
| 31> MaxIter 1000
| 32> end
| 33>
| 34> * xyz 0 1
| 35>   C                      -7.822597            1.089316             10.615063
| 36>   O                      -8.579110            0.171024             11.426707
| 37>   H                      -9.266079            -0.089083            10.777624
| 38>   H                      -7.499782            0.617102             9.711597
| 39>   H                      -8.479123            1.922696             10.343100
| 40>   H                      -6.830121            1.278858             11.089223
| 41>   C                    : -11.019096           -1.306331            9.423019
| 42>   O                    : -10.503379           -0.012999            9.587634
| 43>   H                    : -10.647649           0.485361             8.784333
| 44>   H                    : -11.145676           -1.523060            8.374772
| 45>   H                    : -10.302011           -2.070106            9.755812
| 46>   H                    : -11.940407           -1.438613            10.028585
| 47> *
| 48>
| 49> #Run DFT-D3 single point of the particle with dimer basis set
| 50> $new_job
| 51> %base "15-173_DFT_B"
| 52> ! wB97X-D3 def2-TZVP TIGHTSCF CHELPG PMODEL
| 53>
| 54> %scf
| 55> MaxIter 1000
| 56> end
| 57>
| 58> * xyz 0 1
| 59>   C                    : -7.822597            1.089316             10.615063
| 60>   O                    : -8.579110            0.171024             11.426707
| 61>   H                    : -9.266079            -0.089083            10.777624
| 62>   H                    : -7.499782            0.617102             9.711597
| 63>   H                    : -8.479123            1.922696             10.343100
| 64>   H                    : -6.830121            1.278858             11.089223
| 65>   C                      -11.019096           -1.306331            9.423019
| 66>   O                      -10.503379           -0.012999            9.587634
| 67>   H                      -10.647649           0.485361             8.784333
| 68>   H                      -11.145676           -1.523060            8.374772
| 69>   H                      -10.302011           -2.070106            9.755812
| 70>   H                      -11.940407           -1.438613            10.028585
| 71> *
| 72>
| 73>                          ****END OF INPUT****
 Total Charge           Charge          ....    0
 Multiplicity           Mult            ....    1
 Number of Electrons    NEL             ....   36
Dispersion correction           -0.002020727
FINAL SINGLE POINT ENERGY      -231.469801604154
Dispersion correction           -0.000217044
FINAL SINGLE POINT ENERGY      -115.729127272225

CARTESIAN COORDINATES (ANGSTROEM)
---------------------------------
  C     -7.822597    1.089316   10.615063
  O     -8.579110    0.171024   11.426707
  H     -9.266079   -0.089083   10.777624
  H     -7.499782    0.617102    9.711597
  H     -8.479123    1.922696   10.343100
  H     -6.830121    1.278858   11.089223
  C    -11.019096   -1.306331    9.423019
  O    -10.503379   -0.012999    9.587634
  H    -10.647649    0.485361    8.784333
  H    -11.145676   -1.523060    8.374772
  H    -10.302011   -2.070106    9.755812
  H    -11.940407   -1.438613   10.028585

 Multiplicity           Mult            ....    1
 Number of Electrons    NEL             ....   18
 Basis Dimension        Dim             ....  172

ORBITAL ENERGIES
----------------

  NO   OCC          E(Eh)            E(eV)
   0   2.0000     -19.229500      -523.2613
   1   2.0000     -10.312641      -280.6212
   2   2.0000      -1.140436       -31.0328
   3   2.0000      -0.795282       -21.6407
   4   2.0000      -0.615568       -16.7505
   5   2.0000      -0.543030       -14.7766
   6   2.0000      -0.530432       -14.4338
   7   2.0000      -0.430150       -11.7050
   8   2.0000      -0.373091       -10.1523
   9   0.0000       0.098877         2.6906
  10   0.0000       0.129944         3.5360
  11   0.0000       0.150822         4.1041
  12   0.0000       0.190227         5.1763
  13   0.0000       0.201583         5.4853

MULLIKEN ATOMIC CHARGES
-----------------------
   0 C :    0.007488
   1 O :    0.000357
   2 H :   -0.003643
   3 H :   -0.006448
   4 H :   -0.003636
   5 H :   -0.000485
   6 C :   -0.156437
   7 O :   -0.474662
   8 H :    0.316542
   9 H :    0.104259
  10 H :    0.114314
  11 H :    0.102352
Sum of atomic charges:    0.0000000

LOEWDIN ATOMIC CHARGES
----------------------
   0 C :   -0.014095
   1 O :   -0.008587
   2 H :   -0.060011
   3 H :   -0.002442
   4 H :   -0.002474
   5 H :   -0.000188
   6 C :   -0.385037
   7 O :    0.001403
   8 H :    0.168948
   9 H :    0.094882
  10 H :    0.105551
  11 H :    0.102050

  Mayer bond orders larger than 0.1
B(  6-C ,  7-O ) :   0.9917 B(  6-C ,  9-H ) :   0.9820 B(  6-C , 10-H ) :   0.9788
B(  6-C , 11-H ) :   0.9743 B(  7-O ,  8-H ) :   0.8972

Dispersion correction           -0.000242368
FINAL SINGLE POINT ENERGY      -115.734852685077

DIPOLE MOMENT
-------------
                                X             Y             Z
Electronic contribution:      0.64319       1.66202       0.30752
Nuclear contribution   :     -0.92921      -1.85737      -0.92081
                        -----------------------------------------
Total Dipole Moment    :     -0.28601      -0.19535      -0.61328
                        -----------------------------------------
Magnitude (a.u.)       :      0.70433
Magnitude (Debye)      :      1.79027

Rotational constants in cm-1:     4.304853     0.839961     0.813692
Rotational constants in MHz : 129056.239781 25181.403294 24393.874372

                             ****ORCA TERMINATED NORMALLY****
TOTAL RUN TIME: 0 days 0 hours 1 minutes 8 seconds 94 msec
