                         Program Version 4.1.2  - RELEASE  -
|  1> #Run DFT-D3 single point of the dimer
|  2> ! wB97X-D3 def2-TZVP TIGHTSCF CHELPG PMODEL PAL8
|  3>
|  4> %base "6-192_DFT_AB"
|  5>
|  6> %scf
|  7> MaxIter 1000
|  8> end
|  9>
| 10> * xyz 0 1
| 11>   C                      0.182084             4.325668             -3.033749
| 12>   O                      0.829074             4.609994             -4.208649
| 13>   H                      0.237808             4.171818             -4.852267
| 14>   H                      0.642649             4.858866             -2.199980
| 15>   H                      -0.820564            4.802112             -2.973420
| 16>   H                      0.162059             3.239684             -2.768472
| 17>   C                      -1.886991            4.244504             -6.909815
| 18>   O                      -1.190912            3.416113             -6.028511
| 19>   H                      -1.644658            2.536205             -6.252273
| 20>   H                      -1.852773            5.344287             -6.653094
| 21>   H                      -1.498968            4.146095             -7.965264
| 22>   H                      -2.923538            4.026401             -6.897862
| 23> *
| 24>
| 25> #Run DFT-D3 single point of the molecule with dimer basis set
| 26> $new_job
| 27> %base "6-192_DFT_A"
| 28> ! wB97X-D3 def2-TZVP TIGHTSCF CHELPG PMODEL
| 29>
| 30> %scf
| 31> MaxIter 1000
| 32> end
| 33>
| 34> * xyz 0 1
| 35>   C                      0.182084             4.325668             -3.033749
| 36>   O                      0.829074             4.609994             -4.208649
| 37>   H                      0.237808             4.171818             -4.852267
| 38>   H                      0.642649             4.858866             -2.199980
| 39>   H                      -0.820564            4.802112             -2.973420
| 40>   H                      0.162059             3.239684             -2.768472
| 41>   C                    : -1.886991            4.244504             -6.909815
| 42>   O                    : -1.190912            3.416113             -6.028511
| 43>   H                    : -1.644658            2.536205             -6.252273
| 44>   H                    : -1.852773            5.344287             -6.653094
| 45>   H                    : -1.498968            4.146095             -7.965264
| 46>   H                    : -2.923538            4.026401             -6.897862
| 47> *
| 48>
| 49> #Run DFT-D3 single point of the particle with dimer basis set
| 50> $new_job
| 51> %base "6-192_DFT_B"
| 52> ! wB97X-D3 def2-TZVP TIGHTSCF CHELPG PMODEL
| 53>
| 54> %scf
| 55> MaxIter 1000
| 56> end
| 57>
| 58> * xyz 0 1
| 59>   C                    : 0.182084             4.325668             -3.033749
| 60>   O                    : 0.829074             4.609994             -4.208649
| 61>   H                    : 0.237808             4.171818             -4.852267
| 62>   H                    : 0.642649             4.858866             -2.199980
| 63>   H                    : -0.820564            4.802112             -2.973420
| 64>   H                    : 0.162059             3.239684             -2.768472
| 65>   C                      -1.886991            4.244504             -6.909815
| 66>   O                      -1.190912            3.416113             -6.028511
| 67>   H                      -1.644658            2.536205             -6.252273
| 68>   H                      -1.852773            5.344287             -6.653094
| 69>   H                      -1.498968            4.146095             -7.965264
| 70>   H                      -2.923538            4.026401             -6.897862
| 71> *
| 72>
| 73>                          ****END OF INPUT****
 Total Charge           Charge          ....    0
 Multiplicity           Mult            ....    1
 Number of Electrons    NEL             ....   36
Dispersion correction           -0.001698338
FINAL SINGLE POINT ENERGY      -231.467605250553
Dispersion correction           -0.000222196
FINAL SINGLE POINT ENERGY      -115.731102817004

CARTESIAN COORDINATES (ANGSTROEM)
---------------------------------
  C      0.182084    4.325668   -3.033749
  O      0.829074    4.609994   -4.208649
  H      0.237808    4.171818   -4.852267
  H      0.642649    4.858866   -2.199980
  H     -0.820564    4.802112   -2.973420
  H      0.162059    3.239684   -2.768472
  C     -1.886991    4.244504   -6.909815
  O     -1.190912    3.416113   -6.028511
  H     -1.644658    2.536205   -6.252273
  H     -1.852773    5.344287   -6.653094
  H     -1.498968    4.146095   -7.965264
  H     -2.923538    4.026401   -6.897862

 Multiplicity           Mult            ....    1
 Number of Electrons    NEL             ....   18
 Basis Dimension        Dim             ....  172

ORBITAL ENERGIES
----------------

  NO   OCC          E(Eh)            E(eV)
   0   2.0000     -19.240613      -523.5637
   1   2.0000     -10.314928      -280.6835
   2   2.0000      -1.141001       -31.0482
   3   2.0000      -0.785028       -21.3617
   4   2.0000      -0.609397       -16.5825
   5   2.0000      -0.544802       -14.8248
   6   2.0000      -0.527683       -14.3590
   7   2.0000      -0.435093       -11.8395
   8   2.0000      -0.373835       -10.1726
   9   0.0000       0.095734         2.6051
  10   0.0000       0.120083         3.2676
  11   0.0000       0.149362         4.0643
  12   0.0000       0.188114         5.1189
  13   0.0000       0.200426         5.4539

MULLIKEN ATOMIC CHARGES
-----------------------
   0 C :    0.002292
   1 O :    0.001263
   2 H :   -0.011174
   3 H :   -0.000298
   4 H :   -0.002391
   5 H :   -0.001008
   6 C :   -0.193593
   7 O :   -0.438732
   8 H :    0.316416
   9 H :    0.117105
  10 H :    0.098538
  11 H :    0.111582
Sum of atomic charges:   -0.0000000

LOEWDIN ATOMIC CHARGES
----------------------
   0 C :   -0.005966
   1 O :   -0.002820
   2 H :   -0.033059
   3 H :   -0.000074
   4 H :   -0.000901
   5 H :   -0.000434
   6 C :   -0.419096
   7 O :   -0.047102
   8 H :    0.209268
   9 H :    0.113333
  10 H :    0.099399
  11 H :    0.087452

  Mayer bond orders larger than 0.1
B(  6-C ,  7-O ) :   0.9960 B(  6-C ,  9-H ) :   0.9737 B(  6-C , 10-H ) :   0.9717
B(  6-C , 11-H ) :   0.9768 B(  7-O ,  8-H ) :   0.8919

Dispersion correction           -0.000224539
FINAL SINGLE POINT ENERGY      -115.727898577955

DIPOLE MOMENT
-------------
                                X             Y             Z
Electronic contribution:      1.03919      -1.01194       1.31040
Nuclear contribution   :     -1.60403       0.78788      -1.75077
                        -----------------------------------------
Total Dipole Moment    :     -0.56485      -0.22406      -0.44037
                        -----------------------------------------
Magnitude (a.u.)       :      0.75045
Magnitude (Debye)      :      1.90749

Rotational constants in cm-1:     4.130503     0.847862     0.816033
Rotational constants in MHz : 123829.350254 25418.252743 24464.054248

                             ****ORCA TERMINATED NORMALLY****
TOTAL RUN TIME: 0 days 0 hours 1 minutes 9 seconds 89 msec
