                         Program Version 4.1.2  - RELEASE  -
|  1> #Run DFT-D3 single point of the dimer
|  2> ! wB97X-D3 def2-TZVP TIGHTSCF CHELPG PMODEL PAL8
|  3>
|  4> %base "1-124_DFT_AB"
|  5>
|  6> %scf
|  7> MaxIter 1000
|  8> end
|  9>
| 10> * xyz 0 1
| 11>   C                      5.542015             10.680437            -0.691978
| 12>   O                      6.160653             11.159139            -1.887757
| 13>   H                      6.573102             10.470271            -2.373774
| 14>   H                      5.940830             11.268965            0.206580
| 15>   H                      4.456905             10.788980            -0.753969
| 16>   H                      5.760810             9.654491             -0.559294
| 17>   C                      6.137537             7.329484             -5.029090
| 18>   O                      4.993816             8.083205             -4.789981
| 19>   H                      5.298773             8.977023             -4.746202
| 20>   H                      5.937156             6.232689             -4.958911
| 21>   H                      6.633981             7.570980             -5.974501
| 22>   H                      6.921082             7.612239             -4.311870
| 23> *
| 24>
| 25> #Run DFT-D3 single point of the molecule with dimer basis set
| 26> $new_job
| 27> %base "1-124_DFT_A"
| 28> ! wB97X-D3 def2-TZVP TIGHTSCF CHELPG PMODEL
| 29>
| 30> %scf
| 31> MaxIter 1000
| 32> end
| 33>
| 34> * xyz 0 1
| 35>   C                      5.542015             10.680437            -0.691978
| 36>   O                      6.160653             11.159139            -1.887757
| 37>   H                      6.573102             10.470271            -2.373774
| 38>   H                      5.940830             11.268965            0.206580
| 39>   H                      4.456905             10.788980            -0.753969
| 40>   H                      5.760810             9.654491             -0.559294
| 41>   C                    : 6.137537             7.329484             -5.029090
| 42>   O                    : 4.993816             8.083205             -4.789981
| 43>   H                    : 5.298773             8.977023             -4.746202
| 44>   H                    : 5.937156             6.232689             -4.958911
| 45>   H                    : 6.633981             7.570980             -5.974501
| 46>   H                    : 6.921082             7.612239             -4.311870
| 47> *
| 48>
| 49> #Run DFT-D3 single point of the particle with dimer basis set
| 50> $new_job
| 51> %base "1-124_DFT_B"
| 52> ! wB97X-D3 def2-TZVP TIGHTSCF CHELPG PMODEL
| 53>
| 54> %scf
| 55> MaxIter 1000
| 56> end
| 57>
| 58> * xyz 0 1
| 59>   C                    : 5.542015             10.680437            -0.691978
| 60>   O                    : 6.160653             11.159139            -1.887757
| 61>   H                    : 6.573102             10.470271            -2.373774
| 62>   H                    : 5.940830             11.268965            0.206580
| 63>   H                    : 4.456905             10.788980            -0.753969
| 64>   H                    : 5.760810             9.654491             -0.559294
| 65>   C                      6.137537             7.329484             -5.029090
| 66>   O                      4.993816             8.083205             -4.789981
| 67>   H                      5.298773             8.977023             -4.746202
| 68>   H                      5.937156             6.232689             -4.958911
| 69>   H                      6.633981             7.570980             -5.974501
| 70>   H                      6.921082             7.612239             -4.311870
| 71> *
| 72>
| 73>                          ****END OF INPUT****
 Total Charge           Charge          ....    0
 Multiplicity           Mult            ....    1
 Number of Electrons    NEL             ....   36
Dispersion correction           -0.001018055
FINAL SINGLE POINT ENERGY      -231.466798578557
Dispersion correction           -0.000254912
FINAL SINGLE POINT ENERGY      -115.732902689883

CARTESIAN COORDINATES (ANGSTROEM)
---------------------------------
  C      5.542015   10.680437   -0.691978
  O      6.160653   11.159139   -1.887757
  H      6.573102   10.470271   -2.373774
  H      5.940830   11.268965    0.206580
  H      4.456905   10.788980   -0.753969
  H      5.760810    9.654491   -0.559294
  C      6.137537    7.329484   -5.029090
  O      4.993816    8.083205   -4.789981
  H      5.298773    8.977023   -4.746202
  H      5.937156    6.232689   -4.958911
  H      6.633981    7.570980   -5.974501
  H      6.921082    7.612239   -4.311870

 Multiplicity           Mult            ....    1
 Number of Electrons    NEL             ....   18
 Basis Dimension        Dim             ....  172

ORBITAL ENERGIES
----------------

  NO   OCC          E(Eh)            E(eV)
   0   2.0000     -19.230920      -523.2999
   1   2.0000     -10.314705      -280.6774
   2   2.0000      -1.150078       -31.2952
   3   2.0000      -0.792391       -21.5621
   4   2.0000      -0.621920       -16.9233
   5   2.0000      -0.536426       -14.5969
   6   2.0000      -0.531833       -14.4719
   7   2.0000      -0.440881       -11.9970
   8   2.0000      -0.369703       -10.0601
   9   0.0000       0.078114         2.1256
  10   0.0000       0.118646         3.2285
  11   0.0000       0.154704         4.2097
  12   0.0000       0.174164         4.7392
  13   0.0000       0.192775         5.2457

MULLIKEN ATOMIC CHARGES
-----------------------
   0 C :   -0.000307
   1 O :    0.000134
   2 H :   -0.000883
   3 H :   -0.000029
   4 H :    0.000078
   5 H :   -0.000005
   6 C :   -0.177973
   7 O :   -0.458077
   8 H :    0.313755
   9 H :    0.123407
  10 H :    0.099014
  11 H :    0.100885
Sum of atomic charges:   -0.0000000

LOEWDIN ATOMIC CHARGES
----------------------
   0 C :   -0.000225
   1 O :   -0.000078
   2 H :   -0.000694
   3 H :   -0.000015
   4 H :   -0.000006
   5 H :   -0.000037
   6 C :   -0.410069
   7 O :   -0.051616
   8 H :    0.163912
   9 H :    0.113954
  10 H :    0.091406
  11 H :    0.093469

  Mayer bond orders larger than 0.1
B(  6-C ,  7-O ) :   0.9987 B(  6-C ,  9-H ) :   0.9714 B(  6-C , 10-H ) :   0.9730
B(  6-C , 11-H ) :   0.9811 B(  7-O ,  8-H ) :   0.9027

Dispersion correction           -0.000219287
FINAL SINGLE POINT ENERGY      -115.733564082947

DIPOLE MOMENT
-------------
                                X             Y             Z
Electronic contribution:     -1.70534       0.81235       0.28675
Nuclear contribution   :      2.33202      -0.52560      -0.34391
                        -----------------------------------------
Total Dipole Moment    :      0.62668       0.28675      -0.05716
                        -----------------------------------------
Magnitude (a.u.)       :      0.69153
Magnitude (Debye)      :      1.75774

Rotational constants in cm-1:     4.267871     0.861052     0.816274
Rotational constants in MHz : 127947.539219 25813.682288 24471.263910

                             ****ORCA TERMINATED NORMALLY****
TOTAL RUN TIME: 0 days 0 hours 5 minutes 32 seconds 906 msec
