                         Program Version 4.1.2  - RELEASE  -
|  1> #Run DFT-D3 single point of the dimer
|  2> ! wB97X-D3 def2-TZVP TIGHTSCF CHELPG PMODEL PAL8
|  3>
|  4> %base "1-145_DFT_AB"
|  5>
|  6> %scf
|  7> MaxIter 1000
|  8> end
|  9>
| 10> * xyz 0 1
| 11>   C                      4.251394             7.294140             -9.071538
| 12>   O                      4.129112             8.085859             -7.910491
| 13>   H                      4.697433             7.799815             -7.200312
| 14>   H                      3.814201             6.341575             -8.870141
| 15>   H                      3.722404             7.551431             -9.934583
| 16>   H                      5.262686             7.043294             -9.364330
| 17>   C                      0.141395             5.124507             -5.633036
| 18>   O                      0.741285             6.361754             -5.475721
| 19>   H                      1.658459             6.310993             -5.271048
| 20>   H                      0.547620             4.477864             -4.871156
| 21>   H                      -0.971142            5.220325             -5.575686
| 22>   H                      0.396663             4.785102             -6.652269
| 23> *
| 24>
| 25> #Run DFT-D3 single point of the molecule with dimer basis set
| 26> $new_job
| 27> %base "1-145_DFT_A"
| 28> ! wB97X-D3 def2-TZVP TIGHTSCF CHELPG PMODEL
| 29>
| 30> %scf
| 31> MaxIter 1000
| 32> end
| 33>
| 34> * xyz 0 1
| 35>   C                      4.251394             7.294140             -9.071538
| 36>   O                      4.129112             8.085859             -7.910491
| 37>   H                      4.697433             7.799815             -7.200312
| 38>   H                      3.814201             6.341575             -8.870141
| 39>   H                      3.722404             7.551431             -9.934583
| 40>   H                      5.262686             7.043294             -9.364330
| 41>   C                    : 0.141395             5.124507             -5.633036
| 42>   O                    : 0.741285             6.361754             -5.475721
| 43>   H                    : 1.658459             6.310993             -5.271048
| 44>   H                    : 0.547620             4.477864             -4.871156
| 45>   H                    : -0.971142            5.220325             -5.575686
| 46>   H                    : 0.396663             4.785102             -6.652269
| 47> *
| 48>
| 49> #Run DFT-D3 single point of the particle with dimer basis set
| 50> $new_job
| 51> %base "1-145_DFT_B"
| 52> ! wB97X-D3 def2-TZVP TIGHTSCF CHELPG PMODEL
| 53>
| 54> %scf
| 55> MaxIter 1000
| 56> end
| 57>
| 58> * xyz 0 1
| 59>   C                    : 4.251394             7.294140             -9.071538
| 60>   O                    : 4.129112             8.085859             -7.910491
| 61>   H                    : 4.697433             7.799815             -7.200312
| 62>   H                    : 3.814201             6.341575             -8.870141
| 63>   H                    : 3.722404             7.551431             -9.934583
| 64>   H                    : 5.262686             7.043294             -9.364330
| 65>   C                      0.141395             5.124507             -5.633036
| 66>   O                      0.741285             6.361754             -5.475721
| 67>   H                      1.658459             6.310993             -5.271048
| 68>   H                      0.547620             4.477864             -4.871156
| 69>   H                      -0.971142            5.220325             -5.575686
| 70>   H                      0.396663             4.785102             -6.652269
| 71> *
| 72>
| 73>                          ****END OF INPUT****
 Total Charge           Charge          ....    0
 Multiplicity           Mult            ....    1
 Number of Electrons    NEL             ....   36
Dispersion correction           -0.000764871
FINAL SINGLE POINT ENERGY      -231.458186539950
Dispersion correction           -0.000248047
FINAL SINGLE POINT ENERGY      -115.726614214207

CARTESIAN COORDINATES (ANGSTROEM)
---------------------------------
  C      4.251394    7.294140   -9.071538
  O      4.129112    8.085859   -7.910491
  H      4.697433    7.799815   -7.200312
  H      3.814201    6.341575   -8.870141
  H      3.722404    7.551431   -9.934583
  H      5.262686    7.043294   -9.364330
  C      0.141395    5.124507   -5.633036
  O      0.741285    6.361754   -5.475721
  H      1.658459    6.310993   -5.271048
  H      0.547620    4.477864   -4.871156
  H     -0.971142    5.220325   -5.575686
  H      0.396663    4.785102   -6.652269

 Multiplicity           Mult            ....    1
 Number of Electrons    NEL             ....   18
 Basis Dimension        Dim             ....  172

ORBITAL ENERGIES
----------------

  NO   OCC          E(Eh)            E(eV)
   0   2.0000     -19.220458      -523.0153
   1   2.0000     -10.313038      -280.6320
   2   2.0000      -1.144043       -31.1310
   3   2.0000      -0.794911       -21.6306
   4   2.0000      -0.614527       -16.7221
   5   2.0000      -0.549099       -14.9418
   6   2.0000      -0.533940       -14.5292
   7   2.0000      -0.422528       -11.4976
   8   2.0000      -0.366854        -9.9826
   9   0.0000       0.080564         2.1922
  10   0.0000       0.119409         3.2493
  11   0.0000       0.150684         4.1003
  12   0.0000       0.172794         4.7020
  13   0.0000       0.188907         5.1404

MULLIKEN ATOMIC CHARGES
-----------------------
   0 C :   -0.000105
   1 O :   -0.000000
   2 H :   -0.000066
   3 H :   -0.000181
   4 H :    0.000021
   5 H :   -0.000018
   6 C :   -0.141932
   7 O :   -0.483179
   8 H :    0.314305
   9 H :    0.101497
  10 H :    0.116166
  11 H :    0.093490
Sum of atomic charges:    0.0000000

LOEWDIN ATOMIC CHARGES
----------------------
   0 C :   -0.000118
   1 O :   -0.000063
   2 H :   -0.000075
   3 H :   -0.000057
   4 H :   -0.000000
   5 H :   -0.000006
   6 C :   -0.399589
   7 O :   -0.056229
   8 H :    0.155590
   9 H :    0.092366
  10 H :    0.112849
  11 H :    0.095333

  Mayer bond orders larger than 0.1
B(  6-C ,  7-O ) :   0.9898 B(  6-C ,  9-H ) :   0.9865 B(  6-C , 10-H ) :   0.9687
B(  6-C , 11-H ) :   0.9814 B(  7-O ,  8-H ) :   0.8985

Dispersion correction           -0.000217370
FINAL SINGLE POINT ENERGY      -115.732073139991

DIPOLE MOMENT
-------------
                                X             Y             Z
Electronic contribution:      0.61525       1.54861       0.25152
Nuclear contribution   :     -0.24585      -2.06633      -0.16084
                        -----------------------------------------
Total Dipole Moment    :      0.36941      -0.51773       0.09068
                        -----------------------------------------
Magnitude (a.u.)       :      0.64244
Magnitude (Debye)      :      1.63295

Rotational constants in cm-1:     4.242655     0.866341     0.835991
Rotational constants in MHz : 127191.607703 25972.256315 25062.366989

                             ****ORCA TERMINATED NORMALLY****
TOTAL RUN TIME: 0 days 0 hours 6 minutes 0 seconds 450 msec
