                         Program Version 4.1.2  - RELEASE  -
|  1> #Run DFT-D3 single point of the dimer
|  2> ! wB97X-D3 def2-TZVP TIGHTSCF CHELPG PMODEL PAL8
|  3>
|  4> %base "18-44_DFT_AB"
|  5>
|  6> %scf
|  7> MaxIter 1000
|  8> end
|  9>
| 10> * xyz 0 1
| 11>   C                      -2.012563            4.665636             -1.975602
| 12>   O                      -2.587163            3.443356             -2.387225
| 13>   H                      -2.699769            2.832937             -1.683804
| 14>   H                      -1.104865            4.452574             -1.373677
| 15>   H                      -1.693675            5.183946             -2.882772
| 16>   H                      -2.766827            5.318061             -1.491630
| 17>   C                      -3.115504            7.001241             2.301586
| 18>   O                      -3.053146            6.462424             0.964257
| 19>   H                      -2.899011            7.214064             0.348305
| 20>   H                      -3.798502            7.837995             2.319530
| 21>   H                      -3.430143            6.398298             3.171585
| 22>   H                      -2.108414            7.378747             2.531896
| 23> *
| 24>
| 25> #Run DFT-D3 single point of the molecule with dimer basis set
| 26> $new_job
| 27> %base "18-44_DFT_A"
| 28> ! wB97X-D3 def2-TZVP TIGHTSCF CHELPG PMODEL
| 29>
| 30> %scf
| 31> MaxIter 1000
| 32> end
| 33>
| 34> * xyz 0 1
| 35>   C                      -2.012563            4.665636             -1.975602
| 36>   O                      -2.587163            3.443356             -2.387225
| 37>   H                      -2.699769            2.832937             -1.683804
| 38>   H                      -1.104865            4.452574             -1.373677
| 39>   H                      -1.693675            5.183946             -2.882772
| 40>   H                      -2.766827            5.318061             -1.491630
| 41>   C                    : -3.115504            7.001241             2.301586
| 42>   O                    : -3.053146            6.462424             0.964257
| 43>   H                    : -2.899011            7.214064             0.348305
| 44>   H                    : -3.798502            7.837995             2.319530
| 45>   H                    : -3.430143            6.398298             3.171585
| 46>   H                    : -2.108414            7.378747             2.531896
| 47> *
| 48>
| 49> #Run DFT-D3 single point of the particle with dimer basis set
| 50> $new_job
| 51> %base "18-44_DFT_B"
| 52> ! wB97X-D3 def2-TZVP TIGHTSCF CHELPG PMODEL
| 53>
| 54> %scf
| 55> MaxIter 1000
| 56> end
| 57>
| 58> * xyz 0 1
| 59>   C                    : -2.012563            4.665636             -1.975602
| 60>   O                    : -2.587163            3.443356             -2.387225
| 61>   H                    : -2.699769            2.832937             -1.683804
| 62>   H                    : -1.104865            4.452574             -1.373677
| 63>   H                    : -1.693675            5.183946             -2.882772
| 64>   H                    : -2.766827            5.318061             -1.491630
| 65>   C                      -3.115504            7.001241             2.301586
| 66>   O                      -3.053146            6.462424             0.964257
| 67>   H                      -2.899011            7.214064             0.348305
| 68>   H                      -3.798502            7.837995             2.319530
| 69>   H                      -3.430143            6.398298             3.171585
| 70>   H                      -2.108414            7.378747             2.531896
| 71> *
| 72>
| 73>                          ****END OF INPUT****
 Total Charge           Charge          ....    0
 Multiplicity           Mult            ....    1
 Number of Electrons    NEL             ....   36
Dispersion correction           -0.001246532
FINAL SINGLE POINT ENERGY      -231.463837936509
Dispersion correction           -0.000246454
FINAL SINGLE POINT ENERGY      -115.735049524400

CARTESIAN COORDINATES (ANGSTROEM)
---------------------------------
  C     -2.012563    4.665636   -1.975602
  O     -2.587163    3.443356   -2.387225
  H     -2.699769    2.832937   -1.683804
  H     -1.104865    4.452574   -1.373677
  H     -1.693675    5.183946   -2.882772
  H     -2.766827    5.318061   -1.491630
  C     -3.115504    7.001241    2.301586
  O     -3.053146    6.462424    0.964257
  H     -2.899011    7.214064    0.348305
  H     -3.798502    7.837995    2.319530
  H     -3.430143    6.398298    3.171585
  H     -2.108414    7.378747    2.531896

 Multiplicity           Mult            ....    1
 Number of Electrons    NEL             ....   18
 Basis Dimension        Dim             ....  172

ORBITAL ENERGIES
----------------

  NO   OCC          E(Eh)            E(eV)
   0   2.0000     -19.232573      -523.3449
   1   2.0000     -10.317291      -280.7478
   2   2.0000      -1.123781       -30.5796
   3   2.0000      -0.795966       -21.6593
   4   2.0000      -0.601298       -16.3621
   5   2.0000      -0.540573       -14.7097
   6   2.0000      -0.530770       -14.4430
   7   2.0000      -0.427782       -11.6406
   8   2.0000      -0.372464       -10.1353
   9   0.0000       0.093138         2.5344
  10   0.0000       0.120019         3.2659
  11   0.0000       0.147178         4.0049
  12   0.0000       0.175145         4.7659
  13   0.0000       0.199432         5.4268

MULLIKEN ATOMIC CHARGES
-----------------------
   0 C :   -0.000176
   1 O :   -0.000009
   2 H :   -0.000096
   3 H :   -0.000673
   4 H :   -0.000142
   5 H :   -0.005360
   6 C :   -0.179192
   7 O :   -0.475497
   8 H :    0.322437
   9 H :    0.105302
  10 H :    0.129719
  11 H :    0.103688
Sum of atomic charges:   -0.0000000

LOEWDIN ATOMIC CHARGES
----------------------
   0 C :   -0.004726
   1 O :   -0.000027
   2 H :   -0.000017
   3 H :   -0.000566
   4 H :   -0.000029
   5 H :   -0.005518
   6 C :   -0.370306
   7 O :   -0.106297
   8 H :    0.185624
   9 H :    0.092341
  10 H :    0.112219
  11 H :    0.097302

  Mayer bond orders larger than 0.1
B(  6-C ,  7-O ) :   0.9844 B(  6-C ,  9-H ) :   0.9803 B(  6-C , 10-H ) :   0.9679
B(  6-C , 11-H ) :   0.9835 B(  7-O ,  8-H ) :   0.8898

Dispersion correction           -0.000249049
FINAL SINGLE POINT ENERGY      -115.727798991377

DIPOLE MOMENT
-------------
                                X             Y             Z
Electronic contribution:     -0.01610      -0.97097      -1.61620
Nuclear contribution   :      0.06881       1.68114       1.81152
                        -----------------------------------------
Total Dipole Moment    :      0.05272       0.71018       0.19531
                        -----------------------------------------
Magnitude (a.u.)       :      0.73843
Magnitude (Debye)      :      1.87693

Rotational constants in cm-1:     4.400264     0.793016     0.768638
Rotational constants in MHz : 131916.583156 23774.026325 23043.185147

                             ****ORCA TERMINATED NORMALLY****
TOTAL RUN TIME: 0 days 0 hours 0 minutes 59 seconds 522 msec
