                         Program Version 4.1.2  - RELEASE  -
|  1> #Run DFT-D3 single point of the dimer
|  2> ! wB97X-D3 def2-TZVP TIGHTSCF CHELPG PMODEL PAL8
|  3>
|  4> %base "15-188_DFT_AB"
|  5>
|  6> %scf
|  7> MaxIter 1000
|  8> end
|  9>
| 10> * xyz 0 1
| 11>   C                      4.586938             5.992063             7.361897
| 12>   O                      3.991304             7.242448             7.064388
| 13>   H                      3.451555             7.473665             7.824999
| 14>   H                      4.995584             5.497128             6.447825
| 15>   H                      5.383443             6.062640             8.101021
| 16>   H                      3.956783             5.324596             7.863803
| 17>   C                      2.025494             10.036831            8.746063
| 18>   O                      2.493748             8.885438             9.376842
| 19>   H                      3.256075             9.161430             9.885632
| 20>   H                      1.196785             9.918362             8.026362
| 21>   H                      1.828407             10.940618            9.348928
| 22>   H                      2.829153             10.360835            8.101614
| 23> *
| 24>
| 25> #Run DFT-D3 single point of the molecule with dimer basis set
| 26> $new_job
| 27> %base "15-188_DFT_A"
| 28> ! wB97X-D3 def2-TZVP TIGHTSCF CHELPG PMODEL
| 29>
| 30> %scf
| 31> MaxIter 1000
| 32> end
| 33>
| 34> * xyz 0 1
| 35>   C                      4.586938             5.992063             7.361897
| 36>   O                      3.991304             7.242448             7.064388
| 37>   H                      3.451555             7.473665             7.824999
| 38>   H                      4.995584             5.497128             6.447825
| 39>   H                      5.383443             6.062640             8.101021
| 40>   H                      3.956783             5.324596             7.863803
| 41>   C                    : 2.025494             10.036831            8.746063
| 42>   O                    : 2.493748             8.885438             9.376842
| 43>   H                    : 3.256075             9.161430             9.885632
| 44>   H                    : 1.196785             9.918362             8.026362
| 45>   H                    : 1.828407             10.940618            9.348928
| 46>   H                    : 2.829153             10.360835            8.101614
| 47> *
| 48>
| 49> #Run DFT-D3 single point of the particle with dimer basis set
| 50> $new_job
| 51> %base "15-188_DFT_B"
| 52> ! wB97X-D3 def2-TZVP TIGHTSCF CHELPG PMODEL
| 53>
| 54> %scf
| 55> MaxIter 1000
| 56> end
| 57>
| 58> * xyz 0 1
| 59>   C                    : 4.586938             5.992063             7.361897
| 60>   O                    : 3.991304             7.242448             7.064388
| 61>   H                    : 3.451555             7.473665             7.824999
| 62>   H                    : 4.995584             5.497128             6.447825
| 63>   H                    : 5.383443             6.062640             8.101021
| 64>   H                    : 3.956783             5.324596             7.863803
| 65>   C                      2.025494             10.036831            8.746063
| 66>   O                      2.493748             8.885438             9.376842
| 67>   H                      3.256075             9.161430             9.885632
| 68>   H                      1.196785             9.918362             8.026362
| 69>   H                      1.828407             10.940618            9.348928
| 70>   H                      2.829153             10.360835            8.101614
| 71> *
| 72>
| 73>                          ****END OF INPUT****
 Total Charge           Charge          ....    0
 Multiplicity           Mult            ....    1
 Number of Electrons    NEL             ....   36
Dispersion correction           -0.001532232
FINAL SINGLE POINT ENERGY      -231.468311720167
Dispersion correction           -0.000239673
FINAL SINGLE POINT ENERGY      -115.732237968129

CARTESIAN COORDINATES (ANGSTROEM)
---------------------------------
  C      4.586938    5.992063    7.361897
  O      3.991304    7.242448    7.064388
  H      3.451555    7.473665    7.824999
  H      4.995584    5.497128    6.447825
  H      5.383443    6.062640    8.101021
  H      3.956783    5.324596    7.863803
  C      2.025494   10.036831    8.746063
  O      2.493748    8.885438    9.376842
  H      3.256075    9.161430    9.885632
  H      1.196785    9.918362    8.026362
  H      1.828407   10.940618    9.348928
  H      2.829153   10.360835    8.101614

 Multiplicity           Mult            ....    1
 Number of Electrons    NEL             ....   18
 Basis Dimension        Dim             ....  172

ORBITAL ENERGIES
----------------

  NO   OCC          E(Eh)            E(eV)
   0   2.0000     -19.234745      -523.4040
   1   2.0000     -10.312194      -280.6091
   2   2.0000      -1.147380       -31.2218
   3   2.0000      -0.796208       -21.6659
   4   2.0000      -0.619396       -16.8546
   5   2.0000      -0.538298       -14.6478
   6   2.0000      -0.534514       -14.5449
   7   2.0000      -0.436188       -11.8693
   8   2.0000      -0.370512       -10.0821
   9   0.0000       0.093043         2.5318
  10   0.0000       0.120466         3.2780
  11   0.0000       0.149687         4.0732
  12   0.0000       0.185817         5.0563
  13   0.0000       0.201070         5.4714

MULLIKEN ATOMIC CHARGES
-----------------------
   0 C :   -0.000240
   1 O :   -0.001800
   2 H :   -0.004671
   3 H :   -0.000061
   4 H :   -0.000075
   5 H :   -0.000152
   6 C :   -0.185759
   7 O :   -0.463551
   8 H :    0.320311
   9 H :    0.122244
  10 H :    0.105843
  11 H :    0.107911
Sum of atomic charges:   -0.0000000

LOEWDIN ATOMIC CHARGES
----------------------
   0 C :   -0.000715
   1 O :   -0.002282
   2 H :   -0.020945
   3 H :   -0.000013
   4 H :   -0.000044
   5 H :   -0.000048
   6 C :   -0.413586
   7 O :   -0.039112
   8 H :    0.174367
   9 H :    0.111839
  10 H :    0.096727
  11 H :    0.093812

  Mayer bond orders larger than 0.1
B(  6-C ,  7-O ) :   0.9853 B(  6-C ,  9-H ) :   0.9730 B(  6-C , 10-H ) :   0.9641
B(  6-C , 11-H ) :   0.9918 B(  7-O ,  8-H ) :   0.8952

Dispersion correction           -0.000234041
FINAL SINGLE POINT ENERGY      -115.729241360135

DIPOLE MOMENT
-------------
                                X             Y             Z
Electronic contribution:      0.36499      -1.71517       0.92874
Nuclear contribution   :     -0.04736       2.34066      -0.86721
                        -----------------------------------------
Total Dipole Moment    :      0.31764       0.62550       0.06154
                        -----------------------------------------
Magnitude (a.u.)       :      0.70422
Magnitude (Debye)      :      1.78998

Rotational constants in cm-1:     4.467902     0.843831     0.806915
Rotational constants in MHz : 133944.321558 25297.403067 24190.708840

                             ****ORCA TERMINATED NORMALLY****
TOTAL RUN TIME: 0 days 0 hours 1 minutes 5 seconds 634 msec
