                         Program Version 4.1.2  - RELEASE  -
|  1> #Run DFT-D3 single point of the dimer
|  2> ! wB97X-D3 def2-TZVP TIGHTSCF CHELPG PMODEL PAL8
|  3>
|  4> %base "20-23_DFT_AB"
|  5>
|  6> %scf
|  7> MaxIter 1000
|  8> end
|  9>
| 10> * xyz 0 1
| 11>   C                      7.022081             -8.326697            9.853911
| 12>   O                      7.322670             -8.141552            11.271273
| 13>   H                      6.715127             -8.811474            11.650271
| 14>   H                      7.204798             -7.429468            9.312744
| 15>   H                      7.707695             -9.087207            9.380179
| 16>   H                      5.996552             -8.662078            9.599881
| 17>   C                      8.634688             -5.268934            11.587748
| 18>   O                      9.217806             -4.402397            10.598828
| 19>   H                      9.336167             -5.022159            9.761521
| 20>   H                      8.340984             -4.738358            12.480780
| 21>   H                      7.631109             -5.722182            11.245005
| 22>   H                      9.297304             -6.075081            11.703729
| 23> *
| 24>
| 25> #Run DFT-D3 single point of the molecule with dimer basis set
| 26> $new_job
| 27> %base "20-23_DFT_A"
| 28> ! wB97X-D3 def2-TZVP TIGHTSCF CHELPG PMODEL
| 29>
| 30> %scf
| 31> MaxIter 1000
| 32> end
| 33>
| 34> * xyz 0 1
| 35>   C                      7.022081             -8.326697            9.853911
| 36>   O                      7.322670             -8.141552            11.271273
| 37>   H                      6.715127             -8.811474            11.650271
| 38>   H                      7.204798             -7.429468            9.312744
| 39>   H                      7.707695             -9.087207            9.380179
| 40>   H                      5.996552             -8.662078            9.599881
| 41>   C                    : 8.634688             -5.268934            11.587748
| 42>   O                    : 9.217806             -4.402397            10.598828
| 43>   H                    : 9.336167             -5.022159            9.761521
| 44>   H                    : 8.340984             -4.738358            12.480780
| 45>   H                    : 7.631109             -5.722182            11.245005
| 46>   H                    : 9.297304             -6.075081            11.703729
| 47> *
| 48>
| 49> #Run DFT-D3 single point of the particle with dimer basis set
| 50> $new_job
| 51> %base "20-23_DFT_B"
| 52> ! wB97X-D3 def2-TZVP TIGHTSCF CHELPG PMODEL
| 53>
| 54> %scf
| 55> MaxIter 1000
| 56> end
| 57>
| 58> * xyz 0 1
| 59>   C                    : 7.022081             -8.326697            9.853911
| 60>   O                    : 7.322670             -8.141552            11.271273
| 61>   H                    : 6.715127             -8.811474            11.650271
| 62>   H                    : 7.204798             -7.429468            9.312744
| 63>   H                    : 7.707695             -9.087207            9.380179
| 64>   H                    : 5.996552             -8.662078            9.599881
| 65>   C                      8.634688             -5.268934            11.587748
| 66>   O                      9.217806             -4.402397            10.598828
| 67>   H                      9.336167             -5.022159            9.761521
| 68>   H                      8.340984             -4.738358            12.480780
| 69>   H                      7.631109             -5.722182            11.245005
| 70>   H                      9.297304             -6.075081            11.703729
| 71> *
| 72>
| 73>                          ****END OF INPUT****
 Total Charge           Charge          ....    0
 Multiplicity           Mult            ....    1
 Number of Electrons    NEL             ....   36
Dispersion correction           -0.001915219
FINAL SINGLE POINT ENERGY      -231.455196364322
Dispersion correction           -0.000267013
FINAL SINGLE POINT ENERGY      -115.730665983596

CARTESIAN COORDINATES (ANGSTROEM)
---------------------------------
  C      7.022081   -8.326697    9.853911
  O      7.322670   -8.141552   11.271273
  H      6.715127   -8.811474   11.650271
  H      7.204798   -7.429468    9.312744
  H      7.707695   -9.087207    9.380179
  H      5.996552   -8.662078    9.599881
  C      8.634688   -5.268934   11.587748
  O      9.217806   -4.402397   10.598828
  H      9.336167   -5.022159    9.761521
  H      8.340984   -4.738358   12.480780
  H      7.631109   -5.722182   11.245005
  H      9.297304   -6.075081   11.703729

 Multiplicity           Mult            ....    1
 Number of Electrons    NEL             ....   18
 Basis Dimension        Dim             ....  172

ORBITAL ENERGIES
----------------

  NO   OCC          E(Eh)            E(eV)
   0   2.0000     -19.238037      -523.4936
   1   2.0000     -10.314970      -280.6846
   2   2.0000      -1.116505       -30.3816
   3   2.0000      -0.788640       -21.4600
   4   2.0000      -0.596758       -16.2386
   5   2.0000      -0.547524       -14.8989
   6   2.0000      -0.515252       -14.0207
   7   2.0000      -0.436662       -11.8822
   8   2.0000      -0.369556       -10.0561
   9   0.0000       0.073501         2.0001
  10   0.0000       0.107973         2.9381
  11   0.0000       0.149666         4.0726
  12   0.0000       0.174572         4.7503
  13   0.0000       0.179133         4.8744

MULLIKEN ATOMIC CHARGES
-----------------------
   0 C :   -0.002318
   1 O :   -0.001899
   2 H :   -0.000407
   3 H :    0.001376
   4 H :   -0.000005
   5 H :    0.000244
   6 C :   -0.161546
   7 O :   -0.473462
   8 H :    0.314538
   9 H :    0.125639
  10 H :    0.089249
  11 H :    0.108591
Sum of atomic charges:   -0.0000000

LOEWDIN ATOMIC CHARGES
----------------------
   0 C :   -0.006156
   1 O :   -0.009324
   2 H :   -0.000479
   3 H :   -0.001924
   4 H :   -0.000086
   5 H :   -0.000056
   6 C :   -0.371413
   7 O :   -0.128546
   8 H :    0.215895
   9 H :    0.105677
  10 H :    0.108684
  11 H :    0.087729

  Mayer bond orders larger than 0.1
B(  6-C ,  7-O ) :   0.9985 B(  6-C ,  9-H ) :   0.9677 B(  6-C , 10-H ) :   0.9741
B(  6-C , 11-H ) :   0.9819 B(  7-O ,  8-H ) :   0.8920

Dispersion correction           -0.000239343
FINAL SINGLE POINT ENERGY      -115.723499642302

DIPOLE MOMENT
-------------
                                X             Y             Z
Electronic contribution:      0.88090       1.31146      -0.98063
Nuclear contribution   :     -1.03355      -2.01239       0.89493
                        -----------------------------------------
Total Dipole Moment    :     -0.15266      -0.70093      -0.08570
                        -----------------------------------------
Magnitude (a.u.)       :      0.72247
Magnitude (Debye)      :      1.83636

Rotational constants in cm-1:     4.097397     0.812741     0.775648
Rotational constants in MHz : 122836.859598 24365.372615 23253.339201

                             ****ORCA TERMINATED NORMALLY****
TOTAL RUN TIME: 0 days 0 hours 1 minutes 5 seconds 52 msec
