                         Program Version 4.1.2  - RELEASE  -
|  1> #Run DFT-D3 single point of the dimer
|  2> ! wB97X-D3 def2-TZVP TIGHTSCF CHELPG PMODEL PAL8
|  3>
|  4> %base "13-85_DFT_AB"
|  5>
|  6> %scf
|  7> MaxIter 1000
|  8> end
|  9>
| 10> * xyz 0 1
| 11>   C                      -2.473489            2.754382             -3.587635
| 12>   O                      -2.443331            4.137999             -3.468418
| 13>   H                      -2.406738            4.647574             -4.288539
| 14>   H                      -1.822514            2.438176             -4.417710
| 15>   H                      -2.095098            2.370439             -2.644488
| 16>   H                      -3.458589            2.327411             -3.868728
| 17>   C                      0.922069             2.397543             -2.403654
| 18>   O                      1.090850             1.893788             -3.723139
| 19>   H                      2.030726             1.818473             -3.731177
| 20>   H                      -0.032940            3.018168             -2.168044
| 21>   H                      1.074150             1.541091             -1.683846
| 22>   H                      1.780223             3.123276             -2.281301
| 23> *
| 24>
| 25> #Run DFT-D3 single point of the molecule with dimer basis set
| 26> $new_job
| 27> %base "13-85_DFT_A"
| 28> ! wB97X-D3 def2-TZVP TIGHTSCF CHELPG PMODEL
| 29>
| 30> %scf
| 31> MaxIter 1000
| 32> end
| 33>
| 34> * xyz 0 1
| 35>   C                      -2.473489            2.754382             -3.587635
| 36>   O                      -2.443331            4.137999             -3.468418
| 37>   H                      -2.406738            4.647574             -4.288539
| 38>   H                      -1.822514            2.438176             -4.417710
| 39>   H                      -2.095098            2.370439             -2.644488
| 40>   H                      -3.458589            2.327411             -3.868728
| 41>   C                    : 0.922069             2.397543             -2.403654
| 42>   O                    : 1.090850             1.893788             -3.723139
| 43>   H                    : 2.030726             1.818473             -3.731177
| 44>   H                    : -0.032940            3.018168             -2.168044
| 45>   H                    : 1.074150             1.541091             -1.683846
| 46>   H                    : 1.780223             3.123276             -2.281301
| 47> *
| 48>
| 49> #Run DFT-D3 single point of the particle with dimer basis set
| 50> $new_job
| 51> %base "13-85_DFT_B"
| 52> ! wB97X-D3 def2-TZVP TIGHTSCF CHELPG PMODEL
| 53>
| 54> %scf
| 55> MaxIter 1000
| 56> end
| 57>
| 58> * xyz 0 1
| 59>   C                    : -2.473489            2.754382             -3.587635
| 60>   O                    : -2.443331            4.137999             -3.468418
| 61>   H                    : -2.406738            4.647574             -4.288539
| 62>   H                    : -1.822514            2.438176             -4.417710
| 63>   H                    : -2.095098            2.370439             -2.644488
| 64>   H                    : -3.458589            2.327411             -3.868728
| 65>   C                      0.922069             2.397543             -2.403654
| 66>   O                      1.090850             1.893788             -3.723139
| 67>   H                      2.030726             1.818473             -3.731177
| 68>   H                      -0.032940            3.018168             -2.168044
| 69>   H                      1.074150             1.541091             -1.683846
| 70>   H                      1.780223             3.123276             -2.281301
| 71> *
| 72>
| 73>                          ****END OF INPUT****
 Total Charge           Charge          ....    0
 Multiplicity           Mult            ....    1
 Number of Electrons    NEL             ....   36
Dispersion correction           -0.001864776
FINAL SINGLE POINT ENERGY      -231.459339257638
Dispersion correction           -0.000251151
FINAL SINGLE POINT ENERGY      -115.733592161834

CARTESIAN COORDINATES (ANGSTROEM)
---------------------------------
  C     -2.473489    2.754382   -3.587635
  O     -2.443331    4.137999   -3.468418
  H     -2.406738    4.647574   -4.288539
  H     -1.822514    2.438176   -4.417710
  H     -2.095098    2.370439   -2.644488
  H     -3.458589    2.327411   -3.868728
  C      0.922069    2.397543   -2.403654
  O      1.090850    1.893788   -3.723139
  H      2.030726    1.818473   -3.731177
  H     -0.032940    3.018168   -2.168044
  H      1.074150    1.541091   -1.683846
  H      1.780223    3.123276   -2.281301

 Multiplicity           Mult            ....    1
 Number of Electrons    NEL             ....   18
 Basis Dimension        Dim             ....  172

ORBITAL ENERGIES
----------------

  NO   OCC          E(Eh)            E(eV)
   0   2.0000     -19.231023      -523.3028
   1   2.0000     -10.330758      -281.1142
   2   2.0000      -1.145608       -31.1736
   3   2.0000      -0.781195       -21.2574
   4   2.0000      -0.607518       -16.5314
   5   2.0000      -0.543344       -14.7852
   6   2.0000      -0.526012       -14.3135
   7   2.0000      -0.433262       -11.7896
   8   2.0000      -0.373113       -10.1529
   9   0.0000       0.091472         2.4891
  10   0.0000       0.117776         3.2049
  11   0.0000       0.151753         4.1294
  12   0.0000       0.170115         4.6291
  13   0.0000       0.192700         5.2436

MULLIKEN ATOMIC CHARGES
-----------------------
   0 C :    0.005503
   1 O :   -0.000346
   2 H :   -0.000087
   3 H :   -0.004219
   4 H :   -0.000728
   5 H :    0.000188
   6 C :   -0.193015
   7 O :   -0.448472
   8 H :    0.311539
   9 H :    0.122830
  10 H :    0.106100
  11 H :    0.100707
Sum of atomic charges:   -0.0000000

LOEWDIN ATOMIC CHARGES
----------------------
   0 C :   -0.008172
   1 O :   -0.000642
   2 H :   -0.000062
   3 H :   -0.002243
   4 H :   -0.005799
   5 H :   -0.000039
   6 C :   -0.395380
   7 O :   -0.076312
   8 H :    0.162753
   9 H :    0.124709
  10 H :    0.100736
  11 H :    0.100450

  Mayer bond orders larger than 0.1
B(  6-C ,  7-O ) :   0.9899 B(  6-C ,  9-H ) :   0.9656 B(  6-C , 10-H ) :   0.9714
B(  6-C , 11-H ) :   0.9904 B(  7-O ,  8-H ) :   0.9052

Dispersion correction           -0.000228027
FINAL SINGLE POINT ENERGY      -115.723867784536

DIPOLE MOMENT
-------------
                                X             Y             Z
Electronic contribution:     -0.11284      -0.70627      -1.77150
Nuclear contribution   :      0.63898       0.86711       2.25794
                        -----------------------------------------
Total Dipole Moment    :      0.52614       0.16084       0.48644
                        -----------------------------------------
Magnitude (a.u.)       :      0.73438
Magnitude (Debye)      :      1.86665

Rotational constants in cm-1:     3.989532     0.826052     0.798075
Rotational constants in MHz : 119603.169848 24764.420173 23925.679005

                             ****ORCA TERMINATED NORMALLY****
TOTAL RUN TIME: 0 days 0 hours 1 minutes 7 seconds 481 msec
