                         Program Version 4.1.2  - RELEASE  -
|  1> #Run DFT-D3 single point of the dimer
|  2> ! wB97X-D3 def2-TZVP TIGHTSCF CHELPG PMODEL PAL8
|  3>
|  4> %base "4-55_DFT_AB"
|  5>
|  6> %scf
|  7> MaxIter 1000
|  8> end
|  9>
| 10> * xyz 0 1
| 11>   C                      4.599833             1.923888             6.602593
| 12>   O                      3.786116             2.729609             7.484004
| 13>   H                      3.607876             3.440949             6.897519
| 14>   H                      5.455821             2.534420             6.223668
| 15>   H                      5.103900             1.124986             7.097621
| 16>   H                      4.070648             1.512387             5.743250
| 17>   C                      4.430335             5.512395             8.657637
| 18>   O                      4.405367             6.904607             8.601094
| 19>   H                      5.340159             7.220050             8.776465
| 20>   H                      4.978902             5.137231             9.546736
| 21>   H                      3.450667             5.052634             8.684871
| 22>   H                      4.890700             5.123783             7.757097
| 23> *
| 24>
| 25> #Run DFT-D3 single point of the molecule with dimer basis set
| 26> $new_job
| 27> %base "4-55_DFT_A"
| 28> ! wB97X-D3 def2-TZVP TIGHTSCF CHELPG PMODEL
| 29>
| 30> %scf
| 31> MaxIter 1000
| 32> end
| 33>
| 34> * xyz 0 1
| 35>   C                      4.599833             1.923888             6.602593
| 36>   O                      3.786116             2.729609             7.484004
| 37>   H                      3.607876             3.440949             6.897519
| 38>   H                      5.455821             2.534420             6.223668
| 39>   H                      5.103900             1.124986             7.097621
| 40>   H                      4.070648             1.512387             5.743250
| 41>   C                    : 4.430335             5.512395             8.657637
| 42>   O                    : 4.405367             6.904607             8.601094
| 43>   H                    : 5.340159             7.220050             8.776465
| 44>   H                    : 4.978902             5.137231             9.546736
| 45>   H                    : 3.450667             5.052634             8.684871
| 46>   H                    : 4.890700             5.123783             7.757097
| 47> *
| 48>
| 49> #Run DFT-D3 single point of the particle with dimer basis set
| 50> $new_job
| 51> %base "4-55_DFT_B"
| 52> ! wB97X-D3 def2-TZVP TIGHTSCF CHELPG PMODEL
| 53>
| 54> %scf
| 55> MaxIter 1000
| 56> end
| 57>
| 58> * xyz 0 1
| 59>   C                    : 4.599833             1.923888             6.602593
| 60>   O                    : 3.786116             2.729609             7.484004
| 61>   H                    : 3.607876             3.440949             6.897519
| 62>   H                    : 5.455821             2.534420             6.223668
| 63>   H                    : 5.103900             1.124986             7.097621
| 64>   H                    : 4.070648             1.512387             5.743250
| 65>   C                      4.430335             5.512395             8.657637
| 66>   O                      4.405367             6.904607             8.601094
| 67>   H                      5.340159             7.220050             8.776465
| 68>   H                      4.978902             5.137231             9.546736
| 69>   H                      3.450667             5.052634             8.684871
| 70>   H                      4.890700             5.123783             7.757097
| 71> *
| 72>
| 73>                          ****END OF INPUT****
 Total Charge           Charge          ....    0
 Multiplicity           Mult            ....    1
 Number of Electrons    NEL             ....   36
Dispersion correction           -0.001709377
FINAL SINGLE POINT ENERGY      -231.465768617690
Dispersion correction           -0.000234917
FINAL SINGLE POINT ENERGY      -115.731830714957

CARTESIAN COORDINATES (ANGSTROEM)
---------------------------------
  C      4.599833    1.923888    6.602593
  O      3.786116    2.729609    7.484004
  H      3.607876    3.440949    6.897519
  H      5.455821    2.534420    6.223668
  H      5.103900    1.124986    7.097621
  H      4.070648    1.512387    5.743250
  C      4.430335    5.512395    8.657637
  O      4.405367    6.904607    8.601094
  H      5.340159    7.220050    8.776465
  H      4.978902    5.137231    9.546736
  H      3.450667    5.052634    8.684871
  H      4.890700    5.123783    7.757097

 Multiplicity           Mult            ....    1
 Number of Electrons    NEL             ....   18
 Basis Dimension        Dim             ....  172

ORBITAL ENERGIES
----------------

  NO   OCC          E(Eh)            E(eV)
   0   2.0000     -19.233957      -523.3826
   1   2.0000     -10.309602      -280.5385
   2   2.0000      -1.135955       -30.9109
   3   2.0000      -0.791348       -21.5337
   4   2.0000      -0.607707       -16.5365
   5   2.0000      -0.544264       -14.8102
   6   2.0000      -0.533064       -14.5054
   7   2.0000      -0.429444       -11.6858
   8   2.0000      -0.370863       -10.0917
   9   0.0000       0.085974         2.3395
  10   0.0000       0.110723         3.0129
  11   0.0000       0.150294         4.0897
  12   0.0000       0.181106         4.9281
  13   0.0000       0.183121         4.9830

MULLIKEN ATOMIC CHARGES
-----------------------
   0 C :    0.000778
   1 O :   -0.000739
   2 H :   -0.001727
   3 H :   -0.000923
   4 H :    0.000026
   5 H :   -0.000046
   6 C :   -0.167327
   7 O :   -0.467401
   8 H :    0.320376
   9 H :    0.097999
  10 H :    0.118457
  11 H :    0.100527
Sum of atomic charges:   -0.0000000

LOEWDIN ATOMIC CHARGES
----------------------
   0 C :   -0.001662
   1 O :   -0.006136
   2 H :   -0.007264
   3 H :   -0.000741
   4 H :   -0.000014
   5 H :   -0.000012
   6 C :   -0.403210
   7 O :   -0.078751
   8 H :    0.197302
   9 H :    0.097327
  10 H :    0.107689
  11 H :    0.095470

  Mayer bond orders larger than 0.1
B(  6-C ,  7-O ) :   1.0029 B(  6-C ,  9-H ) :   0.9762 B(  6-C , 10-H ) :   0.9691
B(  6-C , 11-H ) :   0.9802 B(  7-O ,  8-H ) :   0.8902

Dispersion correction           -0.000231164
FINAL SINGLE POINT ENERGY      -115.733371690204

DIPOLE MOMENT
-------------
                                X             Y             Z
Electronic contribution:     -0.24323       1.86692      -0.08597
Nuclear contribution   :      0.81633      -2.20157       0.21587
                        -----------------------------------------
Total Dipole Moment    :      0.57310      -0.33465       0.12990
                        -----------------------------------------
Magnitude (a.u.)       :      0.67624
Magnitude (Debye)      :      1.71888

Rotational constants in cm-1:     4.281771     0.846505     0.814954
Rotational constants in MHz : 128364.279739 25377.569600 24431.704631

                             ****ORCA TERMINATED NORMALLY****
TOTAL RUN TIME: 0 days 0 hours 1 minutes 35 seconds 891 msec
