                         Program Version 4.1.2  - RELEASE  -
|  1> #Run DFT-D3 single point of the dimer
|  2> ! wB97X-D3 def2-TZVP TIGHTSCF CHELPG PMODEL PAL8
|  3>
|  4> %base "8-186_DFT_AB"
|  5>
|  6> %scf
|  7> MaxIter 1000
|  8> end
|  9>
| 10> * xyz 0 1
| 11>   C                      -6.089729            4.718462             -4.995477
| 12>   O                      -7.378963            5.167259             -5.188108
| 13>   H                      -7.301230            5.778819             -5.888763
| 14>   H                      -5.713952            4.882978             -3.965145
| 15>   H                      -6.106463            3.570739             -5.127612
| 16>   H                      -5.362559            5.028709             -5.773777
| 17>   C                      -8.366601            4.584721             -9.133559
| 18>   O                      -7.867684            4.409381             -7.887099
| 19>   H                      -7.312609            3.624490             -7.887407
| 20>   H                      -8.578950            5.536906             -9.423540
| 21>   H                      -7.674801            4.326302             -9.915099
| 22>   H                      -9.268637            4.006692             -9.423970
| 23> *
| 24>
| 25> #Run DFT-D3 single point of the molecule with dimer basis set
| 26> $new_job
| 27> %base "8-186_DFT_A"
| 28> ! wB97X-D3 def2-TZVP TIGHTSCF CHELPG PMODEL
| 29>
| 30> %scf
| 31> MaxIter 1000
| 32> end
| 33>
| 34> * xyz 0 1
| 35>   C                      -6.089729            4.718462             -4.995477
| 36>   O                      -7.378963            5.167259             -5.188108
| 37>   H                      -7.301230            5.778819             -5.888763
| 38>   H                      -5.713952            4.882978             -3.965145
| 39>   H                      -6.106463            3.570739             -5.127612
| 40>   H                      -5.362559            5.028709             -5.773777
| 41>   C                    : -8.366601            4.584721             -9.133559
| 42>   O                    : -7.867684            4.409381             -7.887099
| 43>   H                    : -7.312609            3.624490             -7.887407
| 44>   H                    : -8.578950            5.536906             -9.423540
| 45>   H                    : -7.674801            4.326302             -9.915099
| 46>   H                    : -9.268637            4.006692             -9.423970
| 47> *
| 48>
| 49> #Run DFT-D3 single point of the particle with dimer basis set
| 50> $new_job
| 51> %base "8-186_DFT_B"
| 52> ! wB97X-D3 def2-TZVP TIGHTSCF CHELPG PMODEL
| 53>
| 54> %scf
| 55> MaxIter 1000
| 56> end
| 57>
| 58> * xyz 0 1
| 59>   C                    : -6.089729            4.718462             -4.995477
| 60>   O                    : -7.378963            5.167259             -5.188108
| 61>   H                    : -7.301230            5.778819             -5.888763
| 62>   H                    : -5.713952            4.882978             -3.965145
| 63>   H                    : -6.106463            3.570739             -5.127612
| 64>   H                    : -5.362559            5.028709             -5.773777
| 65>   C                      -8.366601            4.584721             -9.133559
| 66>   O                      -7.867684            4.409381             -7.887099
| 67>   H                      -7.312609            3.624490             -7.887407
| 68>   H                      -8.578950            5.536906             -9.423540
| 69>   H                      -7.674801            4.326302             -9.915099
| 70>   H                      -9.268637            4.006692             -9.423970
| 71> *
| 72>
| 73>                          ****END OF INPUT****
 Total Charge           Charge          ....    0
 Multiplicity           Mult            ....    1
 Number of Electrons    NEL             ....   36
Dispersion correction           -0.001756195
FINAL SINGLE POINT ENERGY      -231.455756545267
Dispersion correction           -0.000242875
FINAL SINGLE POINT ENERGY      -115.729698429452

CARTESIAN COORDINATES (ANGSTROEM)
---------------------------------
  C     -6.089729    4.718462   -4.995477
  O     -7.378963    5.167259   -5.188108
  H     -7.301230    5.778819   -5.888763
  H     -5.713952    4.882978   -3.965145
  H     -6.106463    3.570739   -5.127612
  H     -5.362559    5.028709   -5.773777
  C     -8.366601    4.584721   -9.133559
  O     -7.867684    4.409381   -7.887099
  H     -7.312609    3.624490   -7.887407
  H     -8.578950    5.536906   -9.423540
  H     -7.674801    4.326302   -9.915099
  H     -9.268637    4.006692   -9.423970

 Multiplicity           Mult            ....    1
 Number of Electrons    NEL             ....   18
 Basis Dimension        Dim             ....  172

ORBITAL ENERGIES
----------------

  NO   OCC          E(Eh)            E(eV)
   0   2.0000     -19.236334      -523.4473
   1   2.0000     -10.299135      -280.2537
   2   2.0000      -1.158126       -31.5142
   3   2.0000      -0.805992       -21.9322
   4   2.0000      -0.631104       -17.1732
   5   2.0000      -0.548053       -14.9133
   6   2.0000      -0.539822       -14.6893
   7   2.0000      -0.428402       -11.6574
   8   2.0000      -0.373835       -10.1726
   9   0.0000       0.090096         2.4516
  10   0.0000       0.127106         3.4587
  11   0.0000       0.154560         4.2058
  12   0.0000       0.182048         4.9538
  13   0.0000       0.205484         5.5915

MULLIKEN ATOMIC CHARGES
-----------------------
   0 C :   -0.003272
   1 O :    0.005562
   2 H :   -0.006914
   3 H :   -0.000324
   4 H :   -0.000282
   5 H :   -0.001628
   6 C :   -0.159821
   7 O :   -0.454871
   8 H :    0.325173
   9 H :    0.118050
  10 H :    0.094302
  11 H :    0.084025
Sum of atomic charges:    0.0000000

LOEWDIN ATOMIC CHARGES
----------------------
   0 C :   -0.005739
   1 O :   -0.008187
   2 H :   -0.011867
   3 H :   -0.000092
   4 H :   -0.000446
   5 H :   -0.001104
   6 C :   -0.431792
   7 O :   -0.002618
   8 H :    0.182191
   9 H :    0.089467
  10 H :    0.094093
  11 H :    0.096094

  Mayer bond orders larger than 0.1
B(  6-C ,  7-O ) :   1.0220 B(  6-C ,  9-H ) :   0.9770 B(  6-C , 10-H ) :   0.9854
B(  6-C , 11-H ) :   0.9738 B(  7-O ,  8-H ) :   0.8898

Dispersion correction           -0.000233606
FINAL SINGLE POINT ENERGY      -115.725414976026

DIPOLE MOMENT
-------------
                                X             Y             Z
Electronic contribution:      0.62086      -0.04934       1.94065
Nuclear contribution   :     -0.41363      -0.36494      -2.42126
                        -----------------------------------------
Total Dipole Moment    :      0.20723      -0.41428      -0.48060
                        -----------------------------------------
Magnitude (a.u.)       :      0.66750
Magnitude (Debye)      :      1.69665

Rotational constants in cm-1:     4.775309     0.870971     0.846887
Rotational constants in MHz : 143160.168354 26111.042922 25389.026406

                             ****ORCA TERMINATED NORMALLY****
TOTAL RUN TIME: 0 days 0 hours 0 minutes 46 seconds 730 msec
