                         Program Version 4.1.2  - RELEASE  -
|  1> #Run DFT-D3 single point of the dimer
|  2> ! wB97X-D3 def2-TZVP TIGHTSCF CHELPG PMODEL PAL8
|  3>
|  4> %base "17-24_DFT_AB"
|  5>
|  6> %scf
|  7> MaxIter 1000
|  8> end
|  9>
| 10> * xyz 0 1
| 11>   C                      -1.552654            -0.347999            4.263472
| 12>   O                      -0.675985            -0.786314            3.238730
| 13>   H                      -1.311521            -0.903148            2.507645
| 14>   H                      -1.893925            0.644904             3.934240
| 15>   H                      -2.420135            -0.936720            4.503697
| 16>   H                      -1.047543            -0.169033            5.200596
| 17>   C                      -2.167442            -4.172124            2.911363
| 18>   O                      -2.828377            -4.368661            1.639484
| 19>   H                      -2.790449            -3.505690            1.160088
| 20>   H                      -2.644157            -4.729153            3.725452
| 21>   H                      -1.142019            -4.560052            2.870684
| 22>   H                      -2.121195            -3.082362            3.157849
| 23> *
| 24>
| 25> #Run DFT-D3 single point of the molecule with dimer basis set
| 26> $new_job
| 27> %base "17-24_DFT_A"
| 28> ! wB97X-D3 def2-TZVP TIGHTSCF CHELPG PMODEL
| 29>
| 30> %scf
| 31> MaxIter 1000
| 32> end
| 33>
| 34> * xyz 0 1
| 35>   C                      -1.552654            -0.347999            4.263472
| 36>   O                      -0.675985            -0.786314            3.238730
| 37>   H                      -1.311521            -0.903148            2.507645
| 38>   H                      -1.893925            0.644904             3.934240
| 39>   H                      -2.420135            -0.936720            4.503697
| 40>   H                      -1.047543            -0.169033            5.200596
| 41>   C                    : -2.167442            -4.172124            2.911363
| 42>   O                    : -2.828377            -4.368661            1.639484
| 43>   H                    : -2.790449            -3.505690            1.160088
| 44>   H                    : -2.644157            -4.729153            3.725452
| 45>   H                    : -1.142019            -4.560052            2.870684
| 46>   H                    : -2.121195            -3.082362            3.157849
| 47> *
| 48>
| 49> #Run DFT-D3 single point of the particle with dimer basis set
| 50> $new_job
| 51> %base "17-24_DFT_B"
| 52> ! wB97X-D3 def2-TZVP TIGHTSCF CHELPG PMODEL
| 53>
| 54> %scf
| 55> MaxIter 1000
| 56> end
| 57>
| 58> * xyz 0 1
| 59>   C                    : -1.552654            -0.347999            4.263472
| 60>   O                    : -0.675985            -0.786314            3.238730
| 61>   H                    : -1.311521            -0.903148            2.507645
| 62>   H                    : -1.893925            0.644904             3.934240
| 63>   H                    : -2.420135            -0.936720            4.503697
| 64>   H                    : -1.047543            -0.169033            5.200596
| 65>   C                      -2.167442            -4.172124            2.911363
| 66>   O                      -2.828377            -4.368661            1.639484
| 67>   H                      -2.790449            -3.505690            1.160088
| 68>   H                      -2.644157            -4.729153            3.725452
| 69>   H                      -1.142019            -4.560052            2.870684
| 70>   H                      -2.121195            -3.082362            3.157849
| 71> *
| 72>
| 73>                          ****END OF INPUT****
 Total Charge           Charge          ....    0
 Multiplicity           Mult            ....    1
 Number of Electrons    NEL             ....   36
Dispersion correction           -0.001674350
FINAL SINGLE POINT ENERGY      -231.464692049171
Dispersion correction           -0.000224197
FINAL SINGLE POINT ENERGY      -115.731331755551

CARTESIAN COORDINATES (ANGSTROEM)
---------------------------------
  C     -1.552654   -0.347999    4.263472
  O     -0.675985   -0.786314    3.238730
  H     -1.311521   -0.903148    2.507645
  H     -1.893925    0.644904    3.934240
  H     -2.420135   -0.936720    4.503697
  H     -1.047543   -0.169033    5.200596
  C     -2.167442   -4.172124    2.911363
  O     -2.828377   -4.368661    1.639484
  H     -2.790449   -3.505690    1.160088
  H     -2.644157   -4.729153    3.725452
  H     -1.142019   -4.560052    2.870684
  H     -2.121195   -3.082362    3.157849

 Multiplicity           Mult            ....    1
 Number of Electrons    NEL             ....   18
 Basis Dimension        Dim             ....  172

ORBITAL ENERGIES
----------------

  NO   OCC          E(Eh)            E(eV)
   0   2.0000     -19.232580      -523.3451
   1   2.0000     -10.318905      -280.7917
   2   2.0000      -1.121587       -30.5199
   3   2.0000      -0.791832       -21.5468
   4   2.0000      -0.600536       -16.3414
   5   2.0000      -0.531874       -14.4730
   6   2.0000      -0.528250       -14.3744
   7   2.0000      -0.435268       -11.8442
   8   2.0000      -0.372302       -10.1309
   9   0.0000       0.075715         2.0603
  10   0.0000       0.114108         3.1050
  11   0.0000       0.153340         4.1726
  12   0.0000       0.170843         4.6489
  13   0.0000       0.190192         5.1754

MULLIKEN ATOMIC CHARGES
-----------------------
   0 C :   -0.000788
   1 O :    0.000493
   2 H :    0.000131
   3 H :   -0.000111
   4 H :   -0.000326
   5 H :    0.000023
   6 C :   -0.165020
   7 O :   -0.480852
   8 H :    0.319168
   9 H :    0.119192
  10 H :    0.109302
  11 H :    0.098789
Sum of atomic charges:    0.0000000

LOEWDIN ATOMIC CHARGES
----------------------
   0 C :   -0.005296
   1 O :   -0.002166
   2 H :   -0.002754
   3 H :   -0.000053
   4 H :   -0.002378
   5 H :   -0.000052
   6 C :   -0.365250
   7 O :   -0.114765
   8 H :    0.183701
   9 H :    0.104497
  10 H :    0.097923
  11 H :    0.106592

  Mayer bond orders larger than 0.1
B(  6-C ,  7-O ) :   1.0057 B(  6-C ,  9-H ) :   0.9733 B(  6-C , 10-H ) :   0.9737
B(  6-C , 11-H ) :   0.9884 B(  7-O ,  8-H ) :   0.8973

Dispersion correction           -0.000262254
FINAL SINGLE POINT ENERGY      -115.733406885265

DIPOLE MOMENT
-------------
                                X             Y             Z
Electronic contribution:     -0.91873      -0.41030      -1.54986
Nuclear contribution   :      1.21056       1.03175       1.77432
                        -----------------------------------------
Total Dipole Moment    :      0.29183       0.62144       0.22446
                        -----------------------------------------
Magnitude (a.u.)       :      0.72232
Magnitude (Debye)      :      1.83598

Rotational constants in cm-1:     4.188871     0.800889     0.765410
Rotational constants in MHz : 125579.193184 24010.045863 22946.403761

                             ****ORCA TERMINATED NORMALLY****
TOTAL RUN TIME: 0 days 0 hours 1 minutes 5 seconds 869 msec
