                         Program Version 4.1.2  - RELEASE  -
|  1> #Run DFT-D3 single point of the dimer
|  2> ! wB97X-D3 def2-TZVP TIGHTSCF CHELPG PMODEL PAL8
|  3>
|  4> %base "3-87_DFT_AB"
|  5>
|  6> %scf
|  7> MaxIter 1000
|  8> end
|  9>
| 10> * xyz 0 1
| 11>   C                      -1.179622            -0.680025            6.462159
| 12>   O                      -1.994517            0.038928             7.405688
| 13>   H                      -2.109912            0.907878             7.079844
| 14>   H                      -0.109920            -0.503745            6.727623
| 15>   H                      -1.354234            -1.756892            6.522703
| 16>   H                      -1.366128            -0.313220            5.402350
| 17>   C                      0.950948             -3.319941            8.340230
| 18>   O                      1.689084             -4.526680            8.530754
| 19>   H                      1.756726             -4.672052            9.437307
| 20>   H                      0.546774             -3.197701            7.363918
| 21>   H                      0.064719             -3.277361            8.944016
| 22>   H                      1.442575             -2.422004            8.557518
| 23> *
| 24>
| 25> #Run DFT-D3 single point of the molecule with dimer basis set
| 26> $new_job
| 27> %base "3-87_DFT_A"
| 28> ! wB97X-D3 def2-TZVP TIGHTSCF CHELPG PMODEL
| 29>
| 30> %scf
| 31> MaxIter 1000
| 32> end
| 33>
| 34> * xyz 0 1
| 35>   C                      -1.179622            -0.680025            6.462159
| 36>   O                      -1.994517            0.038928             7.405688
| 37>   H                      -2.109912            0.907878             7.079844
| 38>   H                      -0.109920            -0.503745            6.727623
| 39>   H                      -1.354234            -1.756892            6.522703
| 40>   H                      -1.366128            -0.313220            5.402350
| 41>   C                    : 0.950948             -3.319941            8.340230
| 42>   O                    : 1.689084             -4.526680            8.530754
| 43>   H                    : 1.756726             -4.672052            9.437307
| 44>   H                    : 0.546774             -3.197701            7.363918
| 45>   H                    : 0.064719             -3.277361            8.944016
| 46>   H                    : 1.442575             -2.422004            8.557518
| 47> *
| 48>
| 49> #Run DFT-D3 single point of the particle with dimer basis set
| 50> $new_job
| 51> %base "3-87_DFT_B"
| 52> ! wB97X-D3 def2-TZVP TIGHTSCF CHELPG PMODEL
| 53>
| 54> %scf
| 55> MaxIter 1000
| 56> end
| 57>
| 58> * xyz 0 1
| 59>   C                    : -1.179622            -0.680025            6.462159
| 60>   O                    : -1.994517            0.038928             7.405688
| 61>   H                    : -2.109912            0.907878             7.079844
| 62>   H                    : -0.109920            -0.503745            6.727623
| 63>   H                    : -1.354234            -1.756892            6.522703
| 64>   H                    : -1.366128            -0.313220            5.402350
| 65>   C                      0.950948             -3.319941            8.340230
| 66>   O                      1.689084             -4.526680            8.530754
| 67>   H                      1.756726             -4.672052            9.437307
| 68>   H                      0.546774             -3.197701            7.363918
| 69>   H                      0.064719             -3.277361            8.944016
| 70>   H                      1.442575             -2.422004            8.557518
| 71> *
| 72>
| 73>                          ****END OF INPUT****
 Total Charge           Charge          ....    0
 Multiplicity           Mult            ....    1
 Number of Electrons    NEL             ....   36
Dispersion correction           -0.001501406
FINAL SINGLE POINT ENERGY      -231.464262207343
Dispersion correction           -0.000253585
FINAL SINGLE POINT ENERGY      -115.733863630514

CARTESIAN COORDINATES (ANGSTROEM)
---------------------------------
  C     -1.179622   -0.680025    6.462159
  O     -1.994517    0.038928    7.405688
  H     -2.109912    0.907878    7.079844
  H     -0.109920   -0.503745    6.727623
  H     -1.354234   -1.756892    6.522703
  H     -1.366128   -0.313220    5.402350
  C      0.950948   -3.319941    8.340230
  O      1.689084   -4.526680    8.530754
  H      1.756726   -4.672052    9.437307
  H      0.546774   -3.197701    7.363918
  H      0.064719   -3.277361    8.944016
  H      1.442575   -2.422004    8.557518

 Multiplicity           Mult            ....    1
 Number of Electrons    NEL             ....   18
 Basis Dimension        Dim             ....  172

ORBITAL ENERGIES
----------------

  NO   OCC          E(Eh)            E(eV)
   0   2.0000     -19.229603      -523.2641
   1   2.0000     -10.303907      -280.3836
   2   2.0000      -1.141191       -31.0534
   3   2.0000      -0.811035       -22.0694
   4   2.0000      -0.618851       -16.8398
   5   2.0000      -0.542069       -14.7504
   6   2.0000      -0.530401       -14.4329
   7   2.0000      -0.437220       -11.8974
   8   2.0000      -0.378856       -10.3092
   9   0.0000       0.082450         2.2436
  10   0.0000       0.121802         3.3144
  11   0.0000       0.146170         3.9775
  12   0.0000       0.170730         4.6458
  13   0.0000       0.187862         5.1120

MULLIKEN ATOMIC CHARGES
-----------------------
   0 C :    0.001611
   1 O :   -0.000017
   2 H :   -0.000001
   3 H :   -0.000716
   4 H :   -0.002122
   5 H :    0.000022
   6 C :   -0.170038
   7 O :   -0.467290
   8 H :    0.307884
   9 H :    0.123176
  10 H :    0.101105
  11 H :    0.106386
Sum of atomic charges:   -0.0000000

LOEWDIN ATOMIC CHARGES
----------------------
   0 C :   -0.002890
   1 O :   -0.000017
   2 H :   -0.000002
   3 H :   -0.000963
   4 H :   -0.002388
   5 H :   -0.000010
   6 C :   -0.365339
   7 O :   -0.059571
   8 H :    0.143393
   9 H :    0.106044
  10 H :    0.094841
  11 H :    0.086903

  Mayer bond orders larger than 0.1
B(  6-C ,  7-O ) :   1.0072 B(  6-C ,  9-H ) :   0.9763 B(  6-C , 10-H ) :   0.9835
B(  6-C , 11-H ) :   0.9708 B(  7-O ,  8-H ) :   0.9095

Dispersion correction           -0.000246817
FINAL SINGLE POINT ENERGY      -115.729416073284

DIPOLE MOMENT
-------------
                                X             Y             Z
Electronic contribution:      1.09237      -1.60552       0.09619
Nuclear contribution   :     -1.37190       2.01505       0.41640
                        -----------------------------------------
Total Dipole Moment    :     -0.27953       0.40953       0.51258
                        -----------------------------------------
Magnitude (a.u.)       :      0.71316
Magnitude (Debye)      :      1.81270

Rotational constants in cm-1:     4.796923     0.811627     0.785836
Rotational constants in MHz : 143808.135773 24331.952481 23558.774740

                             ****ORCA TERMINATED NORMALLY****
TOTAL RUN TIME: 0 days 0 hours 6 minutes 15 seconds 820 msec
