                         Program Version 4.1.2  - RELEASE  -
|  1> #Run DFT-D3 single point of the dimer
|  2> ! wB97X-D3 def2-TZVP TIGHTSCF CHELPG PMODEL PAL8
|  3>
|  4> %base "10-162_DFT_AB"
|  5>
|  6> %scf
|  7> MaxIter 1000
|  8> end
|  9>
| 10> * xyz 0 1
| 11>   C                      6.188934             -4.857423            -4.247510
| 12>   O                      7.074866             -5.615235            -5.057782
| 13>   H                      7.897927             -5.141377            -5.178186
| 14>   H                      6.510234             -4.836641            -3.244249
| 15>   H                      6.135170             -3.765486            -4.495306
| 16>   H                      5.240519             -5.352060            -4.303331
| 17>   C                      10.931514            -5.409510            -4.610699
| 18>   O                      9.654416             -4.865354            -4.751905
| 19>   H                      9.467168             -4.607327            -3.840395
| 20>   H                      11.768323            -4.800732            -4.959978
| 21>   H                      11.167124            -5.797031            -3.580499
| 22>   H                      11.008256            -6.256578            -5.380066
| 23> *
| 24>
| 25> #Run DFT-D3 single point of the molecule with dimer basis set
| 26> $new_job
| 27> %base "10-162_DFT_A"
| 28> ! wB97X-D3 def2-TZVP TIGHTSCF CHELPG PMODEL
| 29>
| 30> %scf
| 31> MaxIter 1000
| 32> end
| 33>
| 34> * xyz 0 1
| 35>   C                      6.188934             -4.857423            -4.247510
| 36>   O                      7.074866             -5.615235            -5.057782
| 37>   H                      7.897927             -5.141377            -5.178186
| 38>   H                      6.510234             -4.836641            -3.244249
| 39>   H                      6.135170             -3.765486            -4.495306
| 40>   H                      5.240519             -5.352060            -4.303331
| 41>   C                    : 10.931514            -5.409510            -4.610699
| 42>   O                    : 9.654416             -4.865354            -4.751905
| 43>   H                    : 9.467168             -4.607327            -3.840395
| 44>   H                    : 11.768323            -4.800732            -4.959978
| 45>   H                    : 11.167124            -5.797031            -3.580499
| 46>   H                    : 11.008256            -6.256578            -5.380066
| 47> *
| 48>
| 49> #Run DFT-D3 single point of the particle with dimer basis set
| 50> $new_job
| 51> %base "10-162_DFT_B"
| 52> ! wB97X-D3 def2-TZVP TIGHTSCF CHELPG PMODEL
| 53>
| 54> %scf
| 55> MaxIter 1000
| 56> end
| 57>
| 58> * xyz 0 1
| 59>   C                    : 6.188934             -4.857423            -4.247510
| 60>   O                    : 7.074866             -5.615235            -5.057782
| 61>   H                    : 7.897927             -5.141377            -5.178186
| 62>   H                    : 6.510234             -4.836641            -3.244249
| 63>   H                    : 6.135170             -3.765486            -4.495306
| 64>   H                    : 5.240519             -5.352060            -4.303331
| 65>   C                      10.931514            -5.409510            -4.610699
| 66>   O                      9.654416             -4.865354            -4.751905
| 67>   H                      9.467168             -4.607327            -3.840395
| 68>   H                      11.768323            -4.800732            -4.959978
| 69>   H                      11.167124            -5.797031            -3.580499
| 70>   H                      11.008256            -6.256578            -5.380066
| 71> *
| 72>
| 73>                          ****END OF INPUT****
 Total Charge           Charge          ....    0
 Multiplicity           Mult            ....    1
 Number of Electrons    NEL             ....   36
Dispersion correction           -0.001667193
FINAL SINGLE POINT ENERGY      -231.466386544797
Dispersion correction           -0.000244457
FINAL SINGLE POINT ENERGY      -115.734401856236

CARTESIAN COORDINATES (ANGSTROEM)
---------------------------------
  C      6.188934   -4.857423   -4.247510
  O      7.074866   -5.615235   -5.057782
  H      7.897927   -5.141377   -5.178186
  H      6.510234   -4.836641   -3.244249
  H      6.135170   -3.765486   -4.495306
  H      5.240519   -5.352060   -4.303331
  C     10.931514   -5.409510   -4.610699
  O      9.654416   -4.865354   -4.751905
  H      9.467168   -4.607327   -3.840395
  H     11.768323   -4.800732   -4.959978
  H     11.167124   -5.797031   -3.580499
  H     11.008256   -6.256578   -5.380066

 Multiplicity           Mult            ....    1
 Number of Electrons    NEL             ....   18
 Basis Dimension        Dim             ....  172

ORBITAL ENERGIES
----------------

  NO   OCC          E(Eh)            E(eV)
   0   2.0000     -19.238862      -523.5160
   1   2.0000     -10.320802      -280.8433
   2   2.0000      -1.149881       -31.2898
   3   2.0000      -0.787378       -21.4256
   4   2.0000      -0.616685       -16.7808
   5   2.0000      -0.542250       -14.7554
   6   2.0000      -0.522027       -14.2051
   7   2.0000      -0.442849       -12.0505
   8   2.0000      -0.371328       -10.1044
   9   0.0000       0.088491         2.4079
  10   0.0000       0.123502         3.3607
  11   0.0000       0.154776         4.2117
  12   0.0000       0.178030         4.8445
  13   0.0000       0.201374         5.4797

MULLIKEN ATOMIC CHARGES
-----------------------
   0 C :   -0.001377
   1 O :   -0.000842
   2 H :   -0.008062
   3 H :   -0.000551
   4 H :   -0.000052
   5 H :   -0.000052
   6 C :   -0.180427
   7 O :   -0.439983
   8 H :    0.318799
   9 H :    0.104164
  10 H :    0.101020
  11 H :    0.107362
Sum of atomic charges:   -0.0000000

LOEWDIN ATOMIC CHARGES
----------------------
   0 C :   -0.003133
   1 O :   -0.010677
   2 H :   -0.050040
   3 H :   -0.000567
   4 H :   -0.000100
   5 H :   -0.000042
   6 C :   -0.419057
   7 O :   -0.008193
   8 H :    0.183706
   9 H :    0.094154
  10 H :    0.101041
  11 H :    0.112909

  Mayer bond orders larger than 0.1
B(  6-C ,  7-O ) :   1.0124 B(  6-C ,  9-H ) :   0.9658 B(  6-C , 10-H ) :   0.9774
B(  6-C , 11-H ) :   0.9850 B(  7-O ,  8-H ) :   0.8963

Dispersion correction           -0.000249943
FINAL SINGLE POINT ENERGY      -115.728914398598

DIPOLE MOMENT
-------------
                                X             Y             Z
Electronic contribution:     -1.77405       0.84133      -0.20352
Nuclear contribution   :      2.12520      -0.87103       0.82243
                        -----------------------------------------
Total Dipole Moment    :      0.35115      -0.02971       0.61891
                        -----------------------------------------
Magnitude (a.u.)       :      0.71221
Magnitude (Debye)      :      1.81028

Rotational constants in cm-1:     4.150849     0.852811     0.804870
Rotational constants in MHz : 124439.328941 25566.639193 24129.408926

                             ****ORCA TERMINATED NORMALLY****
TOTAL RUN TIME: 0 days 0 hours 1 minutes 6 seconds 876 msec
