                         Program Version 4.1.2  - RELEASE  -
|  1> #Run DFT-D3 single point of the dimer
|  2> ! wB97X-D3 def2-TZVP TIGHTSCF CHELPG PMODEL PAL8
|  3>
|  4> %base "8-101_DFT_AB"
|  5>
|  6> %scf
|  7> MaxIter 1000
|  8> end
|  9>
| 10> * xyz 0 1
| 11>   C                      -5.195719            -0.427144            9.365506
| 12>   O                      -6.124433            -1.080566            10.163934
| 13>   H                      -6.539004            -1.747450            9.631112
| 14>   H                      -5.596017            -0.049719            8.423426
| 15>   H                      -4.831508            0.366167             9.977338
| 16>   H                      -4.342301            -1.112926            9.156067
| 17>   C                      -11.363998           -3.873958            9.621631
| 18>   O                      -10.723983           -2.588427            9.547147
| 19>   H                      -9.984691            -2.669052            10.130826
| 20>   H                      -12.338268           -3.825835            9.103518
| 21>   H                      -10.840200           -4.669868            9.103864
| 22>   H                      -11.617321           -4.148152            10.621722
| 23> *
| 24>
| 25> #Run DFT-D3 single point of the molecule with dimer basis set
| 26> $new_job
| 27> %base "8-101_DFT_A"
| 28> ! wB97X-D3 def2-TZVP TIGHTSCF CHELPG PMODEL
| 29>
| 30> %scf
| 31> MaxIter 1000
| 32> end
| 33>
| 34> * xyz 0 1
| 35>   C                      -5.195719            -0.427144            9.365506
| 36>   O                      -6.124433            -1.080566            10.163934
| 37>   H                      -6.539004            -1.747450            9.631112
| 38>   H                      -5.596017            -0.049719            8.423426
| 39>   H                      -4.831508            0.366167             9.977338
| 40>   H                      -4.342301            -1.112926            9.156067
| 41>   C                    : -11.363998           -3.873958            9.621631
| 42>   O                    : -10.723983           -2.588427            9.547147
| 43>   H                    : -9.984691            -2.669052            10.130826
| 44>   H                    : -12.338268           -3.825835            9.103518
| 45>   H                    : -10.840200           -4.669868            9.103864
| 46>   H                    : -11.617321           -4.148152            10.621722
| 47> *
| 48>
| 49> #Run DFT-D3 single point of the particle with dimer basis set
| 50> $new_job
| 51> %base "8-101_DFT_B"
| 52> ! wB97X-D3 def2-TZVP TIGHTSCF CHELPG PMODEL
| 53>
| 54> %scf
| 55> MaxIter 1000
| 56> end
| 57>
| 58> * xyz 0 1
| 59>   C                    : -5.195719            -0.427144            9.365506
| 60>   O                    : -6.124433            -1.080566            10.163934
| 61>   H                    : -6.539004            -1.747450            9.631112
| 62>   H                    : -5.596017            -0.049719            8.423426
| 63>   H                    : -4.831508            0.366167             9.977338
| 64>   H                    : -4.342301            -1.112926            9.156067
| 65>   C                      -11.363998           -3.873958            9.621631
| 66>   O                      -10.723983           -2.588427            9.547147
| 67>   H                      -9.984691            -2.669052            10.130826
| 68>   H                      -12.338268           -3.825835            9.103518
| 69>   H                      -10.840200           -4.669868            9.103864
| 70>   H                      -11.617321           -4.148152            10.621722
| 71> *
| 72>
| 73>                          ****END OF INPUT****
 Total Charge           Charge          ....    0
 Multiplicity           Mult            ....    1
 Number of Electrons    NEL             ....   36
Dispersion correction           -0.000646878
FINAL SINGLE POINT ENERGY      -231.470404635234
Dispersion correction           -0.000220311
FINAL SINGLE POINT ENERGY      -115.735560554539

CARTESIAN COORDINATES (ANGSTROEM)
---------------------------------
  C     -5.195719   -0.427144    9.365506
  O     -6.124433   -1.080566   10.163934
  H     -6.539004   -1.747450    9.631112
  H     -5.596017   -0.049719    8.423426
  H     -4.831508    0.366167    9.977338
  H     -4.342301   -1.112926    9.156067
  C    -11.363998   -3.873958    9.621631
  O    -10.723983   -2.588427    9.547147
  H     -9.984691   -2.669052   10.130826
  H    -12.338268   -3.825835    9.103518
  H    -10.840200   -4.669868    9.103864
  H    -11.617321   -4.148152   10.621722

 Multiplicity           Mult            ....    1
 Number of Electrons    NEL             ....   18
 Basis Dimension        Dim             ....  172

ORBITAL ENERGIES
----------------

  NO   OCC          E(Eh)            E(eV)
   0   2.0000     -19.231734      -523.3221
   1   2.0000     -10.311781      -280.5978
   2   2.0000      -1.135014       -30.8853
   3   2.0000      -0.799419       -21.7533
   4   2.0000      -0.607077       -16.5194
   5   2.0000      -0.547076       -14.8867
   6   2.0000      -0.520843       -14.1729
   7   2.0000      -0.436893       -11.8885
   8   2.0000      -0.379502       -10.3268
   9   0.0000       0.084270         2.2931
  10   0.0000       0.115479         3.1423
  11   0.0000       0.148392         4.0380
  12   0.0000       0.176588         4.8052
  13   0.0000       0.196678         5.3519

MULLIKEN ATOMIC CHARGES
-----------------------
   0 C :    0.000075
   1 O :    0.000031
   2 H :   -0.000447
   3 H :   -0.000011
   4 H :    0.000000
   5 H :   -0.000005
   6 C :   -0.171494
   7 O :   -0.467285
   8 H :    0.310907
   9 H :    0.115837
  10 H :    0.106029
  11 H :    0.106362
Sum of atomic charges:   -0.0000000

LOEWDIN ATOMIC CHARGES
----------------------
   0 C :   -0.000005
   1 O :   -0.000012
   2 H :   -0.000275
   3 H :   -0.000001
   4 H :   -0.000000
   5 H :   -0.000000
   6 C :   -0.370895
   7 O :   -0.083476
   8 H :    0.158659
   9 H :    0.112083
  10 H :    0.093778
  11 H :    0.090144

  Mayer bond orders larger than 0.1
B(  6-C ,  7-O ) :   1.0048 B(  6-C ,  9-H ) :   0.9763 B(  6-C , 10-H ) :   0.9712
B(  6-C , 11-H ) :   0.9783 B(  7-O ,  8-H ) :   0.9061

Dispersion correction           -0.000246646
FINAL SINGLE POINT ENERGY      -115.734513114292

DIPOLE MOMENT
-------------
                                X             Y             Z
Electronic contribution:      0.82399       1.67802      -0.12816
Nuclear contribution   :     -0.64082      -2.24934       0.52704
                        -----------------------------------------
Total Dipole Moment    :      0.18317      -0.57133       0.39889
                        -----------------------------------------
Magnitude (a.u.)       :      0.72047
Magnitude (Debye)      :      1.83129

Rotational constants in cm-1:     4.406524     0.807165     0.783672
Rotational constants in MHz : 132104.260052 24198.203494 23493.889993

                             ****ORCA TERMINATED NORMALLY****
TOTAL RUN TIME: 0 days 0 hours 0 minutes 39 seconds 896 msec
