                         Program Version 4.1.2  - RELEASE  -
|  1> #Run DFT-D3 single point of the dimer
|  2> ! wB97X-D3 def2-TZVP TIGHTSCF CHELPG PMODEL PAL8
|  3>
|  4> %base "19-75_DFT_AB"
|  5>
|  6> %scf
|  7> MaxIter 1000
|  8> end
|  9>
| 10> * xyz 0 1
| 11>   C                      -4.824653            -10.147423           5.995258
| 12>   O                      -3.540694            -9.794573            6.520729
| 13>   H                      -3.402781            -8.849417            6.277806
| 14>   H                      -5.412021            -9.291457            5.854448
| 15>   H                      -4.591156            -10.588656           5.073679
| 16>   H                      -5.447185            -10.807198           6.600243
| 17>   C                      0.463578             -8.435352            4.585591
| 18>   O                      -0.166651            -7.334462            5.118559
| 19>   H                      -1.046295            -7.331275            4.800293
| 20>   H                      1.138323             -8.842697            5.377777
| 21>   H                      -0.148511            -9.206932            4.271902
| 22>   H                      1.138313             -8.130747            3.739208
| 23> *
| 24>
| 25> #Run DFT-D3 single point of the molecule with dimer basis set
| 26> $new_job
| 27> %base "19-75_DFT_A"
| 28> ! wB97X-D3 def2-TZVP TIGHTSCF CHELPG PMODEL
| 29>
| 30> %scf
| 31> MaxIter 1000
| 32> end
| 33>
| 34> * xyz 0 1
| 35>   C                      -4.824653            -10.147423           5.995258
| 36>   O                      -3.540694            -9.794573            6.520729
| 37>   H                      -3.402781            -8.849417            6.277806
| 38>   H                      -5.412021            -9.291457            5.854448
| 39>   H                      -4.591156            -10.588656           5.073679
| 40>   H                      -5.447185            -10.807198           6.600243
| 41>   C                    : 0.463578             -8.435352            4.585591
| 42>   O                    : -0.166651            -7.334462            5.118559
| 43>   H                    : -1.046295            -7.331275            4.800293
| 44>   H                    : 1.138323             -8.842697            5.377777
| 45>   H                    : -0.148511            -9.206932            4.271902
| 46>   H                    : 1.138313             -8.130747            3.739208
| 47> *
| 48>
| 49> #Run DFT-D3 single point of the particle with dimer basis set
| 50> $new_job
| 51> %base "19-75_DFT_B"
| 52> ! wB97X-D3 def2-TZVP TIGHTSCF CHELPG PMODEL
| 53>
| 54> %scf
| 55> MaxIter 1000
| 56> end
| 57>
| 58> * xyz 0 1
| 59>   C                    : -4.824653            -10.147423           5.995258
| 60>   O                    : -3.540694            -9.794573            6.520729
| 61>   H                    : -3.402781            -8.849417            6.277806
| 62>   H                    : -5.412021            -9.291457            5.854448
| 63>   H                    : -4.591156            -10.588656           5.073679
| 64>   H                    : -5.447185            -10.807198           6.600243
| 65>   C                      0.463578             -8.435352            4.585591
| 66>   O                      -0.166651            -7.334462            5.118559
| 67>   H                      -1.046295            -7.331275            4.800293
| 68>   H                      1.138323             -8.842697            5.377777
| 69>   H                      -0.148511            -9.206932            4.271902
| 70>   H                      1.138313             -8.130747            3.739208
| 71> *
| 72>
| 73>                          ****END OF INPUT****
 Total Charge           Charge          ....    0
 Multiplicity           Mult            ....    1
 Number of Electrons    NEL             ....   36
Dispersion correction           -0.000905929
FINAL SINGLE POINT ENERGY      -231.459135389903
Dispersion correction           -0.000224396
FINAL SINGLE POINT ENERGY      -115.728073784303

CARTESIAN COORDINATES (ANGSTROEM)
---------------------------------
  C     -4.824653  -10.147423    5.995258
  O     -3.540694   -9.794573    6.520729
  H     -3.402781   -8.849417    6.277806
  H     -5.412021   -9.291457    5.854448
  H     -4.591156  -10.588656    5.073679
  H     -5.447185  -10.807198    6.600243
  C      0.463578   -8.435352    4.585591
  O     -0.166651   -7.334462    5.118559
  H     -1.046295   -7.331275    4.800293
  H      1.138323   -8.842697    5.377777
  H     -0.148511   -9.206932    4.271902
  H      1.138313   -8.130747    3.739208

 Multiplicity           Mult            ....    1
 Number of Electrons    NEL             ....   18
 Basis Dimension        Dim             ....  172

ORBITAL ENERGIES
----------------

  NO   OCC          E(Eh)            E(eV)
   0   2.0000     -19.228658      -523.2384
   1   2.0000     -10.307807      -280.4897
   2   2.0000      -1.154382       -31.4123
   3   2.0000      -0.797126       -21.6909
   4   2.0000      -0.628598       -17.1050
   5   2.0000      -0.540797       -14.7158
   6   2.0000      -0.529299       -14.4030
   7   2.0000      -0.439026       -11.9465
   8   2.0000      -0.369485       -10.0542
   9   0.0000       0.078568         2.1379
  10   0.0000       0.117850         3.2069
  11   0.0000       0.154820         4.2129
  12   0.0000       0.180393         4.9087
  13   0.0000       0.190834         5.1929

MULLIKEN ATOMIC CHARGES
-----------------------
   0 C :    0.000207
   1 O :    0.000175
   2 H :   -0.002028
   3 H :   -0.000001
   4 H :   -0.000020
   5 H :    0.000003
   6 C :   -0.169026
   7 O :   -0.456669
   8 H :    0.310969
   9 H :    0.108622
  10 H :    0.112682
  11 H :    0.095088
Sum of atomic charges:   -0.0000000

LOEWDIN ATOMIC CHARGES
----------------------
   0 C :   -0.000021
   1 O :   -0.000072
   2 H :   -0.001203
   3 H :   -0.000001
   4 H :   -0.000004
   5 H :   -0.000001
   6 C :   -0.412223
   7 O :   -0.034659
   8 H :    0.156224
   9 H :    0.110169
  10 H :    0.081127
  11 H :    0.100664

  Mayer bond orders larger than 0.1
B(  6-C ,  7-O ) :   1.0101 B(  6-C ,  9-H ) :   0.9778 B(  6-C , 10-H ) :   0.9774
B(  6-C , 11-H ) :   0.9784 B(  7-O ,  8-H ) :   0.9057

Dispersion correction           -0.000230589
FINAL SINGLE POINT ENERGY      -115.731216568921

DIPOLE MOMENT
-------------
                                X             Y             Z
Electronic contribution:     -0.91644       1.43720       0.72120
Nuclear contribution   :      0.54307      -1.86635      -1.12027
                        -----------------------------------------
Total Dipole Moment    :     -0.37337      -0.42915      -0.39908
                        -----------------------------------------
Magnitude (a.u.)       :      0.69487
Magnitude (Debye)      :      1.76621

Rotational constants in cm-1:     4.370145     0.868008     0.840717
Rotational constants in MHz : 131013.639020 26022.223373 25204.052367

                             ****ORCA TERMINATED NORMALLY****
TOTAL RUN TIME: 0 days 0 hours 2 minutes 22 seconds 172 msec
