                         Program Version 4.1.2  - RELEASE  -
|  1> #Run DFT-D3 single point of the dimer
|  2> ! wB97X-D3 def2-TZVP TIGHTSCF CHELPG PMODEL PAL8
|  3>
|  4> %base "20-56_DFT_AB"
|  5>
|  6> %scf
|  7> MaxIter 1000
|  8> end
|  9>
| 10> * xyz 0 1
| 11>   C                      6.774995             -8.324252            -6.953877
| 12>   O                      7.881105             -8.521997            -6.079112
| 13>   H                      7.517149             -8.829247            -5.213137
| 14>   H                      6.347906             -9.271718            -7.258913
| 15>   H                      6.000089             -7.780573            -6.407686
| 16>   H                      7.153695             -7.866640            -7.863631
| 17>   C                      3.723239             -6.692821            -8.760477
| 18>   O                      3.185939             -5.527655            -9.330181
| 19>   H                      3.744187             -4.915721            -8.978648
| 20>   H                      3.260517             -7.605005            -9.008750
| 21>   H                      4.674823             -6.827684            -9.229260
| 22>   H                      3.823359             -6.584099            -7.650644
| 23> *
| 24>
| 25> #Run DFT-D3 single point of the molecule with dimer basis set
| 26> $new_job
| 27> %base "20-56_DFT_A"
| 28> ! wB97X-D3 def2-TZVP TIGHTSCF CHELPG PMODEL
| 29>
| 30> %scf
| 31> MaxIter 1000
| 32> end
| 33>
| 34> * xyz 0 1
| 35>   C                      6.774995             -8.324252            -6.953877
| 36>   O                      7.881105             -8.521997            -6.079112
| 37>   H                      7.517149             -8.829247            -5.213137
| 38>   H                      6.347906             -9.271718            -7.258913
| 39>   H                      6.000089             -7.780573            -6.407686
| 40>   H                      7.153695             -7.866640            -7.863631
| 41>   C                    : 3.723239             -6.692821            -8.760477
| 42>   O                    : 3.185939             -5.527655            -9.330181
| 43>   H                    : 3.744187             -4.915721            -8.978648
| 44>   H                    : 3.260517             -7.605005            -9.008750
| 45>   H                    : 4.674823             -6.827684            -9.229260
| 46>   H                    : 3.823359             -6.584099            -7.650644
| 47> *
| 48>
| 49> #Run DFT-D3 single point of the particle with dimer basis set
| 50> $new_job
| 51> %base "20-56_DFT_B"
| 52> ! wB97X-D3 def2-TZVP TIGHTSCF CHELPG PMODEL
| 53>
| 54> %scf
| 55> MaxIter 1000
| 56> end
| 57>
| 58> * xyz 0 1
| 59>   C                    : 6.774995             -8.324252            -6.953877
| 60>   O                    : 7.881105             -8.521997            -6.079112
| 61>   H                    : 7.517149             -8.829247            -5.213137
| 62>   H                    : 6.347906             -9.271718            -7.258913
| 63>   H                    : 6.000089             -7.780573            -6.407686
| 64>   H                    : 7.153695             -7.866640            -7.863631
| 65>   C                      3.723239             -6.692821            -8.760477
| 66>   O                      3.185939             -5.527655            -9.330181
| 67>   H                      3.744187             -4.915721            -8.978648
| 68>   H                      3.260517             -7.605005            -9.008750
| 69>   H                      4.674823             -6.827684            -9.229260
| 70>   H                      3.823359             -6.584099            -7.650644
| 71> *
| 72>
| 73>                          ****END OF INPUT****
 Total Charge           Charge          ....    0
 Multiplicity           Mult            ....    1
 Number of Electrons    NEL             ....   36
Dispersion correction           -0.001373825
FINAL SINGLE POINT ENERGY      -231.458868787235
Dispersion correction           -0.000226969
FINAL SINGLE POINT ENERGY      -115.734254843723

CARTESIAN COORDINATES (ANGSTROEM)
---------------------------------
  C      6.774995   -8.324252   -6.953877
  O      7.881105   -8.521997   -6.079112
  H      7.517149   -8.829247   -5.213137
  H      6.347906   -9.271718   -7.258913
  H      6.000089   -7.780573   -6.407686
  H      7.153695   -7.866640   -7.863631
  C      3.723239   -6.692821   -8.760477
  O      3.185939   -5.527655   -9.330181
  H      3.744187   -4.915721   -8.978648
  H      3.260517   -7.605005   -9.008750
  H      4.674823   -6.827684   -9.229260
  H      3.823359   -6.584099   -7.650644

 Multiplicity           Mult            ....    1
 Number of Electrons    NEL             ....   18
 Basis Dimension        Dim             ....  172

ORBITAL ENERGIES
----------------

  NO   OCC          E(Eh)            E(eV)
   0   2.0000     -19.225025      -523.1395
   1   2.0000     -10.308562      -280.5102
   2   2.0000      -1.158393       -31.5215
   3   2.0000      -0.801285       -21.8041
   4   2.0000      -0.614171       -16.7124
   5   2.0000      -0.552315       -15.0293
   6   2.0000      -0.538058       -14.6413
   7   2.0000      -0.439744       -11.9660
   8   2.0000      -0.373479       -10.1629
   9   0.0000       0.080085         2.1792
  10   0.0000       0.121173         3.2973
  11   0.0000       0.147292         4.0080
  12   0.0000       0.169100         4.6015
  13   0.0000       0.192104         5.2274

MULLIKEN ATOMIC CHARGES
-----------------------
   0 C :    0.000101
   1 O :   -0.000046
   2 H :   -0.000008
   3 H :   -0.000030
   4 H :   -0.001586
   5 H :   -0.000581
   6 C :   -0.177137
   7 O :   -0.446636
   8 H :    0.300777
   9 H :    0.121605
  10 H :    0.102201
  11 H :    0.101341
Sum of atomic charges:    0.0000000

LOEWDIN ATOMIC CHARGES
----------------------
   0 C :   -0.003383
   1 O :   -0.000016
   2 H :   -0.000007
   3 H :   -0.000095
   4 H :   -0.001979
   5 H :   -0.001035
   6 C :   -0.386047
   7 O :   -0.037537
   8 H :    0.133299
   9 H :    0.099339
  10 H :    0.094450
  11 H :    0.103010

  Mayer bond orders larger than 0.1
B(  6-C ,  7-O ) :   0.9906 B(  6-C ,  9-H ) :   0.9701 B(  6-C , 10-H ) :   0.9877
B(  6-C , 11-H ) :   0.9805 B(  7-O ,  8-H ) :   0.9196

Dispersion correction           -0.000198796
FINAL SINGLE POINT ENERGY      -115.723956702166

DIPOLE MOMENT
-------------
                                X             Y             Z
Electronic contribution:     -0.94047       1.40145      -0.79484
Nuclear contribution   :      1.50273      -1.48713       1.20640
                        -----------------------------------------
Total Dipole Moment    :      0.56227      -0.08567       0.41156
                        -----------------------------------------
Magnitude (a.u.)       :      0.70204
Magnitude (Debye)      :      1.78446

Rotational constants in cm-1:     4.456110     0.854073     0.826118
Rotational constants in MHz : 133590.820648 25604.451737 24766.390784

                             ****ORCA TERMINATED NORMALLY****
TOTAL RUN TIME: 0 days 0 hours 1 minutes 8 seconds 128 msec
