                         Program Version 4.1.2  - RELEASE  -
|  1> #Run DFT-D3 single point of the dimer
|  2> ! wB97X-D3 def2-TZVP TIGHTSCF CHELPG PMODEL PAL8
|  3>
|  4> %base "11-20_DFT_AB"
|  5>
|  6> %scf
|  7> MaxIter 1000
|  8> end
|  9>
| 10> * xyz 0 1
| 11>   C                      -8.448119            2.442185             -5.118233
| 12>   O                      -7.831945            1.753476             -4.059607
| 13>   H                      -8.251878            0.862124             -3.916511
| 14>   H                      -9.518605            2.289483             -5.032777
| 15>   H                      -8.197066            3.464053             -5.152794
| 16>   H                      -8.176135            2.038059             -6.035437
| 17>   C                      -4.783363            4.112619             -2.570429
| 18>   O                      -6.170966            4.051347             -2.271669
| 19>   H                      -6.396381            3.112215             -2.297182
| 20>   H                      -4.677063            4.150604             -3.633048
| 21>   H                      -4.392991            5.100541             -2.206898
| 22>   H                      -4.210136            3.298748             -2.150329
| 23> *
| 24>
| 25> #Run DFT-D3 single point of the molecule with dimer basis set
| 26> $new_job
| 27> %base "11-20_DFT_A"
| 28> ! wB97X-D3 def2-TZVP TIGHTSCF CHELPG PMODEL
| 29>
| 30> %scf
| 31> MaxIter 1000
| 32> end
| 33>
| 34> * xyz 0 1
| 35>   C                      -8.448119            2.442185             -5.118233
| 36>   O                      -7.831945            1.753476             -4.059607
| 37>   H                      -8.251878            0.862124             -3.916511
| 38>   H                      -9.518605            2.289483             -5.032777
| 39>   H                      -8.197066            3.464053             -5.152794
| 40>   H                      -8.176135            2.038059             -6.035437
| 41>   C                    : -4.783363            4.112619             -2.570429
| 42>   O                    : -6.170966            4.051347             -2.271669
| 43>   H                    : -6.396381            3.112215             -2.297182
| 44>   H                    : -4.677063            4.150604             -3.633048
| 45>   H                    : -4.392991            5.100541             -2.206898
| 46>   H                    : -4.210136            3.298748             -2.150329
| 47> *
| 48>
| 49> #Run DFT-D3 single point of the particle with dimer basis set
| 50> $new_job
| 51> %base "11-20_DFT_B"
| 52> ! wB97X-D3 def2-TZVP TIGHTSCF CHELPG PMODEL
| 53>
| 54> %scf
| 55> MaxIter 1000
| 56> end
| 57>
| 58> * xyz 0 1
| 59>   C                    : -8.448119            2.442185             -5.118233
| 60>   O                    : -7.831945            1.753476             -4.059607
| 61>   H                    : -8.251878            0.862124             -3.916511
| 62>   H                    : -9.518605            2.289483             -5.032777
| 63>   H                    : -8.197066            3.464053             -5.152794
| 64>   H                    : -8.176135            2.038059             -6.035437
| 65>   C                      -4.783363            4.112619             -2.570429
| 66>   O                      -6.170966            4.051347             -2.271669
| 67>   H                      -6.396381            3.112215             -2.297182
| 68>   H                      -4.677063            4.150604             -3.633048
| 69>   H                      -4.392991            5.100541             -2.206898
| 70>   H                      -4.210136            3.298748             -2.150329
| 71> *
| 72>
| 73>                          ****END OF INPUT****
 Total Charge           Charge          ....    0
 Multiplicity           Mult            ....    1
 Number of Electrons    NEL             ....   36
Dispersion correction           -0.001428036
FINAL SINGLE POINT ENERGY      -231.469698120818
Dispersion correction           -0.000222118
FINAL SINGLE POINT ENERGY      -115.730231799478

CARTESIAN COORDINATES (ANGSTROEM)
---------------------------------
  C     -8.448119    2.442185   -5.118233
  O     -7.831945    1.753476   -4.059607
  H     -8.251878    0.862124   -3.916511
  H     -9.518605    2.289483   -5.032777
  H     -8.197066    3.464053   -5.152794
  H     -8.176135    2.038059   -6.035437
  C     -4.783363    4.112619   -2.570429
  O     -6.170966    4.051347   -2.271669
  H     -6.396381    3.112215   -2.297182
  H     -4.677063    4.150604   -3.633048
  H     -4.392991    5.100541   -2.206898
  H     -4.210136    3.298748   -2.150329

 Multiplicity           Mult            ....    1
 Number of Electrons    NEL             ....   18
 Basis Dimension        Dim             ....  172

ORBITAL ENERGIES
----------------

  NO   OCC          E(Eh)            E(eV)
   0   2.0000     -19.230740      -523.2950
   1   2.0000     -10.312273      -280.6112
   2   2.0000      -1.134723       -30.8774
   3   2.0000      -0.794443       -21.6179
   4   2.0000      -0.609679       -16.5902
   5   2.0000      -0.545487       -14.8435
   6   2.0000      -0.522179       -14.2092
   7   2.0000      -0.438869       -11.9422
   8   2.0000      -0.372847       -10.1457
   9   0.0000       0.079264         2.1569
  10   0.0000       0.124537         3.3888
  11   0.0000       0.150475         4.0946
  12   0.0000       0.168249         4.5783
  13   0.0000       0.192170         5.2292

MULLIKEN ATOMIC CHARGES
-----------------------
   0 C :   -0.001525
   1 O :   -0.001296
   2 H :   -0.000088
   3 H :    0.000076
   4 H :   -0.002309
   5 H :    0.000062
   6 C :   -0.167948
   7 O :   -0.469337
   8 H :    0.312914
   9 H :    0.107935
  10 H :    0.111445
  11 H :    0.110072
Sum of atomic charges:   -0.0000000

LOEWDIN ATOMIC CHARGES
----------------------
   0 C :   -0.002307
   1 O :   -0.003989
   2 H :   -0.000237
   3 H :   -0.000028
   4 H :   -0.001188
   5 H :   -0.000025
   6 C :   -0.379921
   7 O :   -0.081401
   8 H :    0.171789
   9 H :    0.090749
  10 H :    0.113290
  11 H :    0.093266

  Mayer bond orders larger than 0.1
B(  6-C ,  7-O ) :   1.0024 B(  6-C ,  9-H ) :   0.9771 B(  6-C , 10-H ) :   0.9757
B(  6-C , 11-H ) :   0.9775 B(  7-O ,  8-H ) :   0.9018

Dispersion correction           -0.000231413
FINAL SINGLE POINT ENERGY      -115.735003514082

DIPOLE MOMENT
-------------
                                X             Y             Z
Electronic contribution:     -1.72135      -0.03098       0.43146
Nuclear contribution   :      2.14461      -0.53183      -0.56230
                        -----------------------------------------
Total Dipole Moment    :      0.42326      -0.56282      -0.13084
                        -----------------------------------------
Magnitude (a.u.)       :      0.71626
Magnitude (Debye)      :      1.82059

Rotational constants in cm-1:     4.245497     0.834880     0.798321
Rotational constants in MHz : 127276.790747 25029.083336 23933.065962

                             ****ORCA TERMINATED NORMALLY****
TOTAL RUN TIME: 0 days 0 hours 1 minutes 2 seconds 741 msec
