                         Program Version 4.1.2  - RELEASE  -
|  1> #Run DFT-D3 single point of the dimer
|  2> ! wB97X-D3 def2-TZVP TIGHTSCF CHELPG PMODEL PAL8
|  3>
|  4> %base "6-164_DFT_AB"
|  5>
|  6> %scf
|  7> MaxIter 1000
|  8> end
|  9>
| 10> * xyz 0 1
| 11>   C                      5.890683             -3.792645            -3.899730
| 12>   O                      7.139683             -3.398593            -4.503209
| 13>   H                      7.846260             -3.774391            -3.995121
| 14>   H                      5.910107             -3.919907            -2.837656
| 15>   H                      5.013322             -3.162493            -3.961290
| 16>   H                      5.576193             -4.798254            -4.168236
| 17>   C                      7.449165             -7.833267            -3.684489
| 18>   O                      8.673282             -7.312019            -3.276682
| 19>   H                      8.453897             -6.609753            -2.633320
| 20>   H                      7.556963             -8.725010            -4.270334
| 21>   H                      6.723539             -8.104884            -2.806945
| 22>   H                      6.928298             -7.117201            -4.257824
| 23> *
| 24>
| 25> #Run DFT-D3 single point of the molecule with dimer basis set
| 26> $new_job
| 27> %base "6-164_DFT_A"
| 28> ! wB97X-D3 def2-TZVP TIGHTSCF CHELPG PMODEL
| 29>
| 30> %scf
| 31> MaxIter 1000
| 32> end
| 33>
| 34> * xyz 0 1
| 35>   C                      5.890683             -3.792645            -3.899730
| 36>   O                      7.139683             -3.398593            -4.503209
| 37>   H                      7.846260             -3.774391            -3.995121
| 38>   H                      5.910107             -3.919907            -2.837656
| 39>   H                      5.013322             -3.162493            -3.961290
| 40>   H                      5.576193             -4.798254            -4.168236
| 41>   C                    : 7.449165             -7.833267            -3.684489
| 42>   O                    : 8.673282             -7.312019            -3.276682
| 43>   H                    : 8.453897             -6.609753            -2.633320
| 44>   H                    : 7.556963             -8.725010            -4.270334
| 45>   H                    : 6.723539             -8.104884            -2.806945
| 46>   H                    : 6.928298             -7.117201            -4.257824
| 47> *
| 48>
| 49> #Run DFT-D3 single point of the particle with dimer basis set
| 50> $new_job
| 51> %base "6-164_DFT_B"
| 52> ! wB97X-D3 def2-TZVP TIGHTSCF CHELPG PMODEL
| 53>
| 54> %scf
| 55> MaxIter 1000
| 56> end
| 57>
| 58> * xyz 0 1
| 59>   C                    : 5.890683             -3.792645            -3.899730
| 60>   O                    : 7.139683             -3.398593            -4.503209
| 61>   H                    : 7.846260             -3.774391            -3.995121
| 62>   H                    : 5.910107             -3.919907            -2.837656
| 63>   H                    : 5.013322             -3.162493            -3.961290
| 64>   H                    : 5.576193             -4.798254            -4.168236
| 65>   C                      7.449165             -7.833267            -3.684489
| 66>   O                      8.673282             -7.312019            -3.276682
| 67>   H                      8.453897             -6.609753            -2.633320
| 68>   H                      7.556963             -8.725010            -4.270334
| 69>   H                      6.723539             -8.104884            -2.806945
| 70>   H                      6.928298             -7.117201            -4.257824
| 71> *
| 72>
| 73>                          ****END OF INPUT****
 Total Charge           Charge          ....    0
 Multiplicity           Mult            ....    1
 Number of Electrons    NEL             ....   36
Dispersion correction           -0.001552840
FINAL SINGLE POINT ENERGY      -231.457184905217
Dispersion correction           -0.000275265
FINAL SINGLE POINT ENERGY      -115.725439305552

CARTESIAN COORDINATES (ANGSTROEM)
---------------------------------
  C      5.890683   -3.792645   -3.899730
  O      7.139683   -3.398593   -4.503209
  H      7.846260   -3.774391   -3.995121
  H      5.910107   -3.919907   -2.837656
  H      5.013322   -3.162493   -3.961290
  H      5.576193   -4.798254   -4.168236
  C      7.449165   -7.833267   -3.684489
  O      8.673282   -7.312019   -3.276682
  H      8.453897   -6.609753   -2.633320
  H      7.556963   -8.725010   -4.270334
  H      6.723539   -8.104884   -2.806945
  H      6.928298   -7.117201   -4.257824

 Multiplicity           Mult            ....    1
 Number of Electrons    NEL             ....   18
 Basis Dimension        Dim             ....  172

ORBITAL ENERGIES
----------------

  NO   OCC          E(Eh)            E(eV)
   0   2.0000     -19.234767      -523.4046
   1   2.0000     -10.312162      -280.6082
   2   2.0000      -1.143393       -31.1133
   3   2.0000      -0.792735       -21.5714
   4   2.0000      -0.613541       -16.6953
   5   2.0000      -0.543527       -14.7901
   6   2.0000      -0.530700       -14.4411
   7   2.0000      -0.435557       -11.8521
   8   2.0000      -0.371502       -10.1091
   9   0.0000       0.073177         1.9913
  10   0.0000       0.124644         3.3917
  11   0.0000       0.147105         4.0029
  12   0.0000       0.167565         4.5597
  13   0.0000       0.190606         5.1867

MULLIKEN ATOMIC CHARGES
-----------------------
   0 C :    0.001190
   1 O :    0.000196
   2 H :   -0.001417
   3 H :   -0.000206
   4 H :    0.000086
   5 H :   -0.001415
   6 C :   -0.175880
   7 O :   -0.460868
   8 H :    0.319343
   9 H :    0.123386
  10 H :    0.088235
  11 H :    0.107350
Sum of atomic charges:    0.0000000

LOEWDIN ATOMIC CHARGES
----------------------
   0 C :   -0.001102
   1 O :   -0.000042
   2 H :   -0.000989
   3 H :   -0.000065
   4 H :   -0.000008
   5 H :   -0.002080
   6 C :   -0.407296
   7 O :   -0.064036
   8 H :    0.184117
   9 H :    0.102944
  10 H :    0.103701
  11 H :    0.084856

  Mayer bond orders larger than 0.1
B(  6-C ,  7-O ) :   1.0057 B(  6-C ,  9-H ) :   0.9725 B(  6-C , 10-H ) :   0.9778
B(  6-C , 11-H ) :   0.9767 B(  7-O ,  8-H ) :   0.8955

Dispersion correction           -0.000231438
FINAL SINGLE POINT ENERGY      -115.731508723680

DIPOLE MOMENT
-------------
                                X             Y             Z
Electronic contribution:      1.81378       0.58072       0.34678
Nuclear contribution   :     -2.39446      -0.33661      -0.13037
                        -----------------------------------------
Total Dipole Moment    :     -0.58068       0.24411       0.21641
                        -----------------------------------------
Magnitude (a.u.)       :      0.66604
Magnitude (Debye)      :      1.69295

Rotational constants in cm-1:     4.266838     0.851277     0.815067
Rotational constants in MHz : 127916.595211 25520.646167 24435.086634

                             ****ORCA TERMINATED NORMALLY****
TOTAL RUN TIME: 0 days 0 hours 1 minutes 0 seconds 170 msec
