                         Program Version 4.1.2  - RELEASE  -
|  1> #Run DFT-D3 single point of the dimer
|  2> ! wB97X-D3 def2-TZVP TIGHTSCF CHELPG PMODEL PAL8
|  3>
|  4> %base "13-69_DFT_AB"
|  5>
|  6> %scf
|  7> MaxIter 1000
|  8> end
|  9>
| 10> * xyz 0 1
| 11>   C                      6.579677             -4.656054            2.098122
| 12>   O                      6.418017             -5.253259            3.379541
| 13>   H                      5.507121             -5.599913            3.333520
| 14>   H                      5.924402             -3.782596            1.864666
| 15>   H                      7.523478             -4.087973            1.999012
| 16>   H                      6.439044             -5.427651            1.315982
| 17>   C                      4.431725             -7.665055            2.090697
| 18>   O                      3.952023             -6.491349            1.410912
| 19>   H                      3.328230             -6.798843            0.777364
| 20>   H                      4.780630             -7.528567            3.165821
| 21>   H                      3.676790             -8.425385            2.224436
| 22>   H                      5.257846             -8.104573            1.525051
| 23> *
| 24>
| 25> #Run DFT-D3 single point of the molecule with dimer basis set
| 26> $new_job
| 27> %base "13-69_DFT_A"
| 28> ! wB97X-D3 def2-TZVP TIGHTSCF CHELPG PMODEL
| 29>
| 30> %scf
| 31> MaxIter 1000
| 32> end
| 33>
| 34> * xyz 0 1
| 35>   C                      6.579677             -4.656054            2.098122
| 36>   O                      6.418017             -5.253259            3.379541
| 37>   H                      5.507121             -5.599913            3.333520
| 38>   H                      5.924402             -3.782596            1.864666
| 39>   H                      7.523478             -4.087973            1.999012
| 40>   H                      6.439044             -5.427651            1.315982
| 41>   C                    : 4.431725             -7.665055            2.090697
| 42>   O                    : 3.952023             -6.491349            1.410912
| 43>   H                    : 3.328230             -6.798843            0.777364
| 44>   H                    : 4.780630             -7.528567            3.165821
| 45>   H                    : 3.676790             -8.425385            2.224436
| 46>   H                    : 5.257846             -8.104573            1.525051
| 47> *
| 48>
| 49> #Run DFT-D3 single point of the particle with dimer basis set
| 50> $new_job
| 51> %base "13-69_DFT_B"
| 52> ! wB97X-D3 def2-TZVP TIGHTSCF CHELPG PMODEL
| 53>
| 54> %scf
| 55> MaxIter 1000
| 56> end
| 57>
| 58> * xyz 0 1
| 59>   C                    : 6.579677             -4.656054            2.098122
| 60>   O                    : 6.418017             -5.253259            3.379541
| 61>   H                    : 5.507121             -5.599913            3.333520
| 62>   H                    : 5.924402             -3.782596            1.864666
| 63>   H                    : 7.523478             -4.087973            1.999012
| 64>   H                    : 6.439044             -5.427651            1.315982
| 65>   C                      4.431725             -7.665055            2.090697
| 66>   O                      3.952023             -6.491349            1.410912
| 67>   H                      3.328230             -6.798843            0.777364
| 68>   H                      4.780630             -7.528567            3.165821
| 69>   H                      3.676790             -8.425385            2.224436
| 70>   H                      5.257846             -8.104573            1.525051
| 71> *
| 72>
| 73>                          ****END OF INPUT****
 Total Charge           Charge          ....    0
 Multiplicity           Mult            ....    1
 Number of Electrons    NEL             ....   36
Dispersion correction           -0.002334284
FINAL SINGLE POINT ENERGY      -231.465095317085
Dispersion correction           -0.000250269
FINAL SINGLE POINT ENERGY      -115.730386351475

CARTESIAN COORDINATES (ANGSTROEM)
---------------------------------
  C      6.579677   -4.656054    2.098122
  O      6.418017   -5.253259    3.379541
  H      5.507121   -5.599913    3.333520
  H      5.924402   -3.782596    1.864666
  H      7.523478   -4.087973    1.999012
  H      6.439044   -5.427651    1.315982
  C      4.431725   -7.665055    2.090697
  O      3.952023   -6.491349    1.410912
  H      3.328230   -6.798843    0.777364
  H      4.780630   -7.528567    3.165821
  H      3.676790   -8.425385    2.224436
  H      5.257846   -8.104573    1.525051

 Multiplicity           Mult            ....    1
 Number of Electrons    NEL             ....   18
 Basis Dimension        Dim             ....  172

ORBITAL ENERGIES
----------------

  NO   OCC          E(Eh)            E(eV)
   0   2.0000     -19.232243      -523.3359
   1   2.0000     -10.319096      -280.7969
   2   2.0000      -1.135843       -30.9079
   3   2.0000      -0.796940       -21.6858
   4   2.0000      -0.610956       -16.6250
   5   2.0000      -0.541543       -14.7361
   6   2.0000      -0.521573       -14.1927
   7   2.0000      -0.433910       -11.8073
   8   2.0000      -0.377974       -10.2852
   9   0.0000       0.099516         2.7080
  10   0.0000       0.129819         3.5326
  11   0.0000       0.145369         3.9557
  12   0.0000       0.178378         4.8539
  13   0.0000       0.193697         5.2708

MULLIKEN ATOMIC CHARGES
-----------------------
   0 C :    0.006361
   1 O :   -0.000603
   2 H :    0.000732
   3 H :   -0.001902
   4 H :   -0.000100
   5 H :   -0.006243
   6 C :   -0.190760
   7 O :   -0.464636
   8 H :    0.310914
   9 H :    0.116440
  10 H :    0.117913
  11 H :    0.111884
Sum of atomic charges:    0.0000000

LOEWDIN ATOMIC CHARGES
----------------------
   0 C :   -0.009066
   1 O :   -0.001792
   2 H :   -0.010884
   3 H :   -0.000824
   4 H :   -0.000050
   5 H :   -0.005557
   6 C :   -0.370981
   7 O :   -0.068959
   8 H :    0.156771
   9 H :    0.120191
  10 H :    0.093693
  11 H :    0.097457

  Mayer bond orders larger than 0.1
B(  6-C ,  7-O ) :   0.9917 B(  6-C ,  9-H ) :   0.9722 B(  6-C , 10-H ) :   0.9747
B(  6-C , 11-H ) :   0.9783 B(  7-O ,  8-H ) :   0.9038

Dispersion correction           -0.000260129
FINAL SINGLE POINT ENERGY      -115.731372145882

DIPOLE MOMENT
-------------
                                X             Y             Z
Electronic contribution:     -0.57015       1.65910      -0.84045
Nuclear contribution   :      0.33515      -2.35216       0.71947
                        -----------------------------------------
Total Dipole Moment    :     -0.23501      -0.69307      -0.12098
                        -----------------------------------------
Magnitude (a.u.)       :      0.74176
Magnitude (Debye)      :      1.88541

Rotational constants in cm-1:     4.386250     0.795735     0.774028
Rotational constants in MHz : 131496.481178 23855.528343 23204.775449

                             ****ORCA TERMINATED NORMALLY****
TOTAL RUN TIME: 0 days 0 hours 1 minutes 12 seconds 294 msec
