                         Program Version 4.1.2  - RELEASE  -
|  1> #Run DFT-D3 single point of the dimer
|  2> ! wB97X-D3 def2-TZVP TIGHTSCF CHELPG PMODEL PAL8
|  3>
|  4> %base "10-54_DFT_AB"
|  5>
|  6> %scf
|  7> MaxIter 1000
|  8> end
|  9>
| 10> * xyz 0 1
| 11>   C                      6.640702             1.118679             1.001048
| 12>   O                      7.266035             -0.143782            1.123999
| 13>   H                      7.994274             -0.063849            0.473445
| 14>   H                      5.730766             1.058960             0.469523
| 15>   H                      6.333335             1.429739             2.003741
| 16>   H                      7.222567             1.942048             0.618447
| 17>   C                      8.580706             -5.871697            1.752565
| 18>   O                      8.562280             -4.673971            1.151042
| 19>   H                      7.793573             -4.541549            0.573534
| 20>   H                      9.506251             -5.941509            2.302807
| 21>   H                      7.777890             -6.099505            2.499697
| 22>   H                      8.603862             -6.758189            1.046684
| 23> *
| 24>
| 25> #Run DFT-D3 single point of the molecule with dimer basis set
| 26> $new_job
| 27> %base "10-54_DFT_A"
| 28> ! wB97X-D3 def2-TZVP TIGHTSCF CHELPG PMODEL
| 29>
| 30> %scf
| 31> MaxIter 1000
| 32> end
| 33>
| 34> * xyz 0 1
| 35>   C                      6.640702             1.118679             1.001048
| 36>   O                      7.266035             -0.143782            1.123999
| 37>   H                      7.994274             -0.063849            0.473445
| 38>   H                      5.730766             1.058960             0.469523
| 39>   H                      6.333335             1.429739             2.003741
| 40>   H                      7.222567             1.942048             0.618447
| 41>   C                    : 8.580706             -5.871697            1.752565
| 42>   O                    : 8.562280             -4.673971            1.151042
| 43>   H                    : 7.793573             -4.541549            0.573534
| 44>   H                    : 9.506251             -5.941509            2.302807
| 45>   H                    : 7.777890             -6.099505            2.499697
| 46>   H                    : 8.603862             -6.758189            1.046684
| 47> *
| 48>
| 49> #Run DFT-D3 single point of the particle with dimer basis set
| 50> $new_job
| 51> %base "10-54_DFT_B"
| 52> ! wB97X-D3 def2-TZVP TIGHTSCF CHELPG PMODEL
| 53>
| 54> %scf
| 55> MaxIter 1000
| 56> end
| 57>
| 58> * xyz 0 1
| 59>   C                    : 6.640702             1.118679             1.001048
| 60>   O                    : 7.266035             -0.143782            1.123999
| 61>   H                    : 7.994274             -0.063849            0.473445
| 62>   H                    : 5.730766             1.058960             0.469523
| 63>   H                    : 6.333335             1.429739             2.003741
| 64>   H                    : 7.222567             1.942048             0.618447
| 65>   C                      8.580706             -5.871697            1.752565
| 66>   O                      8.562280             -4.673971            1.151042
| 67>   H                      7.793573             -4.541549            0.573534
| 68>   H                      9.506251             -5.941509            2.302807
| 69>   H                      7.777890             -6.099505            2.499697
| 70>   H                      8.603862             -6.758189            1.046684
| 71> *
| 72>
| 73>                          ****END OF INPUT****
 Total Charge           Charge          ....    0
 Multiplicity           Mult            ....    1
 Number of Electrons    NEL             ....   36
Dispersion correction           -0.000612044
FINAL SINGLE POINT ENERGY      -231.463464276526
Dispersion correction           -0.000239590
FINAL SINGLE POINT ENERGY      -115.731241631337

CARTESIAN COORDINATES (ANGSTROEM)
---------------------------------
  C      6.640702    1.118679    1.001048
  O      7.266035   -0.143782    1.123999
  H      7.994274   -0.063849    0.473445
  H      5.730766    1.058960    0.469523
  H      6.333335    1.429739    2.003741
  H      7.222567    1.942048    0.618447
  C      8.580706   -5.871697    1.752565
  O      8.562280   -4.673971    1.151042
  H      7.793573   -4.541549    0.573534
  H      9.506251   -5.941509    2.302807
  H      7.777890   -6.099505    2.499697
  H      8.603862   -6.758189    1.046684

 Multiplicity           Mult            ....    1
 Number of Electrons    NEL             ....   18
 Basis Dimension        Dim             ....  172

ORBITAL ENERGIES
----------------

  NO   OCC          E(Eh)            E(eV)
   0   2.0000     -19.234615      -523.4005
   1   2.0000     -10.311522      -280.5908
   2   2.0000      -1.158375       -31.5210
   3   2.0000      -0.794135       -21.6095
   4   2.0000      -0.626102       -17.0371
   5   2.0000      -0.541516       -14.7354
   6   2.0000      -0.538415       -14.6510
   7   2.0000      -0.422153       -11.4874
   8   2.0000      -0.370528       -10.0826
   9   0.0000       0.088642         2.4121
  10   0.0000       0.114749         3.1225
  11   0.0000       0.151318         4.1176
  12   0.0000       0.173418         4.7189
  13   0.0000       0.199004         5.4152

MULLIKEN ATOMIC CHARGES
-----------------------
   0 C :   -0.000018
   1 O :   -0.000032
   2 H :   -0.000059
   3 H :    0.000001
   4 H :    0.000001
   5 H :    0.000000
   6 C :   -0.143061
   7 O :   -0.462029
   8 H :    0.321110
   9 H :    0.115386
  10 H :    0.086956
  11 H :    0.081744
Sum of atomic charges:    0.0000000

LOEWDIN ATOMIC CHARGES
----------------------
   0 C :   -0.000003
   1 O :   -0.000034
   2 H :   -0.000037
   3 H :   -0.000000
   4 H :   -0.000000
   5 H :   -0.000000
   6 C :   -0.454866
   7 O :   -0.019334
   8 H :    0.180581
   9 H :    0.106644
  10 H :    0.092761
  11 H :    0.094290

  Mayer bond orders larger than 0.1
B(  6-C ,  7-O ) :   1.0232 B(  6-C ,  9-H ) :   0.9733 B(  6-C , 10-H ) :   0.9689
B(  6-C , 11-H ) :   0.9762 B(  7-O ,  8-H ) :   0.8884

Dispersion correction           -0.000253304
FINAL SINGLE POINT ENERGY      -115.732111221238

DIPOLE MOMENT
-------------
                                X             Y             Z
Electronic contribution:      0.02349       1.80522      -0.80156
Nuclear contribution   :     -0.49121      -2.11570       0.64109
                        -----------------------------------------
Total Dipole Moment    :     -0.46773      -0.31048      -0.16048
                        -----------------------------------------
Magnitude (a.u.)       :      0.58388
Magnitude (Debye)      :      1.48412

Rotational constants in cm-1:     4.382399     0.880530     0.853913
Rotational constants in MHz : 131381.002534 26397.617285 25599.663564

                             ****ORCA TERMINATED NORMALLY****
TOTAL RUN TIME: 0 days 0 hours 1 minutes 4 seconds 244 msec
