                         Program Version 4.1.2  - RELEASE  -
|  1> #Run DFT-D3 single point of the dimer
|  2> ! wB97X-D3 def2-TZVP TIGHTSCF CHELPG PMODEL PAL8
|  3>
|  4> %base "21-110_DFT_AB"
|  5>
|  6> %scf
|  7> MaxIter 1000
|  8> end
|  9>
| 10> * xyz 0 1
| 11>   C                      11.122431            -6.628041            -1.890317
| 12>   O                      9.905243             -7.179315            -1.501402
| 13>   H                      10.068682            -7.746275            -0.749948
| 14>   H                      10.926274            -6.025471            -2.797524
| 15>   H                      11.515017            -5.906287            -1.184463
| 16>   H                      11.829085            -7.345357            -2.185761
| 17>   C                      10.289126            -2.634421            -1.941004
| 18>   O                      9.433432             -3.716244            -2.341455
| 19>   H                      9.747974             -4.128017            -3.118309
| 20>   H                      10.432611            -1.866400            -2.787029
| 21>   H                      9.803779             -2.111440            -1.050015
| 22>   H                      11.290492            -3.035278            -1.606334
| 23> *
| 24>
| 25> #Run DFT-D3 single point of the molecule with dimer basis set
| 26> $new_job
| 27> %base "21-110_DFT_A"
| 28> ! wB97X-D3 def2-TZVP TIGHTSCF CHELPG PMODEL
| 29>
| 30> %scf
| 31> MaxIter 1000
| 32> end
| 33>
| 34> * xyz 0 1
| 35>   C                      11.122431            -6.628041            -1.890317
| 36>   O                      9.905243             -7.179315            -1.501402
| 37>   H                      10.068682            -7.746275            -0.749948
| 38>   H                      10.926274            -6.025471            -2.797524
| 39>   H                      11.515017            -5.906287            -1.184463
| 40>   H                      11.829085            -7.345357            -2.185761
| 41>   C                    : 10.289126            -2.634421            -1.941004
| 42>   O                    : 9.433432             -3.716244            -2.341455
| 43>   H                    : 9.747974             -4.128017            -3.118309
| 44>   H                    : 10.432611            -1.866400            -2.787029
| 45>   H                    : 9.803779             -2.111440            -1.050015
| 46>   H                    : 11.290492            -3.035278            -1.606334
| 47> *
| 48>
| 49> #Run DFT-D3 single point of the particle with dimer basis set
| 50> $new_job
| 51> %base "21-110_DFT_B"
| 52> ! wB97X-D3 def2-TZVP TIGHTSCF CHELPG PMODEL
| 53>
| 54> %scf
| 55> MaxIter 1000
| 56> end
| 57>
| 58> * xyz 0 1
| 59>   C                    : 11.122431            -6.628041            -1.890317
| 60>   O                    : 9.905243             -7.179315            -1.501402
| 61>   H                    : 10.068682            -7.746275            -0.749948
| 62>   H                    : 10.926274            -6.025471            -2.797524
| 63>   H                    : 11.515017            -5.906287            -1.184463
| 64>   H                    : 11.829085            -7.345357            -2.185761
| 65>   C                      10.289126            -2.634421            -1.941004
| 66>   O                      9.433432             -3.716244            -2.341455
| 67>   H                      9.747974             -4.128017            -3.118309
| 68>   H                      10.432611            -1.866400            -2.787029
| 69>   H                      9.803779             -2.111440            -1.050015
| 70>   H                      11.290492            -3.035278            -1.606334
| 71> *
| 72>
| 73>                          ****END OF INPUT****
 Total Charge           Charge          ....    0
 Multiplicity           Mult            ....    1
 Number of Electrons    NEL             ....   36
Dispersion correction           -0.001877140
FINAL SINGLE POINT ENERGY      -231.466575003458
Dispersion correction           -0.000228908
FINAL SINGLE POINT ENERGY      -115.734756922906

CARTESIAN COORDINATES (ANGSTROEM)
---------------------------------
  C     11.122431   -6.628041   -1.890317
  O      9.905243   -7.179315   -1.501402
  H     10.068682   -7.746275   -0.749948
  H     10.926274   -6.025471   -2.797524
  H     11.515017   -5.906287   -1.184463
  H     11.829085   -7.345357   -2.185761
  C     10.289126   -2.634421   -1.941004
  O      9.433432   -3.716244   -2.341455
  H      9.747974   -4.128017   -3.118309
  H     10.432611   -1.866400   -2.787029
  H      9.803779   -2.111440   -1.050015
  H     11.290492   -3.035278   -1.606334

 Multiplicity           Mult            ....    1
 Number of Electrons    NEL             ....   18
 Basis Dimension        Dim             ....  172

ORBITAL ENERGIES
----------------

  NO   OCC          E(Eh)            E(eV)
   0   2.0000     -19.229124      -523.2511
   1   2.0000     -10.331892      -281.1451
   2   2.0000      -1.134423       -30.8692
   3   2.0000      -0.790238       -21.5035
   4   2.0000      -0.607196       -16.5227
   5   2.0000      -0.534961       -14.5570
   6   2.0000      -0.521785       -14.1985
   7   2.0000      -0.430275       -11.7084
   8   2.0000      -0.375421       -10.2157
   9   0.0000       0.085830         2.3356
  10   0.0000       0.128289         3.4909
  11   0.0000       0.146809         3.9949
  12   0.0000       0.171923         4.6783
  13   0.0000       0.188321         5.1245

MULLIKEN ATOMIC CHARGES
-----------------------
   0 C :   -0.000467
   1 O :    0.000832
   2 H :    0.000057
   3 H :   -0.011737
   4 H :    0.000529
   5 H :   -0.001024
   6 C :   -0.165402
   7 O :   -0.468889
   8 H :    0.312875
   9 H :    0.106608
  10 H :    0.123664
  11 H :    0.102955
Sum of atomic charges:   -0.0000000

LOEWDIN ATOMIC CHARGES
----------------------
   0 C :   -0.009399
   1 O :   -0.000751
   2 H :   -0.000065
   3 H :   -0.006389
   4 H :   -0.001296
   5 H :   -0.000197
   6 C :   -0.380310
   7 O :   -0.070626
   8 H :    0.148485
   9 H :    0.103498
  10 H :    0.118129
  11 H :    0.098922

  Mayer bond orders larger than 0.1
B(  6-C ,  7-O ) :   0.9938 B(  6-C ,  9-H ) :   0.9719 B(  6-C , 10-H ) :   0.9716
B(  6-C , 11-H ) :   0.9693 B(  7-O ,  8-H ) :   0.9026

Dispersion correction           -0.000273729
FINAL SINGLE POINT ENERGY      -115.732817918588

DIPOLE MOMENT
-------------
                                X             Y             Z
Electronic contribution:     -1.15879      -1.34053      -0.42527
Nuclear contribution   :      1.69405       1.52446       0.09357
                        -----------------------------------------
Total Dipole Moment    :      0.53526       0.18393      -0.33170
                        -----------------------------------------
Magnitude (a.u.)       :      0.65602
Magnitude (Debye)      :      1.66747

Rotational constants in cm-1:     4.047055     0.799669     0.775440
Rotational constants in MHz : 121327.644723 23973.482228 23247.093848

                             ****ORCA TERMINATED NORMALLY****
TOTAL RUN TIME: 0 days 0 hours 1 minutes 1 seconds 886 msec
