                         Program Version 4.1.2  - RELEASE  -
|  1> #Run DFT-D3 single point of the dimer
|  2> ! wB97X-D3 def2-TZVP TIGHTSCF CHELPG PMODEL PAL8
|  3>
|  4> %base "5-81_DFT_AB"
|  5>
|  6> %scf
|  7> MaxIter 1000
|  8> end
|  9>
| 10> * xyz 0 1
| 11>   C                      -1.179900            -8.638037            -6.948018
| 12>   O                      -1.535437            -7.599694            -7.826611
| 13>   H                      -1.999492            -7.996814            -8.546439
| 14>   H                      -1.140443            -8.346784            -5.893805
| 15>   H                      -1.993029            -9.398908            -7.027883
| 16>   H                      -0.248926            -9.165004            -7.282007
| 17>   C                      2.820385             -5.089444            -8.442606
| 18>   O                      2.945172             -3.830375            -7.756937
| 19>   H                      2.962950             -3.070682            -8.399219
| 20>   H                      1.914356             -5.641353            -8.329648
| 21>   H                      3.072038             -5.033986            -9.493354
| 22>   H                      3.628595             -5.784499            -8.061974
| 23> *
| 24>
| 25> #Run DFT-D3 single point of the molecule with dimer basis set
| 26> $new_job
| 27> %base "5-81_DFT_A"
| 28> ! wB97X-D3 def2-TZVP TIGHTSCF CHELPG PMODEL
| 29>
| 30> %scf
| 31> MaxIter 1000
| 32> end
| 33>
| 34> * xyz 0 1
| 35>   C                      -1.179900            -8.638037            -6.948018
| 36>   O                      -1.535437            -7.599694            -7.826611
| 37>   H                      -1.999492            -7.996814            -8.546439
| 38>   H                      -1.140443            -8.346784            -5.893805
| 39>   H                      -1.993029            -9.398908            -7.027883
| 40>   H                      -0.248926            -9.165004            -7.282007
| 41>   C                    : 2.820385             -5.089444            -8.442606
| 42>   O                    : 2.945172             -3.830375            -7.756937
| 43>   H                    : 2.962950             -3.070682            -8.399219
| 44>   H                    : 1.914356             -5.641353            -8.329648
| 45>   H                    : 3.072038             -5.033986            -9.493354
| 46>   H                    : 3.628595             -5.784499            -8.061974
| 47> *
| 48>
| 49> #Run DFT-D3 single point of the particle with dimer basis set
| 50> $new_job
| 51> %base "5-81_DFT_B"
| 52> ! wB97X-D3 def2-TZVP TIGHTSCF CHELPG PMODEL
| 53>
| 54> %scf
| 55> MaxIter 1000
| 56> end
| 57>
| 58> * xyz 0 1
| 59>   C                    : -1.179900            -8.638037            -6.948018
| 60>   O                    : -1.535437            -7.599694            -7.826611
| 61>   H                    : -1.999492            -7.996814            -8.546439
| 62>   H                    : -1.140443            -8.346784            -5.893805
| 63>   H                    : -1.993029            -9.398908            -7.027883
| 64>   H                    : -0.248926            -9.165004            -7.282007
| 65>   C                      2.820385             -5.089444            -8.442606
| 66>   O                      2.945172             -3.830375            -7.756937
| 67>   H                      2.962950             -3.070682            -8.399219
| 68>   H                      1.914356             -5.641353            -8.329648
| 69>   H                      3.072038             -5.033986            -9.493354
| 70>   H                      3.628595             -5.784499            -8.061974
| 71> *
| 72>
| 73>                          ****END OF INPUT****
 Total Charge           Charge          ....    0
 Multiplicity           Mult            ....    1
 Number of Electrons    NEL             ....   36
Dispersion correction           -0.000721194
FINAL SINGLE POINT ENERGY      -231.462461718882
Dispersion correction           -0.000232871
FINAL SINGLE POINT ENERGY      -115.732759739988

CARTESIAN COORDINATES (ANGSTROEM)
---------------------------------
  C     -1.179900   -8.638037   -6.948018
  O     -1.535437   -7.599694   -7.826611
  H     -1.999492   -7.996814   -8.546439
  H     -1.140443   -8.346784   -5.893805
  H     -1.993029   -9.398908   -7.027883
  H     -0.248926   -9.165004   -7.282007
  C      2.820385   -5.089444   -8.442606
  O      2.945172   -3.830375   -7.756937
  H      2.962950   -3.070682   -8.399219
  H      1.914356   -5.641353   -8.329648
  H      3.072038   -5.033986   -9.493354
  H      3.628595   -5.784499   -8.061974

 Multiplicity           Mult            ....    1
 Number of Electrons    NEL             ....   18
 Basis Dimension        Dim             ....  172

ORBITAL ENERGIES
----------------

  NO   OCC          E(Eh)            E(eV)
   0   2.0000     -19.234516      -523.3978
   1   2.0000     -10.314769      -280.6791
   2   2.0000      -1.120859       -30.5001
   3   2.0000      -0.797249       -21.6942
   4   2.0000      -0.606614       -16.5068
   5   2.0000      -0.540746       -14.7145
   6   2.0000      -0.517180       -14.0732
   7   2.0000      -0.429112       -11.6767
   8   2.0000      -0.374535       -10.1916
   9   0.0000       0.083780         2.2798
  10   0.0000       0.110924         3.0184
  11   0.0000       0.144270         3.9258
  12   0.0000       0.166266         4.5243
  13   0.0000       0.185460         5.0466

MULLIKEN ATOMIC CHARGES
-----------------------
   0 C :    0.000019
   1 O :   -0.000019
   2 H :   -0.000008
   3 H :   -0.000008
   4 H :   -0.000001
   5 H :   -0.000027
   6 C :   -0.180089
   7 O :   -0.484270
   8 H :    0.321195
   9 H :    0.119719
  10 H :    0.112910
  11 H :    0.110579
Sum of atomic charges:   -0.0000000

LOEWDIN ATOMIC CHARGES
----------------------
   0 C :   -0.000104
   1 O :   -0.000060
   2 H :   -0.000009
   3 H :   -0.000003
   4 H :   -0.000002
   5 H :   -0.000020
   6 C :   -0.375667
   7 O :   -0.110352
   8 H :    0.187608
   9 H :    0.092270
  10 H :    0.095129
  11 H :    0.111212

  Mayer bond orders larger than 0.1
B(  6-C ,  7-O ) :   1.0072 B(  6-C ,  9-H ) :   0.9678 B(  6-C , 10-H ) :   0.9799
B(  6-C , 11-H ) :   0.9780 B(  7-O ,  8-H ) :   0.8920

Dispersion correction           -0.000279505
FINAL SINGLE POINT ENERGY      -115.729349377964

DIPOLE MOMENT
-------------
                                X             Y             Z
Electronic contribution:     -0.03680       1.64138       0.98316
Nuclear contribution   :      0.01005      -1.67183      -1.70083
                        -----------------------------------------
Total Dipole Moment    :     -0.02675      -0.03045      -0.71767
                        -----------------------------------------
Magnitude (a.u.)       :      0.71881
Magnitude (Debye)      :      1.82708

Rotational constants in cm-1:     4.414542     0.791219     0.765405
Rotational constants in MHz : 132344.650669 23720.134050 22946.255028

                             ****ORCA TERMINATED NORMALLY****
TOTAL RUN TIME: 0 days 0 hours 1 minutes 2 seconds 83 msec
