                         Program Version 4.1.2  - RELEASE  -
|  1> #Run DFT-D3 single point of the dimer
|  2> ! wB97X-D3 def2-TZVP TIGHTSCF CHELPG PMODEL PAL8
|  3>
|  4> %base "13-137_DFT_AB"
|  5>
|  6> %scf
|  7> MaxIter 1000
|  8> end
|  9>
| 10> * xyz 0 1
| 11>   C                      -6.083136            5.885562             7.272078
| 12>   O                      -5.275935            6.974609             7.448054
| 13>   H                      -4.771461            7.052453             6.604360
| 14>   H                      -6.995972            5.890797             7.959285
| 15>   H                      -6.525911            5.758707             6.203153
| 16>   H                      -5.455596            4.991916             7.471403
| 17>   C                      -6.157454            10.005180            5.000635
| 18>   O                      -7.012671            9.226287             4.226335
| 19>   H                      -6.640607            8.534934             3.691516
| 20>   H                      -5.172978            10.178861            4.437589
| 21>   H                      -6.692269            10.953788            5.047580
| 22>   H                      -5.897147            9.620161             5.962352
| 23> *
| 24>
| 25> #Run DFT-D3 single point of the molecule with dimer basis set
| 26> $new_job
| 27> %base "13-137_DFT_A"
| 28> ! wB97X-D3 def2-TZVP TIGHTSCF CHELPG PMODEL
| 29>
| 30> %scf
| 31> MaxIter 1000
| 32> end
| 33>
| 34> * xyz 0 1
| 35>   C                      -6.083136            5.885562             7.272078
| 36>   O                      -5.275935            6.974609             7.448054
| 37>   H                      -4.771461            7.052453             6.604360
| 38>   H                      -6.995972            5.890797             7.959285
| 39>   H                      -6.525911            5.758707             6.203153
| 40>   H                      -5.455596            4.991916             7.471403
| 41>   C                    : -6.157454            10.005180            5.000635
| 42>   O                    : -7.012671            9.226287             4.226335
| 43>   H                    : -6.640607            8.534934             3.691516
| 44>   H                    : -5.172978            10.178861            4.437589
| 45>   H                    : -6.692269            10.953788            5.047580
| 46>   H                    : -5.897147            9.620161             5.962352
| 47> *
| 48>
| 49> #Run DFT-D3 single point of the particle with dimer basis set
| 50> $new_job
| 51> %base "13-137_DFT_B"
| 52> ! wB97X-D3 def2-TZVP TIGHTSCF CHELPG PMODEL
| 53>
| 54> %scf
| 55> MaxIter 1000
| 56> end
| 57>
| 58> * xyz 0 1
| 59>   C                    : -6.083136            5.885562             7.272078
| 60>   O                    : -5.275935            6.974609             7.448054
| 61>   H                    : -4.771461            7.052453             6.604360
| 62>   H                    : -6.995972            5.890797             7.959285
| 63>   H                    : -6.525911            5.758707             6.203153
| 64>   H                    : -5.455596            4.991916             7.471403
| 65>   C                      -6.157454            10.005180            5.000635
| 66>   O                      -7.012671            9.226287             4.226335
| 67>   H                      -6.640607            8.534934             3.691516
| 68>   H                      -5.172978            10.178861            4.437589
| 69>   H                      -6.692269            10.953788            5.047580
| 70>   H                      -5.897147            9.620161             5.962352
| 71> *
| 72>
| 73>                          ****END OF INPUT****
 Total Charge           Charge          ....    0
 Multiplicity           Mult            ....    1
 Number of Electrons    NEL             ....   36
Dispersion correction           -0.001370140
FINAL SINGLE POINT ENERGY      -231.459897536287
Dispersion correction           -0.000234275
FINAL SINGLE POINT ENERGY      -115.728602693861

CARTESIAN COORDINATES (ANGSTROEM)
---------------------------------
  C     -6.083136    5.885562    7.272078
  O     -5.275935    6.974609    7.448054
  H     -4.771461    7.052453    6.604360
  H     -6.995972    5.890797    7.959285
  H     -6.525911    5.758707    6.203153
  H     -5.455596    4.991916    7.471403
  C     -6.157454   10.005180    5.000635
  O     -7.012671    9.226287    4.226335
  H     -6.640607    8.534934    3.691516
  H     -5.172978   10.178861    4.437589
  H     -6.692269   10.953788    5.047580
  H     -5.897147    9.620161    5.962352

 Multiplicity           Mult            ....    1
 Number of Electrons    NEL             ....   18
 Basis Dimension        Dim             ....  172

ORBITAL ENERGIES
----------------

  NO   OCC          E(Eh)            E(eV)
   0   2.0000     -19.224099      -523.1143
   1   2.0000     -10.313894      -280.6553
   2   2.0000      -1.137884       -30.9634
   3   2.0000      -0.798947       -21.7405
   4   2.0000      -0.617894       -16.8137
   5   2.0000      -0.543875       -14.7996
   6   2.0000      -0.527268       -14.3477
   7   2.0000      -0.417650       -11.3648
   8   2.0000      -0.372244       -10.1293
   9   0.0000       0.080985         2.2037
  10   0.0000       0.122055         3.3213
  11   0.0000       0.148895         4.0516
  12   0.0000       0.174656         4.7526
  13   0.0000       0.188794         5.1374

MULLIKEN ATOMIC CHARGES
-----------------------
   0 C :    0.000418
   1 O :    0.000057
   2 H :    0.000180
   3 H :   -0.000011
   4 H :   -0.001105
   5 H :   -0.000019
   6 C :   -0.138433
   7 O :   -0.490117
   8 H :    0.318557
   9 H :    0.088386
  10 H :    0.121788
  11 H :    0.100298
Sum of atomic charges:    0.0000000

LOEWDIN ATOMIC CHARGES
----------------------
   0 C :   -0.000369
   1 O :   -0.000809
   2 H :   -0.000760
   3 H :   -0.000007
   4 H :   -0.000486
   5 H :   -0.000006
   6 C :   -0.394931
   7 O :   -0.060430
   8 H :    0.158761
   9 H :    0.102326
  10 H :    0.110666
  11 H :    0.086044

  Mayer bond orders larger than 0.1
B(  6-C ,  7-O ) :   0.9993 B(  6-C ,  9-H ) :   0.9845 B(  6-C , 10-H ) :   0.9786
B(  6-C , 11-H ) :   0.9631 B(  7-O ,  8-H ) :   0.8930

Dispersion correction           -0.000257054
FINAL SINGLE POINT ENERGY      -115.730729898078

DIPOLE MOMENT
-------------
                                X             Y             Z
Electronic contribution:     -1.19712      -1.00370      -0.79300
Nuclear contribution   :      1.78206       0.85292       0.73736
                        -----------------------------------------
Total Dipole Moment    :      0.58494      -0.15078      -0.05564
                        -----------------------------------------
Magnitude (a.u.)       :      0.60662
Magnitude (Debye)      :      1.54191

Rotational constants in cm-1:     4.348561     0.844545     0.816424
Rotational constants in MHz : 130366.582883 25318.834828 24475.779262

                             ****ORCA TERMINATED NORMALLY****
TOTAL RUN TIME: 0 days 0 hours 1 minutes 10 seconds 408 msec
