                         Program Version 4.1.2  - RELEASE  -
|  1> #Run DFT-D3 single point of the dimer
|  2> ! wB97X-D3 def2-TZVP TIGHTSCF CHELPG PMODEL PAL8
|  3>
|  4> %base "14-144_DFT_AB"
|  5>
|  6> %scf
|  7> MaxIter 1000
|  8> end
|  9>
| 10> * xyz 0 1
| 11>   C                      -6.355175            4.803348             -0.633554
| 12>   O                      -6.165207            4.170899             0.606047
| 13>   H                      -6.825564            3.483296             0.638373
| 14>   H                      -7.380405            5.187809             -0.791474
| 15>   H                      -5.628031            5.602576             -0.976239
| 16>   H                      -6.191720            4.108695             -1.435763
| 17>   C                      -6.154052            3.958405             3.975718
| 18>   O                      -5.344385            3.991416             5.166101
| 19>   H                      -4.464513            3.618490             4.895154
| 20>   H                      -5.814235            4.644346             3.153076
| 21>   H                      -6.268747            2.967762             3.478861
| 22>   H                      -7.189835            4.229594             4.185290
| 23> *
| 24>
| 25> #Run DFT-D3 single point of the molecule with dimer basis set
| 26> $new_job
| 27> %base "14-144_DFT_A"
| 28> ! wB97X-D3 def2-TZVP TIGHTSCF CHELPG PMODEL
| 29>
| 30> %scf
| 31> MaxIter 1000
| 32> end
| 33>
| 34> * xyz 0 1
| 35>   C                      -6.355175            4.803348             -0.633554
| 36>   O                      -6.165207            4.170899             0.606047
| 37>   H                      -6.825564            3.483296             0.638373
| 38>   H                      -7.380405            5.187809             -0.791474
| 39>   H                      -5.628031            5.602576             -0.976239
| 40>   H                      -6.191720            4.108695             -1.435763
| 41>   C                    : -6.154052            3.958405             3.975718
| 42>   O                    : -5.344385            3.991416             5.166101
| 43>   H                    : -4.464513            3.618490             4.895154
| 44>   H                    : -5.814235            4.644346             3.153076
| 45>   H                    : -6.268747            2.967762             3.478861
| 46>   H                    : -7.189835            4.229594             4.185290
| 47> *
| 48>
| 49> #Run DFT-D3 single point of the particle with dimer basis set
| 50> $new_job
| 51> %base "14-144_DFT_B"
| 52> ! wB97X-D3 def2-TZVP TIGHTSCF CHELPG PMODEL
| 53>
| 54> %scf
| 55> MaxIter 1000
| 56> end
| 57>
| 58> * xyz 0 1
| 59>   C                    : -6.355175            4.803348             -0.633554
| 60>   O                    : -6.165207            4.170899             0.606047
| 61>   H                    : -6.825564            3.483296             0.638373
| 62>   H                    : -7.380405            5.187809             -0.791474
| 63>   H                    : -5.628031            5.602576             -0.976239
| 64>   H                    : -6.191720            4.108695             -1.435763
| 65>   C                      -6.154052            3.958405             3.975718
| 66>   O                      -5.344385            3.991416             5.166101
| 67>   H                      -4.464513            3.618490             4.895154
| 68>   H                      -5.814235            4.644346             3.153076
| 69>   H                      -6.268747            2.967762             3.478861
| 70>   H                      -7.189835            4.229594             4.185290
| 71> *
| 72>
| 73>                          ****END OF INPUT****
 Total Charge           Charge          ....    0
 Multiplicity           Mult            ....    1
 Number of Electrons    NEL             ....   36
Dispersion correction           -0.001481917
FINAL SINGLE POINT ENERGY      -231.462913742046
Dispersion correction           -0.000243351
FINAL SINGLE POINT ENERGY      -115.728898385627

CARTESIAN COORDINATES (ANGSTROEM)
---------------------------------
  C     -6.355175    4.803348   -0.633554
  O     -6.165207    4.170899    0.606047
  H     -6.825564    3.483296    0.638373
  H     -7.380405    5.187809   -0.791474
  H     -5.628031    5.602576   -0.976239
  H     -6.191720    4.108695   -1.435763
  C     -6.154052    3.958405    3.975718
  O     -5.344385    3.991416    5.166101
  H     -4.464513    3.618490    4.895154
  H     -5.814235    4.644346    3.153076
  H     -6.268747    2.967762    3.478861
  H     -7.189835    4.229594    4.185290

 Multiplicity           Mult            ....    1
 Number of Electrons    NEL             ....   18
 Basis Dimension        Dim             ....  172

ORBITAL ENERGIES
----------------

  NO   OCC          E(Eh)            E(eV)
   0   2.0000     -19.240323      -523.5558
   1   2.0000     -10.320149      -280.8255
   2   2.0000      -1.126522       -30.6542
   3   2.0000      -0.792662       -21.5694
   4   2.0000      -0.604170       -16.4403
   5   2.0000      -0.531317       -14.4579
   6   2.0000      -0.522247       -14.2111
   7   2.0000      -0.438488       -11.9319
   8   2.0000      -0.376733       -10.2514
   9   0.0000       0.079781         2.1710
  10   0.0000       0.112749         3.0681
  11   0.0000       0.136422         3.7122
  12   0.0000       0.171978         4.6798
  13   0.0000       0.190052         5.1716

MULLIKEN ATOMIC CHARGES
-----------------------
   0 C :   -0.000956
   1 O :   -0.001083
   2 H :   -0.000238
   3 H :    0.000015
   4 H :    0.000017
   5 H :    0.000015
   6 C :   -0.182136
   7 O :   -0.468492
   8 H :    0.319019
   9 H :    0.105783
  10 H :    0.104463
  11 H :    0.123593
Sum of atomic charges:   -0.0000000

LOEWDIN ATOMIC CHARGES
----------------------
   0 C :   -0.000636
   1 O :   -0.005187
   2 H :   -0.001336
   3 H :   -0.000015
   4 H :   -0.000020
   5 H :   -0.000018
   6 C :   -0.387890
   7 O :   -0.102189
   8 H :    0.189270
   9 H :    0.101508
  10 H :    0.098670
  11 H :    0.107843

  Mayer bond orders larger than 0.1
B(  6-C ,  7-O ) :   1.0075 B(  6-C ,  9-H ) :   0.9718 B(  6-C , 10-H ) :   0.9701
B(  6-C , 11-H ) :   0.9713 B(  7-O ,  8-H ) :   0.8944

Dispersion correction           -0.000281575
FINAL SINGLE POINT ENERGY      -115.732538401300

DIPOLE MOMENT
-------------
                                X             Y             Z
Electronic contribution:      0.99325       0.11884       1.75403
Nuclear contribution   :     -0.79076      -0.36769      -2.37783
                        -----------------------------------------
Total Dipole Moment    :      0.20249      -0.24885      -0.62380
                        -----------------------------------------
Magnitude (a.u.)       :      0.70147
Magnitude (Debye)      :      1.78299

Rotational constants in cm-1:     4.282922     0.790650     0.763020
Rotational constants in MHz : 128398.783879 23703.078653 22874.769635

                             ****ORCA TERMINATED NORMALLY****
TOTAL RUN TIME: 0 days 0 hours 1 minutes 7 seconds 465 msec
