                         Program Version 4.1.2  - RELEASE  -
|  1> #Run DFT-D3 single point of the dimer
|  2> ! wB97X-D3 def2-TZVP TIGHTSCF CHELPG PMODEL PAL8
|  3>
|  4> %base "3-130_DFT_AB"
|  5>
|  6> %scf
|  7> MaxIter 1000
|  8> end
|  9>
| 10> * xyz 0 1
| 11>   C                      -5.125897            10.645962            -7.950531
| 12>   O                      -3.938590            11.012197            -8.624438
| 13>   H                      -4.199529            11.593696            -9.357696
| 14>   H                      -5.823865            11.454333            -7.798836
| 15>   H                      -5.709134            9.760700             -8.411397
| 16>   H                      -4.977675            10.337166            -6.942774
| 17>   C                      -0.095053            10.242255            -5.249569
| 18>   O                      -1.419047            9.698041             -5.402024
| 19>   H                      -1.682968            9.746200             -6.338132
| 20>   H                      0.608671             9.572277             -5.764208
| 21>   H                      0.091412             11.175991            -5.850730
| 22>   H                      0.241140             10.154033            -4.232929
| 23> *
| 24>
| 25> #Run DFT-D3 single point of the molecule with dimer basis set
| 26> $new_job
| 27> %base "3-130_DFT_A"
| 28> ! wB97X-D3 def2-TZVP TIGHTSCF CHELPG PMODEL
| 29>
| 30> %scf
| 31> MaxIter 1000
| 32> end
| 33>
| 34> * xyz 0 1
| 35>   C                      -5.125897            10.645962            -7.950531
| 36>   O                      -3.938590            11.012197            -8.624438
| 37>   H                      -4.199529            11.593696            -9.357696
| 38>   H                      -5.823865            11.454333            -7.798836
| 39>   H                      -5.709134            9.760700             -8.411397
| 40>   H                      -4.977675            10.337166            -6.942774
| 41>   C                    : -0.095053            10.242255            -5.249569
| 42>   O                    : -1.419047            9.698041             -5.402024
| 43>   H                    : -1.682968            9.746200             -6.338132
| 44>   H                    : 0.608671             9.572277             -5.764208
| 45>   H                    : 0.091412             11.175991            -5.850730
| 46>   H                    : 0.241140             10.154033            -4.232929
| 47> *
| 48>
| 49> #Run DFT-D3 single point of the particle with dimer basis set
| 50> $new_job
| 51> %base "3-130_DFT_B"
| 52> ! wB97X-D3 def2-TZVP TIGHTSCF CHELPG PMODEL
| 53>
| 54> %scf
| 55> MaxIter 1000
| 56> end
| 57>
| 58> * xyz 0 1
| 59>   C                    : -5.125897            10.645962            -7.950531
| 60>   O                    : -3.938590            11.012197            -8.624438
| 61>   H                    : -4.199529            11.593696            -9.357696
| 62>   H                    : -5.823865            11.454333            -7.798836
| 63>   H                    : -5.709134            9.760700             -8.411397
| 64>   H                    : -4.977675            10.337166            -6.942774
| 65>   C                      -0.095053            10.242255            -5.249569
| 66>   O                      -1.419047            9.698041             -5.402024
| 67>   H                      -1.682968            9.746200             -6.338132
| 68>   H                      0.608671             9.572277             -5.764208
| 69>   H                      0.091412             11.175991            -5.850730
| 70>   H                      0.241140             10.154033            -4.232929
| 71> *
| 72>
| 73>                          ****END OF INPUT****
 Total Charge           Charge          ....    0
 Multiplicity           Mult            ....    1
 Number of Electrons    NEL             ....   36
Dispersion correction           -0.000969851
FINAL SINGLE POINT ENERGY      -231.460776584946
Dispersion correction           -0.000269654
FINAL SINGLE POINT ENERGY      -115.731019847961

CARTESIAN COORDINATES (ANGSTROEM)
---------------------------------
  C     -5.125897   10.645962   -7.950531
  O     -3.938590   11.012197   -8.624438
  H     -4.199529   11.593696   -9.357696
  H     -5.823865   11.454333   -7.798836
  H     -5.709134    9.760700   -8.411397
  H     -4.977675   10.337166   -6.942774
  C     -0.095053   10.242255   -5.249569
  O     -1.419047    9.698041   -5.402024
  H     -1.682968    9.746200   -6.338132
  H      0.608671    9.572277   -5.764208
  H      0.091412   11.175991   -5.850730
  H      0.241140   10.154033   -4.232929

 Multiplicity           Mult            ....    1
 Number of Electrons    NEL             ....   18
 Basis Dimension        Dim             ....  172

ORBITAL ENERGIES
----------------

  NO   OCC          E(Eh)            E(eV)
   0   2.0000     -19.231142      -523.3060
   1   2.0000     -10.317854      -280.7631
   2   2.0000      -1.125209       -30.6185
   3   2.0000      -0.796699       -21.6793
   4   2.0000      -0.609035       -16.5727
   5   2.0000      -0.539363       -14.6768
   6   2.0000      -0.515642       -14.0313
   7   2.0000      -0.440764       -11.9938
   8   2.0000      -0.366392        -9.9700
   9   0.0000       0.078823         2.1449
  10   0.0000       0.116365         3.1664
  11   0.0000       0.148182         4.0322
  12   0.0000       0.163770         4.4564
  13   0.0000       0.194646         5.2966

MULLIKEN ATOMIC CHARGES
-----------------------
   0 C :    0.000039
   1 O :   -0.000031
   2 H :   -0.000004
   3 H :    0.000014
   4 H :   -0.000017
   5 H :   -0.000995
   6 C :   -0.175179
   7 O :   -0.480911
   8 H :    0.316446
   9 H :    0.100272
  10 H :    0.107211
  11 H :    0.133155
Sum of atomic charges:    0.0000000

LOEWDIN ATOMIC CHARGES
----------------------
   0 C :   -0.000408
   1 O :   -0.000228
   2 H :   -0.000011
   3 H :   -0.000002
   4 H :   -0.000005
   5 H :   -0.000405
   6 C :   -0.375635
   7 O :   -0.103431
   8 H :    0.174297
   9 H :    0.095114
  10 H :    0.103445
  11 H :    0.107269

  Mayer bond orders larger than 0.1
B(  6-C ,  7-O ) :   0.9945 B(  6-C ,  9-H ) :   0.9802 B(  6-C , 10-H ) :   0.9700
B(  6-C , 11-H ) :   0.9707 B(  7-O ,  8-H ) :   0.8955

Dispersion correction           -0.000253722
FINAL SINGLE POINT ENERGY      -115.727400457952

DIPOLE MOMENT
-------------
                                X             Y             Z
Electronic contribution:     -1.76998      -0.53904       0.14976
Nuclear contribution   :      2.17473       0.75299      -0.68899
                        -----------------------------------------
Total Dipole Moment    :      0.40475       0.21395      -0.53922
                        -----------------------------------------
Magnitude (a.u.)       :      0.70736
Magnitude (Debye)      :      1.79797

Rotational constants in cm-1:     4.261331     0.811845     0.766736
Rotational constants in MHz : 127751.484046 24338.515665 22986.162164

                             ****ORCA TERMINATED NORMALLY****
TOTAL RUN TIME: 0 days 0 hours 5 minutes 52 seconds 975 msec
