                         Program Version 4.1.2  - RELEASE  -
|  1> #Run DFT-D3 single point of the dimer
|  2> ! wB97X-D3 def2-TZVP TIGHTSCF CHELPG PMODEL PAL8
|  3>
|  4> %base "16-200_DFT_AB"
|  5>
|  6> %scf
|  7> MaxIter 1000
|  8> end
|  9>
| 10> * xyz 0 1
| 11>   C                      -6.561807            -7.762744            2.531762
| 12>   O                      -5.570586            -8.353018            3.380342
| 13>   H                      -4.834959            -7.737960            3.465775
| 14>   H                      -7.017339            -6.940221            3.027210
| 15>   H                      -6.086870            -7.384128            1.607420
| 16>   H                      -7.346640            -8.404786            2.215934
| 17>   C                      -3.049034            -8.473155            5.745034
| 18>   O                      -3.644718            -7.418662            4.987454
| 19>   H                      -3.461698            -6.651118            5.544937
| 20>   H                      -2.017854            -8.272830            6.063679
| 21>   H                      -3.662267            -8.739735            6.549976
| 22>   H                      -3.021005            -9.363992            5.108454
| 23> *
| 24>
| 25> #Run DFT-D3 single point of the molecule with dimer basis set
| 26> $new_job
| 27> %base "16-200_DFT_A"
| 28> ! wB97X-D3 def2-TZVP TIGHTSCF CHELPG PMODEL
| 29>
| 30> %scf
| 31> MaxIter 1000
| 32> end
| 33>
| 34> * xyz 0 1
| 35>   C                      -6.561807            -7.762744            2.531762
| 36>   O                      -5.570586            -8.353018            3.380342
| 37>   H                      -4.834959            -7.737960            3.465775
| 38>   H                      -7.017339            -6.940221            3.027210
| 39>   H                      -6.086870            -7.384128            1.607420
| 40>   H                      -7.346640            -8.404786            2.215934
| 41>   C                    : -3.049034            -8.473155            5.745034
| 42>   O                    : -3.644718            -7.418662            4.987454
| 43>   H                    : -3.461698            -6.651118            5.544937
| 44>   H                    : -2.017854            -8.272830            6.063679
| 45>   H                    : -3.662267            -8.739735            6.549976
| 46>   H                    : -3.021005            -9.363992            5.108454
| 47> *
| 48>
| 49> #Run DFT-D3 single point of the particle with dimer basis set
| 50> $new_job
| 51> %base "16-200_DFT_B"
| 52> ! wB97X-D3 def2-TZVP TIGHTSCF CHELPG PMODEL
| 53>
| 54> %scf
| 55> MaxIter 1000
| 56> end
| 57>
| 58> * xyz 0 1
| 59>   C                    : -6.561807            -7.762744            2.531762
| 60>   O                    : -5.570586            -8.353018            3.380342
| 61>   H                    : -4.834959            -7.737960            3.465775
| 62>   H                    : -7.017339            -6.940221            3.027210
| 63>   H                    : -6.086870            -7.384128            1.607420
| 64>   H                    : -7.346640            -8.404786            2.215934
| 65>   C                      -3.049034            -8.473155            5.745034
| 66>   O                      -3.644718            -7.418662            4.987454
| 67>   H                      -3.461698            -6.651118            5.544937
| 68>   H                      -2.017854            -8.272830            6.063679
| 69>   H                      -3.662267            -8.739735            6.549976
| 70>   H                      -3.021005            -9.363992            5.108454
| 71> *
| 72>
| 73>                          ****END OF INPUT****
 Total Charge           Charge          ....    0
 Multiplicity           Mult            ....    1
 Number of Electrons    NEL             ....   36
Dispersion correction           -0.001551258
FINAL SINGLE POINT ENERGY      -231.471842571118
Dispersion correction           -0.000238505
FINAL SINGLE POINT ENERGY      -115.733721649090

CARTESIAN COORDINATES (ANGSTROEM)
---------------------------------
  C     -6.561807   -7.762744    2.531762
  O     -5.570586   -8.353018    3.380342
  H     -4.834959   -7.737960    3.465775
  H     -7.017339   -6.940221    3.027210
  H     -6.086870   -7.384128    1.607420
  H     -7.346640   -8.404786    2.215934
  C     -3.049034   -8.473155    5.745034
  O     -3.644718   -7.418662    4.987454
  H     -3.461698   -6.651118    5.544937
  H     -2.017854   -8.272830    6.063679
  H     -3.662267   -8.739735    6.549976
  H     -3.021005   -9.363992    5.108454

 Multiplicity           Mult            ....    1
 Number of Electrons    NEL             ....   18
 Basis Dimension        Dim             ....  172

ORBITAL ENERGIES
----------------

  NO   OCC          E(Eh)            E(eV)
   0   2.0000     -19.232964      -523.3555
   1   2.0000     -10.308961      -280.5211
   2   2.0000      -1.134987       -30.8846
   3   2.0000      -0.797041       -21.6886
   4   2.0000      -0.606145       -16.4940
   5   2.0000      -0.549732       -14.9590
   6   2.0000      -0.521089       -14.1795
   7   2.0000      -0.440471       -11.9858
   8   2.0000      -0.377379       -10.2690
   9   0.0000       0.100373         2.7313
  10   0.0000       0.120522         3.2796
  11   0.0000       0.155030         4.2186
  12   0.0000       0.187240         5.0951
  13   0.0000       0.207389         5.6434

MULLIKEN ATOMIC CHARGES
-----------------------
   0 C :   -0.000055
   1 O :    0.001528
   2 H :   -0.010323
   3 H :   -0.000321
   4 H :   -0.000066
   5 H :   -0.000060
   6 C :   -0.168399
   7 O :   -0.459599
   8 H :    0.308410
   9 H :    0.103573
  10 H :    0.109021
  11 H :    0.116290
Sum of atomic charges:    0.0000000

LOEWDIN ATOMIC CHARGES
----------------------
   0 C :   -0.001260
   1 O :   -0.011136
   2 H :   -0.037595
   3 H :   -0.000144
   4 H :   -0.000018
   5 H :   -0.000025
   6 C :   -0.371619
   7 O :   -0.046040
   8 H :    0.172981
   9 H :    0.098114
  10 H :    0.086121
  11 H :    0.110622

  Mayer bond orders larger than 0.1
B(  6-C ,  7-O ) :   0.9904 B(  6-C ,  9-H ) :   0.9715 B(  6-C , 10-H ) :   0.9751
B(  6-C , 11-H ) :   0.9808 B(  7-O ,  8-H ) :   0.9033

Dispersion correction           -0.000227321
FINAL SINGLE POINT ENERGY      -115.734117420000

DIPOLE MOMENT
-------------
                                X             Y             Z
Electronic contribution:     -0.78981       1.29788      -0.99979
Nuclear contribution   :      1.13907      -1.25912       1.64909
                        -----------------------------------------
Total Dipole Moment    :      0.34926       0.03876       0.64930
                        -----------------------------------------
Magnitude (a.u.)       :      0.73829
Magnitude (Debye)      :      1.87659

Rotational constants in cm-1:     4.318300     0.827553     0.795893
Rotational constants in MHz : 129459.363914 24809.416543 23860.285260

                             ****ORCA TERMINATED NORMALLY****
TOTAL RUN TIME: 0 days 0 hours 1 minutes 0 seconds 13 msec
