                         Program Version 4.1.2  - RELEASE  -
|  1> #Run DFT-D3 single point of the dimer
|  2> ! wB97X-D3 def2-TZVP TIGHTSCF CHELPG PMODEL PAL8
|  3>
|  4> %base "11-150_DFT_AB"
|  5>
|  6> %scf
|  7> MaxIter 1000
|  8> end
|  9>
| 10> * xyz 0 1
| 11>   C                      7.333057             -2.430812            1.645789
| 12>   O                      8.150928             -3.348863            2.355897
| 13>   H                      7.901100             -4.245522            2.122352
| 14>   H                      7.599919             -2.293833            0.620857
| 15>   H                      6.249450             -2.648835            1.741102
| 16>   H                      7.518582             -1.423774            2.056502
| 17>   C                      8.791782             -0.730577            4.408944
| 18>   O                      9.268081             -2.081288            4.514631
| 19>   H                      8.682510             -2.631129            4.036008
| 20>   H                      8.956816             -0.301256            3.481077
| 21>   H                      7.728045             -0.609651            4.653355
| 22>   H                      9.286766             -0.091580            5.141704
| 23> *
| 24>
| 25> #Run DFT-D3 single point of the molecule with dimer basis set
| 26> $new_job
| 27> %base "11-150_DFT_A"
| 28> ! wB97X-D3 def2-TZVP TIGHTSCF CHELPG PMODEL
| 29>
| 30> %scf
| 31> MaxIter 1000
| 32> end
| 33>
| 34> * xyz 0 1
| 35>   C                      7.333057             -2.430812            1.645789
| 36>   O                      8.150928             -3.348863            2.355897
| 37>   H                      7.901100             -4.245522            2.122352
| 38>   H                      7.599919             -2.293833            0.620857
| 39>   H                      6.249450             -2.648835            1.741102
| 40>   H                      7.518582             -1.423774            2.056502
| 41>   C                    : 8.791782             -0.730577            4.408944
| 42>   O                    : 9.268081             -2.081288            4.514631
| 43>   H                    : 8.682510             -2.631129            4.036008
| 44>   H                    : 8.956816             -0.301256            3.481077
| 45>   H                    : 7.728045             -0.609651            4.653355
| 46>   H                    : 9.286766             -0.091580            5.141704
| 47> *
| 48>
| 49> #Run DFT-D3 single point of the particle with dimer basis set
| 50> $new_job
| 51> %base "11-150_DFT_B"
| 52> ! wB97X-D3 def2-TZVP TIGHTSCF CHELPG PMODEL
| 53>
| 54> %scf
| 55> MaxIter 1000
| 56> end
| 57>
| 58> * xyz 0 1
| 59>   C                    : 7.333057             -2.430812            1.645789
| 60>   O                    : 8.150928             -3.348863            2.355897
| 61>   H                    : 7.901100             -4.245522            2.122352
| 62>   H                    : 7.599919             -2.293833            0.620857
| 63>   H                    : 6.249450             -2.648835            1.741102
| 64>   H                    : 7.518582             -1.423774            2.056502
| 65>   C                      8.791782             -0.730577            4.408944
| 66>   O                      9.268081             -2.081288            4.514631
| 67>   H                      8.682510             -2.631129            4.036008
| 68>   H                      8.956816             -0.301256            3.481077
| 69>   H                      7.728045             -0.609651            4.653355
| 70>   H                      9.286766             -0.091580            5.141704
| 71> *
| 72>
| 73>                          ****END OF INPUT****
 Total Charge           Charge          ....    0
 Multiplicity           Mult            ....    1
 Number of Electrons    NEL             ....   36
Dispersion correction           -0.002187503
FINAL SINGLE POINT ENERGY      -231.474062737559
Dispersion correction           -0.000257415
FINAL SINGLE POINT ENERGY      -115.735692227165

CARTESIAN COORDINATES (ANGSTROEM)
---------------------------------
  C      7.333057   -2.430812    1.645789
  O      8.150928   -3.348863    2.355897
  H      7.901100   -4.245522    2.122352
  H      7.599919   -2.293833    0.620857
  H      6.249450   -2.648835    1.741102
  H      7.518582   -1.423774    2.056502
  C      8.791782   -0.730577    4.408944
  O      9.268081   -2.081288    4.514631
  H      8.682510   -2.631129    4.036008
  H      8.956816   -0.301256    3.481077
  H      7.728045   -0.609651    4.653355
  H      9.286766   -0.091580    5.141704

 Multiplicity           Mult            ....    1
 Number of Electrons    NEL             ....   18
 Basis Dimension        Dim             ....  172

ORBITAL ENERGIES
----------------

  NO   OCC          E(Eh)            E(eV)
   0   2.0000     -19.230541      -523.2896
   1   2.0000     -10.309166      -280.5267
   2   2.0000      -1.135301       -30.8931
   3   2.0000      -0.805445       -21.9173
   4   2.0000      -0.612472       -16.6662
   5   2.0000      -0.545782       -14.8515
   6   2.0000      -0.524007       -14.2590
   7   2.0000      -0.435949       -11.8628
   8   2.0000      -0.379571       -10.3286
   9   0.0000       0.072271         1.9666
  10   0.0000       0.138953         3.7811
  11   0.0000       0.145737         3.9657
  12   0.0000       0.178388         4.8542
  13   0.0000       0.183135         4.9833

MULLIKEN ATOMIC CHARGES
-----------------------
   0 C :   -0.002831
   1 O :   -0.006864
   2 H :   -0.000620
   3 H :    0.000022
   4 H :    0.000042
   5 H :   -0.000834
   6 C :   -0.181228
   7 O :   -0.463944
   8 H :    0.310711
   9 H :    0.116421
  10 H :    0.106217
  11 H :    0.122910
Sum of atomic charges:   -0.0000000

LOEWDIN ATOMIC CHARGES
----------------------
   0 C :   -0.008430
   1 O :   -0.023849
   2 H :   -0.001193
   3 H :   -0.000109
   4 H :   -0.000109
   5 H :   -0.006054
   6 C :   -0.356405
   7 O :   -0.059011
   8 H :    0.159771
   9 H :    0.085415
  10 H :    0.099736
  11 H :    0.110238

  Mayer bond orders larger than 0.1
B(  6-C ,  7-O ) :   1.0000 B(  6-C ,  9-H ) :   0.9727 B(  6-C , 10-H ) :   0.9803
B(  6-C , 11-H ) :   0.9754 B(  7-O ,  8-H ) :   0.9089

Dispersion correction           -0.000251423
FINAL SINGLE POINT ENERGY      -115.733576848863

DIPOLE MOMENT
-------------
                                X             Y             Z
Electronic contribution:      0.74771      -1.71027       0.12352
Nuclear contribution   :     -1.30943       1.93790      -0.46252
                        -----------------------------------------
Total Dipole Moment    :     -0.56171       0.22763      -0.33900
                        -----------------------------------------
Magnitude (a.u.)       :      0.69445
Magnitude (Debye)      :      1.76515

Rotational constants in cm-1:     4.562577     0.806580     0.780523
Rotational constants in MHz : 136782.610948 24180.664149 23399.489560

                             ****ORCA TERMINATED NORMALLY****
TOTAL RUN TIME: 0 days 0 hours 1 minutes 13 seconds 406 msec
