                         Program Version 4.1.2  - RELEASE  -
|  1> #Run DFT-D3 single point of the dimer
|  2> ! wB97X-D3 def2-TZVP TIGHTSCF CHELPG PMODEL PAL8
|  3>
|  4> %base "10-128_DFT_AB"
|  5>
|  6> %scf
|  7> MaxIter 1000
|  8> end
|  9>
| 10> * xyz 0 1
| 11>   C                      -4.428457            9.457185             6.975211
| 12>   O                      -3.977799            8.276667             7.423609
| 13>   H                      -3.298247            8.485323             8.074216
| 14>   H                      -3.876182            10.238919            7.490986
| 15>   H                      -4.354874            9.603095             5.907255
| 16>   H                      -5.539428            9.552613             7.158782
| 17>   C                      -3.238889            4.918494             7.898113
| 18>   O                      -4.165077            3.808282             7.721132
| 19>   H                      -4.247115            3.385438             8.589834
| 20>   H                      -3.174638            5.307419             8.953087
| 21>   H                      -2.318098            4.611922             7.595619
| 22>   H                      -3.522041            5.704634             7.272271
| 23> *
| 24>
| 25> #Run DFT-D3 single point of the molecule with dimer basis set
| 26> $new_job
| 27> %base "10-128_DFT_A"
| 28> ! wB97X-D3 def2-TZVP TIGHTSCF CHELPG PMODEL
| 29>
| 30> %scf
| 31> MaxIter 1000
| 32> end
| 33>
| 34> * xyz 0 1
| 35>   C                      -4.428457            9.457185             6.975211
| 36>   O                      -3.977799            8.276667             7.423609
| 37>   H                      -3.298247            8.485323             8.074216
| 38>   H                      -3.876182            10.238919            7.490986
| 39>   H                      -4.354874            9.603095             5.907255
| 40>   H                      -5.539428            9.552613             7.158782
| 41>   C                    : -3.238889            4.918494             7.898113
| 42>   O                    : -4.165077            3.808282             7.721132
| 43>   H                    : -4.247115            3.385438             8.589834
| 44>   H                    : -3.174638            5.307419             8.953087
| 45>   H                    : -2.318098            4.611922             7.595619
| 46>   H                    : -3.522041            5.704634             7.272271
| 47> *
| 48>
| 49> #Run DFT-D3 single point of the particle with dimer basis set
| 50> $new_job
| 51> %base "10-128_DFT_B"
| 52> ! wB97X-D3 def2-TZVP TIGHTSCF CHELPG PMODEL
| 53>
| 54> %scf
| 55> MaxIter 1000
| 56> end
| 57>
| 58> * xyz 0 1
| 59>   C                    : -4.428457            9.457185             6.975211
| 60>   O                    : -3.977799            8.276667             7.423609
| 61>   H                    : -3.298247            8.485323             8.074216
| 62>   H                    : -3.876182            10.238919            7.490986
| 63>   H                    : -4.354874            9.603095             5.907255
| 64>   H                    : -5.539428            9.552613             7.158782
| 65>   C                      -3.238889            4.918494             7.898113
| 66>   O                      -4.165077            3.808282             7.721132
| 67>   H                      -4.247115            3.385438             8.589834
| 68>   H                      -3.174638            5.307419             8.953087
| 69>   H                      -2.318098            4.611922             7.595619
| 70>   H                      -3.522041            5.704634             7.272271
| 71> *
| 72>
| 73>                          ****END OF INPUT****
 Total Charge           Charge          ....    0
 Multiplicity           Mult            ....    1
 Number of Electrons    NEL             ....   36
Dispersion correction           -0.001311573
FINAL SINGLE POINT ENERGY      -231.457619422343
Dispersion correction           -0.000217365
FINAL SINGLE POINT ENERGY      -115.728174178485

CARTESIAN COORDINATES (ANGSTROEM)
---------------------------------
  C     -4.428457    9.457185    6.975211
  O     -3.977799    8.276667    7.423609
  H     -3.298247    8.485323    8.074216
  H     -3.876182   10.238919    7.490986
  H     -4.354874    9.603095    5.907255
  H     -5.539428    9.552613    7.158782
  C     -3.238889    4.918494    7.898113
  O     -4.165077    3.808282    7.721132
  H     -4.247115    3.385438    8.589834
  H     -3.174638    5.307419    8.953087
  H     -2.318098    4.611922    7.595619
  H     -3.522041    5.704634    7.272271

 Multiplicity           Mult            ....    1
 Number of Electrons    NEL             ....   18
 Basis Dimension        Dim             ....  172

ORBITAL ENERGIES
----------------

  NO   OCC          E(Eh)            E(eV)
   0   2.0000     -19.228878      -523.2444
   1   2.0000     -10.305290      -280.4212
   2   2.0000      -1.121220       -30.5100
   3   2.0000      -0.804779       -21.8992
   4   2.0000      -0.599471       -16.3124
   5   2.0000      -0.546465       -14.8701
   6   2.0000      -0.523982       -14.2583
   7   2.0000      -0.439550       -11.9608
   8   2.0000      -0.374831       -10.1997
   9   0.0000       0.086105         2.3430
  10   0.0000       0.114663         3.1201
  11   0.0000       0.142991         3.8910
  12   0.0000       0.178116         4.8468
  13   0.0000       0.191750         5.2178

MULLIKEN ATOMIC CHARGES
-----------------------
   0 C :   -0.000517
   1 O :   -0.000668
   2 H :   -0.000305
   3 H :    0.000002
   4 H :    0.000005
   5 H :    0.000007
   6 C :   -0.165930
   7 O :   -0.482263
   8 H :    0.314361
   9 H :    0.101040
  10 H :    0.109682
  11 H :    0.124584
Sum of atomic charges:   -0.0000000

LOEWDIN ATOMIC CHARGES
----------------------
   0 C :   -0.000403
   1 O :   -0.004199
   2 H :   -0.001117
   3 H :   -0.000010
   4 H :   -0.000016
   5 H :   -0.000012
   6 C :   -0.338609
   7 O :   -0.110699
   8 H :    0.171155
   9 H :    0.106649
  10 H :    0.080173
  11 H :    0.097088

  Mayer bond orders larger than 0.1
B(  6-C ,  7-O ) :   1.0044 B(  6-C ,  9-H ) :   0.9819 B(  6-C , 10-H ) :   0.9767
B(  6-C , 11-H ) :   0.9777 B(  7-O ,  8-H ) :   0.9024

Dispersion correction           -0.000248258
FINAL SINGLE POINT ENERGY      -115.728594977542

DIPOLE MOMENT
-------------
                                X             Y             Z
Electronic contribution:     -1.12736      -1.31944      -0.39466
Nuclear contribution   :      1.47752       1.52735       1.00109
                        -----------------------------------------
Total Dipole Moment    :      0.35016       0.20792       0.60643
                        -----------------------------------------
Magnitude (a.u.)       :      0.73048
Magnitude (Debye)      :      1.85672

Rotational constants in cm-1:     4.447383     0.803415     0.767406
Rotational constants in MHz : 133329.197774 24085.770315 23006.261859

                             ****ORCA TERMINATED NORMALLY****
TOTAL RUN TIME: 0 days 0 hours 1 minutes 1 seconds 138 msec
