                         Program Version 4.1.2  - RELEASE  -
|  1> #Run DFT-D3 single point of the dimer
|  2> ! wB97X-D3 def2-TZVP TIGHTSCF CHELPG PMODEL PAL8
|  3>
|  4> %base "11-140_DFT_AB"
|  5>
|  6> %scf
|  7> MaxIter 1000
|  8> end
|  9>
| 10> * xyz 0 1
| 11>   C                      -10.729189           10.556752            -1.549944
| 12>   O                      -9.844536            9.442152             -1.851716
| 13>   H                      -10.201714           8.818743             -2.561734
| 14>   H                      -10.139782           11.504818            -1.443811
| 15>   H                      -11.550536           10.656616            -2.308718
| 16>   H                      -11.116407           10.345038            -0.564643
| 17>   C                      -9.735061            9.127532             1.902618
| 18>   O                      -10.575173           8.061149             2.117928
| 19>   H                      -11.392781           8.475786             2.329030
| 20>   H                      -9.380171            9.674551             2.818954
| 21>   H                      -8.769175            8.873702             1.422123
| 22>   H                      -10.173202           9.855522             1.233516
| 23> *
| 24>
| 25> #Run DFT-D3 single point of the molecule with dimer basis set
| 26> $new_job
| 27> %base "11-140_DFT_A"
| 28> ! wB97X-D3 def2-TZVP TIGHTSCF CHELPG PMODEL
| 29>
| 30> %scf
| 31> MaxIter 1000
| 32> end
| 33>
| 34> * xyz 0 1
| 35>   C                      -10.729189           10.556752            -1.549944
| 36>   O                      -9.844536            9.442152             -1.851716
| 37>   H                      -10.201714           8.818743             -2.561734
| 38>   H                      -10.139782           11.504818            -1.443811
| 39>   H                      -11.550536           10.656616            -2.308718
| 40>   H                      -11.116407           10.345038            -0.564643
| 41>   C                    : -9.735061            9.127532             1.902618
| 42>   O                    : -10.575173           8.061149             2.117928
| 43>   H                    : -11.392781           8.475786             2.329030
| 44>   H                    : -9.380171            9.674551             2.818954
| 45>   H                    : -8.769175            8.873702             1.422123
| 46>   H                    : -10.173202           9.855522             1.233516
| 47> *
| 48>
| 49> #Run DFT-D3 single point of the particle with dimer basis set
| 50> $new_job
| 51> %base "11-140_DFT_B"
| 52> ! wB97X-D3 def2-TZVP TIGHTSCF CHELPG PMODEL
| 53>
| 54> %scf
| 55> MaxIter 1000
| 56> end
| 57>
| 58> * xyz 0 1
| 59>   C                    : -10.729189           10.556752            -1.549944
| 60>   O                    : -9.844536            9.442152             -1.851716
| 61>   H                    : -10.201714           8.818743             -2.561734
| 62>   H                    : -10.139782           11.504818            -1.443811
| 63>   H                    : -11.550536           10.656616            -2.308718
| 64>   H                    : -11.116407           10.345038            -0.564643
| 65>   C                      -9.735061            9.127532             1.902618
| 66>   O                      -10.575173           8.061149             2.117928
| 67>   H                      -11.392781           8.475786             2.329030
| 68>   H                      -9.380171            9.674551             2.818954
| 69>   H                      -8.769175            8.873702             1.422123
| 70>   H                      -10.173202           9.855522             1.233516
| 71> *
| 72>
| 73>                          ****END OF INPUT****
 Total Charge           Charge          ....    0
 Multiplicity           Mult            ....    1
 Number of Electrons    NEL             ....   36
Dispersion correction           -0.001721418
FINAL SINGLE POINT ENERGY      -231.461321076925
Dispersion correction           -0.000276731
FINAL SINGLE POINT ENERGY      -115.729221598361

CARTESIAN COORDINATES (ANGSTROEM)
---------------------------------
  C    -10.729189   10.556752   -1.549944
  O     -9.844536    9.442152   -1.851716
  H    -10.201714    8.818743   -2.561734
  H    -10.139782   11.504818   -1.443811
  H    -11.550536   10.656616   -2.308718
  H    -11.116407   10.345038   -0.564643
  C     -9.735061    9.127532    1.902618
  O    -10.575173    8.061149    2.117928
  H    -11.392781    8.475786    2.329030
  H     -9.380171    9.674551    2.818954
  H     -8.769175    8.873702    1.422123
  H    -10.173202    9.855522    1.233516

 Multiplicity           Mult            ....    1
 Number of Electrons    NEL             ....   18
 Basis Dimension        Dim             ....  172

ORBITAL ENERGIES
----------------

  NO   OCC          E(Eh)            E(eV)
   0   2.0000     -19.235135      -523.4146
   1   2.0000     -10.313315      -280.6396
   2   2.0000      -1.159322       -31.5468
   3   2.0000      -0.793505       -21.5924
   4   2.0000      -0.622456       -16.9379
   5   2.0000      -0.546140       -14.8612
   6   2.0000      -0.533918       -14.5286
   7   2.0000      -0.432661       -11.7733
   8   2.0000      -0.375170       -10.2089
   9   0.0000       0.085007         2.3132
  10   0.0000       0.123126         3.3504
  11   0.0000       0.152073         4.1381
  12   0.0000       0.158454         4.3118
  13   0.0000       0.197280         5.3683

MULLIKEN ATOMIC CHARGES
-----------------------
   0 C :   -0.005619
   1 O :    0.000312
   2 H :   -0.000000
   3 H :    0.000237
   4 H :    0.000149
   5 H :    0.008586
   6 C :   -0.170989
   7 O :   -0.448273
   8 H :    0.316655
   9 H :    0.095621
  10 H :    0.113087
  11 H :    0.090234
Sum of atomic charges:   -0.0000000

LOEWDIN ATOMIC CHARGES
----------------------
   0 C :   -0.006536
   1 O :   -0.000381
   2 H :   -0.000023
   3 H :   -0.000284
   4 H :   -0.000055
   5 H :   -0.007053
   6 C :   -0.425322
   7 O :   -0.030625
   8 H :    0.166631
   9 H :    0.096540
  10 H :    0.110598
  11 H :    0.096511

  Mayer bond orders larger than 0.1
B(  6-C ,  7-O ) :   1.0100 B(  6-C ,  9-H ) :   0.9730 B(  6-C , 10-H ) :   0.9757
B(  6-C , 11-H ) :   0.9826 B(  7-O ,  8-H ) :   0.9018

Dispersion correction           -0.000231486
FINAL SINGLE POINT ENERGY      -115.731898725287

DIPOLE MOMENT
-------------
                                X             Y             Z
Electronic contribution:     -1.14734      -1.65671       0.27447
Nuclear contribution   :      0.93266       2.29307      -0.24353
                        -----------------------------------------
Total Dipole Moment    :     -0.21468       0.63637       0.03093
                        -----------------------------------------
Magnitude (a.u.)       :      0.67231
Magnitude (Debye)      :      1.70889

Rotational constants in cm-1:     4.405834     0.858172     0.830623
Rotational constants in MHz : 132083.591049 25727.339802 24901.444590

                             ****ORCA TERMINATED NORMALLY****
TOTAL RUN TIME: 0 days 0 hours 1 minutes 15 seconds 491 msec
