                         Program Version 4.1.2  - RELEASE  -
|  1> #Run DFT-D3 single point of the dimer
|  2> ! wB97X-D3 def2-TZVP TIGHTSCF CHELPG PMODEL PAL8
|  3>
|  4> %base "17-45_DFT_AB"
|  5>
|  6> %scf
|  7> MaxIter 1000
|  8> end
|  9>
| 10> * xyz 0 1
| 11>   C                      8.855435             2.500085             -1.398292
| 12>   O                      8.460156             1.355056             -0.672985
| 13>   H                      9.255421             1.118995             -0.121987
| 14>   H                      9.214119             3.364614             -0.741264
| 15>   H                      9.646805             2.202095             -2.062144
| 16>   H                      8.024161             2.826217             -2.019382
| 17>   C                      6.624628             -1.506065            -1.054187
| 18>   O                      6.957913             -0.603758            -2.205478
| 19>   H                      7.370634             0.127094             -1.750835
| 20>   H                      6.052537             -2.386081            -1.443311
| 21>   H                      7.530829             -1.759729            -0.486789
| 22>   H                      5.917033             -1.019523            -0.316188
| 23> *
| 24>
| 25> #Run DFT-D3 single point of the molecule with dimer basis set
| 26> $new_job
| 27> %base "17-45_DFT_A"
| 28> ! wB97X-D3 def2-TZVP TIGHTSCF CHELPG PMODEL
| 29>
| 30> %scf
| 31> MaxIter 1000
| 32> end
| 33>
| 34> * xyz 0 1
| 35>   C                      8.855435             2.500085             -1.398292
| 36>   O                      8.460156             1.355056             -0.672985
| 37>   H                      9.255421             1.118995             -0.121987
| 38>   H                      9.214119             3.364614             -0.741264
| 39>   H                      9.646805             2.202095             -2.062144
| 40>   H                      8.024161             2.826217             -2.019382
| 41>   C                    : 6.624628             -1.506065            -1.054187
| 42>   O                    : 6.957913             -0.603758            -2.205478
| 43>   H                    : 7.370634             0.127094             -1.750835
| 44>   H                    : 6.052537             -2.386081            -1.443311
| 45>   H                    : 7.530829             -1.759729            -0.486789
| 46>   H                    : 5.917033             -1.019523            -0.316188
| 47> *
| 48>
| 49> #Run DFT-D3 single point of the particle with dimer basis set
| 50> $new_job
| 51> %base "17-45_DFT_B"
| 52> ! wB97X-D3 def2-TZVP TIGHTSCF CHELPG PMODEL
| 53>
| 54> %scf
| 55> MaxIter 1000
| 56> end
| 57>
| 58> * xyz 0 1
| 59>   C                    : 8.855435             2.500085             -1.398292
| 60>   O                    : 8.460156             1.355056             -0.672985
| 61>   H                    : 9.255421             1.118995             -0.121987
| 62>   H                    : 9.214119             3.364614             -0.741264
| 63>   H                    : 9.646805             2.202095             -2.062144
| 64>   H                    : 8.024161             2.826217             -2.019382
| 65>   C                      6.624628             -1.506065            -1.054187
| 66>   O                      6.957913             -0.603758            -2.205478
| 67>   H                      7.370634             0.127094             -1.750835
| 68>   H                      6.052537             -2.386081            -1.443311
| 69>   H                      7.530829             -1.759729            -0.486789
| 70>   H                      5.917033             -1.019523            -0.316188
| 71> *
| 72>
| 73>                          ****END OF INPUT****
 Total Charge           Charge          ....    0
 Multiplicity           Mult            ....    1
 Number of Electrons    NEL             ....   36
Dispersion correction           -0.001809724
FINAL SINGLE POINT ENERGY      -231.471855699515
Dispersion correction           -0.000231603
FINAL SINGLE POINT ENERGY      -115.733816716765

CARTESIAN COORDINATES (ANGSTROEM)
---------------------------------
  C      8.855435    2.500085   -1.398292
  O      8.460156    1.355056   -0.672985
  H      9.255421    1.118995   -0.121987
  H      9.214119    3.364614   -0.741264
  H      9.646805    2.202095   -2.062144
  H      8.024161    2.826217   -2.019382
  C      6.624628   -1.506065   -1.054187
  O      6.957913   -0.603758   -2.205478
  H      7.370634    0.127094   -1.750835
  H      6.052537   -2.386081   -1.443311
  H      7.530829   -1.759729   -0.486789
  H      5.917033   -1.019523   -0.316188

 Multiplicity           Mult            ....    1
 Number of Electrons    NEL             ....   18
 Basis Dimension        Dim             ....  172

ORBITAL ENERGIES
----------------

  NO   OCC          E(Eh)            E(eV)
   0   2.0000     -19.233714      -523.3760
   1   2.0000     -10.328666      -281.0573
   2   2.0000      -1.118716       -30.4418
   3   2.0000      -0.792047       -21.5527
   4   2.0000      -0.596279       -16.2256
   5   2.0000      -0.533639       -14.5211
   6   2.0000      -0.509584       -13.8665
   7   2.0000      -0.448832       -12.2133
   8   2.0000      -0.377481       -10.2718
   9   0.0000       0.069963         1.9038
  10   0.0000       0.126602         3.4450
  11   0.0000       0.146746         3.9932
  12   0.0000       0.163959         4.4616
  13   0.0000       0.191894         5.2217

MULLIKEN ATOMIC CHARGES
-----------------------
   0 C :   -0.000902
   1 O :   -0.004184
   2 H :   -0.000120
   3 H :    0.000046
   4 H :   -0.000091
   5 H :   -0.000705
   6 C :   -0.202776
   7 O :   -0.469200
   8 H :    0.310903
   9 H :    0.134326
  10 H :    0.119997
  11 H :    0.112707
Sum of atomic charges:   -0.0000000

LOEWDIN ATOMIC CHARGES
----------------------
   0 C :   -0.004645
   1 O :   -0.018488
   2 H :   -0.000987
   3 H :   -0.000071
   4 H :   -0.000245
   5 H :   -0.000683
   6 C :   -0.340467
   7 O :   -0.118843
   8 H :    0.167848
   9 H :    0.115294
  10 H :    0.098351
  11 H :    0.102935

  Mayer bond orders larger than 0.1
B(  6-C ,  7-O ) :   0.9848 B(  6-C ,  9-H ) :   0.9717 B(  6-C , 10-H ) :   0.9691
B(  6-C , 11-H ) :   0.9711 B(  7-O ,  8-H ) :   0.9142

Dispersion correction           -0.000271520
FINAL SINGLE POINT ENERGY      -115.730208270267

DIPOLE MOMENT
-------------
                                X             Y             Z
Electronic contribution:      0.42031       0.93536      -1.56303
Nuclear contribution   :     -0.31669      -0.87584       2.32875
                        -----------------------------------------
Total Dipole Moment    :      0.10361       0.05952       0.76572
                        -----------------------------------------
Magnitude (a.u.)       :      0.77499
Magnitude (Debye)      :      1.96987

Rotational constants in cm-1:     4.087731     0.758981     0.728482
Rotational constants in MHz : 122547.106817 22753.684918 21839.349302

                             ****ORCA TERMINATED NORMALLY****
TOTAL RUN TIME: 0 days 0 hours 1 minutes 11 seconds 652 msec
