                         Program Version 4.1.2  - RELEASE  -
|  1> #Run DFT-D3 single point of the dimer
|  2> ! wB97X-D3 def2-TZVP TIGHTSCF CHELPG PMODEL PAL8
|  3>
|  4> %base "13-114_DFT_AB"
|  5>
|  6> %scf
|  7> MaxIter 1000
|  8> end
|  9>
| 10> * xyz 0 1
| 11>   C                      -6.030512            6.655904             1.816928
| 12>   O                      -5.728468            6.776601             3.218112
| 13>   H                      -4.798940            6.874311             3.255842
| 14>   H                      -7.104650            6.813739             1.601745
| 15>   H                      -5.444522            7.352368             1.185617
| 16>   H                      -5.877691            5.637061             1.551672
| 17>   C                      -4.955943            11.055564            -0.906676
| 18>   O                      -5.161071            10.746002            0.501768
| 19>   H                      -6.011560            10.392398            0.558272
| 20>   H                      -4.056468            10.651569            -1.359279
| 21>   H                      -5.868463            10.732974            -1.433788
| 22>   H                      -5.043970            12.151327            -1.097442
| 23> *
| 24>
| 25> #Run DFT-D3 single point of the molecule with dimer basis set
| 26> $new_job
| 27> %base "13-114_DFT_A"
| 28> ! wB97X-D3 def2-TZVP TIGHTSCF CHELPG PMODEL
| 29>
| 30> %scf
| 31> MaxIter 1000
| 32> end
| 33>
| 34> * xyz 0 1
| 35>   C                      -6.030512            6.655904             1.816928
| 36>   O                      -5.728468            6.776601             3.218112
| 37>   H                      -4.798940            6.874311             3.255842
| 38>   H                      -7.104650            6.813739             1.601745
| 39>   H                      -5.444522            7.352368             1.185617
| 40>   H                      -5.877691            5.637061             1.551672
| 41>   C                    : -4.955943            11.055564            -0.906676
| 42>   O                    : -5.161071            10.746002            0.501768
| 43>   H                    : -6.011560            10.392398            0.558272
| 44>   H                    : -4.056468            10.651569            -1.359279
| 45>   H                    : -5.868463            10.732974            -1.433788
| 46>   H                    : -5.043970            12.151327            -1.097442
| 47> *
| 48>
| 49> #Run DFT-D3 single point of the particle with dimer basis set
| 50> $new_job
| 51> %base "13-114_DFT_B"
| 52> ! wB97X-D3 def2-TZVP TIGHTSCF CHELPG PMODEL
| 53>
| 54> %scf
| 55> MaxIter 1000
| 56> end
| 57>
| 58> * xyz 0 1
| 59>   C                    : -6.030512            6.655904             1.816928
| 60>   O                    : -5.728468            6.776601             3.218112
| 61>   H                    : -4.798940            6.874311             3.255842
| 62>   H                    : -7.104650            6.813739             1.601745
| 63>   H                    : -5.444522            7.352368             1.185617
| 64>   H                    : -5.877691            5.637061             1.551672
| 65>   C                      -4.955943            11.055564            -0.906676
| 66>   O                      -5.161071            10.746002            0.501768
| 67>   H                      -6.011560            10.392398            0.558272
| 68>   H                      -4.056468            10.651569            -1.359279
| 69>   H                      -5.868463            10.732974            -1.433788
| 70>   H                      -5.043970            12.151327            -1.097442
| 71> *
| 72>
| 73>                          ****END OF INPUT****
 Total Charge           Charge          ....    0
 Multiplicity           Mult            ....    1
 Number of Electrons    NEL             ....   36
Dispersion correction           -0.000990855
FINAL SINGLE POINT ENERGY      -231.462331426658
Dispersion correction           -0.000238998
FINAL SINGLE POINT ENERGY      -115.732938638141

CARTESIAN COORDINATES (ANGSTROEM)
---------------------------------
  C     -6.030512    6.655904    1.816928
  O     -5.728468    6.776601    3.218112
  H     -4.798940    6.874311    3.255842
  H     -7.104650    6.813739    1.601745
  H     -5.444522    7.352368    1.185617
  H     -5.877691    5.637061    1.551672
  C     -4.955943   11.055564   -0.906676
  O     -5.161071   10.746002    0.501768
  H     -6.011560   10.392398    0.558272
  H     -4.056468   10.651569   -1.359279
  H     -5.868463   10.732974   -1.433788
  H     -5.043970   12.151327   -1.097442

 Multiplicity           Mult            ....    1
 Number of Electrons    NEL             ....   18
 Basis Dimension        Dim             ....  172

ORBITAL ENERGIES
----------------

  NO   OCC          E(Eh)            E(eV)
   0   2.0000     -19.228537      -523.2351
   1   2.0000     -10.320989      -280.8484
   2   2.0000      -1.134365       -30.8676
   3   2.0000      -0.798879       -21.7386
   4   2.0000      -0.609723       -16.5914
   5   2.0000      -0.543477       -14.7888
   6   2.0000      -0.521557       -14.1923
   7   2.0000      -0.434653       -11.8275
   8   2.0000      -0.377861       -10.2821
   9   0.0000       0.085093         2.3155
  10   0.0000       0.118724         3.2306
  11   0.0000       0.149934         4.0799
  12   0.0000       0.169259         4.6058
  13   0.0000       0.188380         5.1261

MULLIKEN ATOMIC CHARGES
-----------------------
   0 C :    0.002433
   1 O :   -0.000018
   2 H :   -0.000064
   3 H :   -0.000036
   4 H :   -0.006394
   5 H :   -0.000241
   6 C :   -0.182810
   7 O :   -0.465834
   8 H :    0.310552
   9 H :    0.126366
  10 H :    0.105887
  11 H :    0.110159
Sum of atomic charges:   -0.0000000

LOEWDIN ATOMIC CHARGES
----------------------
   0 C :   -0.000773
   1 O :   -0.000010
   2 H :   -0.000016
   3 H :   -0.000030
   4 H :   -0.002485
   5 H :   -0.000015
   6 C :   -0.356767
   7 O :   -0.087475
   8 H :    0.141911
   9 H :    0.100883
  10 H :    0.100808
  11 H :    0.103968

  Mayer bond orders larger than 0.1
B(  6-C ,  7-O ) :   1.0038 B(  6-C ,  9-H ) :   0.9689 B(  6-C , 10-H ) :   0.9920
B(  6-C , 11-H ) :   0.9706 B(  7-O ,  8-H ) :   0.9096

Dispersion correction           -0.000258377
FINAL SINGLE POINT ENERGY      -115.728450669672

DIPOLE MOMENT
-------------
                                X             Y             Z
Electronic contribution:      0.07044      -0.43042       1.81910
Nuclear contribution   :     -0.56524       0.33679      -2.38732
                        -----------------------------------------
Total Dipole Moment    :     -0.49480      -0.09363      -0.56822
                        -----------------------------------------
Magnitude (a.u.)       :      0.75926
Magnitude (Debye)      :      1.92988

Rotational constants in cm-1:     4.331195     0.792043     0.765780
Rotational constants in MHz : 129845.945589 23744.851016 22957.492133

                             ****ORCA TERMINATED NORMALLY****
TOTAL RUN TIME: 0 days 0 hours 0 minutes 58 seconds 271 msec
