                         Program Version 4.1.2  - RELEASE  -
|  1> #Run DFT-D3 single point of the dimer
|  2> ! wB97X-D3 def2-TZVP TIGHTSCF CHELPG PMODEL PAL8
|  3>
|  4> %base "8-74_DFT_AB"
|  5>
|  6> %scf
|  7> MaxIter 1000
|  8> end
|  9>
| 10> * xyz 0 1
| 11>   C                      3.247449             0.489047             6.955197
| 12>   O                      3.339960             1.502602             5.982111
| 13>   H                      2.459960             1.640455             5.585835
| 14>   H                      2.534463             0.868375             7.717436
| 15>   H                      2.934831             -0.454493            6.529917
| 16>   H                      4.259433             0.461948             7.314150
| 17>   C                      0.794844             5.585761             5.034224
| 18>   O                      0.764898             4.962424             3.767976
| 19>   H                      1.396828             4.241649             3.749836
| 20>   H                      0.183799             6.494684             4.973592
| 21>   H                      0.403332             4.896322             5.844179
| 22>   H                      1.791000             5.834054             5.307899
| 23> *
| 24>
| 25> #Run DFT-D3 single point of the molecule with dimer basis set
| 26> $new_job
| 27> %base "8-74_DFT_A"
| 28> ! wB97X-D3 def2-TZVP TIGHTSCF CHELPG PMODEL
| 29>
| 30> %scf
| 31> MaxIter 1000
| 32> end
| 33>
| 34> * xyz 0 1
| 35>   C                      3.247449             0.489047             6.955197
| 36>   O                      3.339960             1.502602             5.982111
| 37>   H                      2.459960             1.640455             5.585835
| 38>   H                      2.534463             0.868375             7.717436
| 39>   H                      2.934831             -0.454493            6.529917
| 40>   H                      4.259433             0.461948             7.314150
| 41>   C                    : 0.794844             5.585761             5.034224
| 42>   O                    : 0.764898             4.962424             3.767976
| 43>   H                    : 1.396828             4.241649             3.749836
| 44>   H                    : 0.183799             6.494684             4.973592
| 45>   H                    : 0.403332             4.896322             5.844179
| 46>   H                    : 1.791000             5.834054             5.307899
| 47> *
| 48>
| 49> #Run DFT-D3 single point of the particle with dimer basis set
| 50> $new_job
| 51> %base "8-74_DFT_B"
| 52> ! wB97X-D3 def2-TZVP TIGHTSCF CHELPG PMODEL
| 53>
| 54> %scf
| 55> MaxIter 1000
| 56> end
| 57>
| 58> * xyz 0 1
| 59>   C                    : 3.247449             0.489047             6.955197
| 60>   O                    : 3.339960             1.502602             5.982111
| 61>   H                    : 2.459960             1.640455             5.585835
| 62>   H                    : 2.534463             0.868375             7.717436
| 63>   H                    : 2.934831             -0.454493            6.529917
| 64>   H                    : 4.259433             0.461948             7.314150
| 65>   C                      0.794844             5.585761             5.034224
| 66>   O                      0.764898             4.962424             3.767976
| 67>   H                      1.396828             4.241649             3.749836
| 68>   H                      0.183799             6.494684             4.973592
| 69>   H                      0.403332             4.896322             5.844179
| 70>   H                      1.791000             5.834054             5.307899
| 71> *
| 72>
| 73>                          ****END OF INPUT****
 Total Charge           Charge          ....    0
 Multiplicity           Mult            ....    1
 Number of Electrons    NEL             ....   36
Dispersion correction           -0.000796635
FINAL SINGLE POINT ENERGY      -231.469557223461
Dispersion correction           -0.000215506
FINAL SINGLE POINT ENERGY      -115.733531635341

CARTESIAN COORDINATES (ANGSTROEM)
---------------------------------
  C      3.247449    0.489047    6.955197
  O      3.339960    1.502602    5.982111
  H      2.459960    1.640455    5.585835
  H      2.534463    0.868375    7.717436
  H      2.934831   -0.454493    6.529917
  H      4.259433    0.461948    7.314150
  C      0.794844    5.585761    5.034224
  O      0.764898    4.962424    3.767976
  H      1.396828    4.241649    3.749836
  H      0.183799    6.494684    4.973592
  H      0.403332    4.896322    5.844179
  H      1.791000    5.834054    5.307899

 Multiplicity           Mult            ....    1
 Number of Electrons    NEL             ....   18
 Basis Dimension        Dim             ....  172

ORBITAL ENERGIES
----------------

  NO   OCC          E(Eh)            E(eV)
   0   2.0000     -19.228054      -523.2219
   1   2.0000     -10.313883      -280.6550
   2   2.0000      -1.135664       -30.9030
   3   2.0000      -0.794692       -21.6247
   4   2.0000      -0.613323       -16.6894
   5   2.0000      -0.537565       -14.6279
   6   2.0000      -0.528047       -14.3689
   7   2.0000      -0.434658       -11.8276
   8   2.0000      -0.371184       -10.1004
   9   0.0000       0.076416         2.0794
  10   0.0000       0.111130         3.0240
  11   0.0000       0.155009         4.2180
  12   0.0000       0.177586         4.8324
  13   0.0000       0.190064         5.1719

MULLIKEN ATOMIC CHARGES
-----------------------
   0 C :    0.000010
   1 O :    0.000037
   2 H :   -0.000419
   3 H :   -0.000000
   4 H :   -0.000003
   5 H :   -0.000000
   6 C :   -0.150775
   7 O :   -0.478253
   8 H :    0.313223
   9 H :    0.120673
  10 H :    0.094622
  11 H :    0.100884
Sum of atomic charges:   -0.0000000

LOEWDIN ATOMIC CHARGES
----------------------
   0 C :   -0.000018
   1 O :   -0.000020
   2 H :   -0.000411
   3 H :   -0.000004
   4 H :   -0.000000
   5 H :   -0.000001
   6 C :   -0.384377
   7 O :   -0.077294
   8 H :    0.165752
   9 H :    0.110585
  10 H :    0.099748
  11 H :    0.086041

  Mayer bond orders larger than 0.1
B(  6-C ,  7-O ) :   0.9962 B(  6-C ,  9-H ) :   0.9735 B(  6-C , 10-H ) :   0.9734
B(  6-C , 11-H ) :   0.9790 B(  7-O ,  8-H ) :   0.9000

Dispersion correction           -0.000236896
FINAL SINGLE POINT ENERGY      -115.735732470182

DIPOLE MOMENT
-------------
                                X             Y             Z
Electronic contribution:     -0.10894      -0.63874      -1.66683
Nuclear contribution   :      0.54406       0.44509       2.14904
                        -----------------------------------------
Total Dipole Moment    :      0.43513      -0.19365       0.48221
                        -----------------------------------------
Magnitude (a.u.)       :      0.67776
Magnitude (Debye)      :      1.72273

Rotational constants in cm-1:     4.247894     0.836269     0.803340
Rotational constants in MHz : 127348.653263 25070.710966 24083.531698

                             ****ORCA TERMINATED NORMALLY****
TOTAL RUN TIME: 0 days 0 hours 0 minutes 42 seconds 441 msec
