                         Program Version 4.1.2  - RELEASE  -
|  1> #Run DFT-D3 single point of the dimer
|  2> ! wB97X-D3 def2-TZVP TIGHTSCF CHELPG PMODEL PAL8
|  3>
|  4> %base "14-162_DFT_AB"
|  5>
|  6> %scf
|  7> MaxIter 1000
|  8> end
|  9>
| 10> * xyz 0 1
| 11>   C                      -6.678726            -10.508083           10.082047
| 12>   O                      -5.594755            -9.927584            9.249934
| 13>   H                      -5.655148            -8.966661            9.443922
| 14>   H                      -7.680052            -9.990854            9.812203
| 15>   H                      -6.735201            -11.601682           9.835282
| 16>   H                      -6.498753            -10.459057           11.188666
| 17>   C                      -2.185974            -9.409362            10.896659
| 18>   O                      -3.266446            -10.182230           11.166983
| 19>   H                      -3.801208            -10.358974           10.388376
| 20>   H                      -1.459369            -9.911706            10.134295
| 21>   H                      -2.463262            -8.451438            10.484721
| 22>   H                      -1.553458            -9.216724            11.785760
| 23> *
| 24>
| 25> #Run DFT-D3 single point of the molecule with dimer basis set
| 26> $new_job
| 27> %base "14-162_DFT_A"
| 28> ! wB97X-D3 def2-TZVP TIGHTSCF CHELPG PMODEL
| 29>
| 30> %scf
| 31> MaxIter 1000
| 32> end
| 33>
| 34> * xyz 0 1
| 35>   C                      -6.678726            -10.508083           10.082047
| 36>   O                      -5.594755            -9.927584            9.249934
| 37>   H                      -5.655148            -8.966661            9.443922
| 38>   H                      -7.680052            -9.990854            9.812203
| 39>   H                      -6.735201            -11.601682           9.835282
| 40>   H                      -6.498753            -10.459057           11.188666
| 41>   C                    : -2.185974            -9.409362            10.896659
| 42>   O                    : -3.266446            -10.182230           11.166983
| 43>   H                    : -3.801208            -10.358974           10.388376
| 44>   H                    : -1.459369            -9.911706            10.134295
| 45>   H                    : -2.463262            -8.451438            10.484721
| 46>   H                    : -1.553458            -9.216724            11.785760
| 47> *
| 48>
| 49> #Run DFT-D3 single point of the particle with dimer basis set
| 50> $new_job
| 51> %base "14-162_DFT_B"
| 52> ! wB97X-D3 def2-TZVP TIGHTSCF CHELPG PMODEL
| 53>
| 54> %scf
| 55> MaxIter 1000
| 56> end
| 57>
| 58> * xyz 0 1
| 59>   C                    : -6.678726            -10.508083           10.082047
| 60>   O                    : -5.594755            -9.927584            9.249934
| 61>   H                    : -5.655148            -8.966661            9.443922
| 62>   H                    : -7.680052            -9.990854            9.812203
| 63>   H                    : -6.735201            -11.601682           9.835282
| 64>   H                    : -6.498753            -10.459057           11.188666
| 65>   C                      -2.185974            -9.409362            10.896659
| 66>   O                      -3.266446            -10.182230           11.166983
| 67>   H                      -3.801208            -10.358974           10.388376
| 68>   H                      -1.459369            -9.911706            10.134295
| 69>   H                      -2.463262            -8.451438            10.484721
| 70>   H                      -1.553458            -9.216724            11.785760
| 71> *
| 72>
| 73>                          ****END OF INPUT****
 Total Charge           Charge          ....    0
 Multiplicity           Mult            ....    1
 Number of Electrons    NEL             ....   36
Dispersion correction           -0.001781594
FINAL SINGLE POINT ENERGY      -231.470618167050
Dispersion correction           -0.000284771
FINAL SINGLE POINT ENERGY      -115.730146685816

CARTESIAN COORDINATES (ANGSTROEM)
---------------------------------
  C     -6.678726  -10.508083   10.082047
  O     -5.594755   -9.927584    9.249934
  H     -5.655148   -8.966661    9.443922
  H     -7.680052   -9.990854    9.812203
  H     -6.735201  -11.601682    9.835282
  H     -6.498753  -10.459057   11.188666
  C     -2.185974   -9.409362   10.896659
  O     -3.266446  -10.182230   11.166983
  H     -3.801208  -10.358974   10.388376
  H     -1.459369   -9.911706   10.134295
  H     -2.463262   -8.451438   10.484721
  H     -1.553458   -9.216724   11.785760

 Multiplicity           Mult            ....    1
 Number of Electrons    NEL             ....   18
 Basis Dimension        Dim             ....  172

ORBITAL ENERGIES
----------------

  NO   OCC          E(Eh)            E(eV)
   0   2.0000     -19.232512      -523.3433
   1   2.0000     -10.316579      -280.7284
   2   2.0000      -1.154743       -31.4221
   3   2.0000      -0.792666       -21.5695
   4   2.0000      -0.623319       -16.9614
   5   2.0000      -0.544961       -14.8291
   6   2.0000      -0.536109       -14.5883
   7   2.0000      -0.422774       -11.5043
   8   2.0000      -0.369758       -10.0616
   9   0.0000       0.074913         2.0385
  10   0.0000       0.128594         3.4992
  11   0.0000       0.155606         4.2343
  12   0.0000       0.163695         4.4544
  13   0.0000       0.196040         5.3345

MULLIKEN ATOMIC CHARGES
-----------------------
   0 C :    0.000087
   1 O :   -0.003173
   2 H :   -0.001251
   3 H :    0.000041
   4 H :   -0.000001
   5 H :   -0.002243
   6 C :   -0.155811
   7 O :   -0.459258
   8 H :    0.321947
   9 H :    0.084450
  10 H :    0.096038
  11 H :    0.119173
Sum of atomic charges:    0.0000000

LOEWDIN ATOMIC CHARGES
----------------------
   0 C :   -0.004594
   1 O :   -0.010896
   2 H :   -0.002053
   3 H :   -0.000036
   4 H :   -0.000108
   5 H :   -0.001618
   6 C :   -0.436512
   7 O :   -0.021957
   8 H :    0.179815
   9 H :    0.099396
  10 H :    0.087231
  11 H :    0.111332

  Mayer bond orders larger than 0.1
B(  6-C ,  7-O ) :   1.0114 B(  6-C ,  9-H ) :   0.9814 B(  6-C , 10-H ) :   0.9735
B(  6-C , 11-H ) :   0.9690 B(  7-O ,  8-H ) :   0.8910

Dispersion correction           -0.000240854
FINAL SINGLE POINT ENERGY      -115.732288832586

DIPOLE MOMENT
-------------
                                X             Y             Z
Electronic contribution:     -1.54369      -1.01230       0.58584
Nuclear contribution   :      1.57936       1.19542      -1.15491
                        -----------------------------------------
Total Dipole Moment    :      0.03567       0.18312      -0.56907
                        -----------------------------------------
Magnitude (a.u.)       :      0.59887
Magnitude (Debye)      :      1.52220

Rotational constants in cm-1:     4.285926     0.869649     0.841613
Rotational constants in MHz : 128488.819091 26071.413897 25230.921586

                             ****ORCA TERMINATED NORMALLY****
TOTAL RUN TIME: 0 days 0 hours 1 minutes 11 seconds 180 msec
