                         Program Version 4.1.2  - RELEASE  -
|  1> #Run DFT-D3 single point of the dimer
|  2> ! wB97X-D3 def2-TZVP TIGHTSCF CHELPG PMODEL PAL8
|  3>
|  4> %base "11-156_DFT_AB"
|  5>
|  6> %scf
|  7> MaxIter 1000
|  8> end
|  9>
| 10> * xyz 0 1
| 11>   C                      2.217427             1.697166             7.318958
| 12>   O                      2.613277             1.466111             6.043018
| 13>   H                      3.481657             1.800172             5.873773
| 14>   H                      1.260983             2.194355             7.328991
| 15>   H                      2.080021             0.874350             8.033211
| 16>   H                      2.938580             2.440001             7.769617
| 17>   C                      4.792369             0.571363             3.312256
| 18>   O                      3.515209             0.017435             3.646522
| 19>   H                      3.176999             0.545181             4.362859
| 20>   H                      5.264465             0.028426             2.422268
| 21>   H                      4.669559             1.644234             3.040355
| 22>   H                      5.458441             0.527110             4.125057
| 23> *
| 24>
| 25> #Run DFT-D3 single point of the molecule with dimer basis set
| 26> $new_job
| 27> %base "11-156_DFT_A"
| 28> ! wB97X-D3 def2-TZVP TIGHTSCF CHELPG PMODEL
| 29>
| 30> %scf
| 31> MaxIter 1000
| 32> end
| 33>
| 34> * xyz 0 1
| 35>   C                      2.217427             1.697166             7.318958
| 36>   O                      2.613277             1.466111             6.043018
| 37>   H                      3.481657             1.800172             5.873773
| 38>   H                      1.260983             2.194355             7.328991
| 39>   H                      2.080021             0.874350             8.033211
| 40>   H                      2.938580             2.440001             7.769617
| 41>   C                    : 4.792369             0.571363             3.312256
| 42>   O                    : 3.515209             0.017435             3.646522
| 43>   H                    : 3.176999             0.545181             4.362859
| 44>   H                    : 5.264465             0.028426             2.422268
| 45>   H                    : 4.669559             1.644234             3.040355
| 46>   H                    : 5.458441             0.527110             4.125057
| 47> *
| 48>
| 49> #Run DFT-D3 single point of the particle with dimer basis set
| 50> $new_job
| 51> %base "11-156_DFT_B"
| 52> ! wB97X-D3 def2-TZVP TIGHTSCF CHELPG PMODEL
| 53>
| 54> %scf
| 55> MaxIter 1000
| 56> end
| 57>
| 58> * xyz 0 1
| 59>   C                    : 2.217427             1.697166             7.318958
| 60>   O                    : 2.613277             1.466111             6.043018
| 61>   H                    : 3.481657             1.800172             5.873773
| 62>   H                    : 1.260983             2.194355             7.328991
| 63>   H                    : 2.080021             0.874350             8.033211
| 64>   H                    : 2.938580             2.440001             7.769617
| 65>   C                      4.792369             0.571363             3.312256
| 66>   O                      3.515209             0.017435             3.646522
| 67>   H                      3.176999             0.545181             4.362859
| 68>   H                      5.264465             0.028426             2.422268
| 69>   H                      4.669559             1.644234             3.040355
| 70>   H                      5.458441             0.527110             4.125057
| 71> *
| 72>
| 73>                          ****END OF INPUT****
 Total Charge           Charge          ....    0
 Multiplicity           Mult            ....    1
 Number of Electrons    NEL             ....   36
Dispersion correction           -0.001592064
FINAL SINGLE POINT ENERGY      -231.464776665404
Dispersion correction           -0.000239577
FINAL SINGLE POINT ENERGY      -115.728810832518

CARTESIAN COORDINATES (ANGSTROEM)
---------------------------------
  C      2.217427    1.697166    7.318958
  O      2.613277    1.466111    6.043018
  H      3.481657    1.800172    5.873773
  H      1.260983    2.194355    7.328991
  H      2.080021    0.874350    8.033211
  H      2.938580    2.440001    7.769617
  C      4.792369    0.571363    3.312256
  O      3.515209    0.017435    3.646522
  H      3.176999    0.545181    4.362859
  H      5.264465    0.028426    2.422268
  H      4.669559    1.644234    3.040355
  H      5.458441    0.527110    4.125057

 Multiplicity           Mult            ....    1
 Number of Electrons    NEL             ....   18
 Basis Dimension        Dim             ....  172

ORBITAL ENERGIES
----------------

  NO   OCC          E(Eh)            E(eV)
   0   2.0000     -19.230030      -523.2757
   1   2.0000     -10.317560      -280.7551
   2   2.0000      -1.133928       -30.8557
   3   2.0000      -0.794005       -21.6060
   4   2.0000      -0.609155       -16.5760
   5   2.0000      -0.541739       -14.7415
   6   2.0000      -0.522297       -14.2124
   7   2.0000      -0.435980       -11.8636
   8   2.0000      -0.374550       -10.1920
   9   0.0000       0.072351         1.9688
  10   0.0000       0.123511         3.3609
  11   0.0000       0.150011         4.0820
  12   0.0000       0.183107         4.9826
  13   0.0000       0.194687         5.2977

MULLIKEN ATOMIC CHARGES
-----------------------
   0 C :   -0.001149
   1 O :   -0.004529
   2 H :   -0.000827
   3 H :    0.000052
   4 H :    0.000024
   5 H :    0.000044
   6 C :   -0.173641
   7 O :   -0.471353
   8 H :    0.315336
   9 H :    0.122352
  10 H :    0.101934
  11 H :    0.111758
Sum of atomic charges:    0.0000000

LOEWDIN ATOMIC CHARGES
----------------------
   0 C :   -0.001097
   1 O :   -0.017290
   2 H :   -0.005447
   3 H :   -0.000036
   4 H :   -0.000032
   5 H :   -0.000022
   6 C :   -0.373229
   7 O :   -0.076508
   8 H :    0.170632
   9 H :    0.119686
  10 H :    0.098966
  11 H :    0.084377

  Mayer bond orders larger than 0.1
B(  6-C ,  7-O ) :   0.9850 B(  6-C ,  9-H ) :   0.9716 B(  6-C , 10-H ) :   0.9808
B(  6-C , 11-H ) :   0.9733 B(  7-O ,  8-H ) :   0.9065

Dispersion correction           -0.000237705
FINAL SINGLE POINT ENERGY      -115.733501618468

DIPOLE MOMENT
-------------
                                X             Y             Z
Electronic contribution:     -1.57742      -0.85693       0.37470
Nuclear contribution   :      1.89185       1.41047      -0.04886
                        -----------------------------------------
Total Dipole Moment    :      0.31443       0.55353       0.32584
                        -----------------------------------------
Magnitude (a.u.)       :      0.71515
Magnitude (Debye)      :      1.81776

Rotational constants in cm-1:     4.234607     0.817754     0.782957
Rotational constants in MHz : 126950.317264 24515.661607 23472.462555

                             ****ORCA TERMINATED NORMALLY****
TOTAL RUN TIME: 0 days 0 hours 1 minutes 5 seconds 6 msec
