                         Program Version 4.1.2  - RELEASE  -
|  1> #Run DFT-D3 single point of the dimer
|  2> ! wB97X-D3 def2-TZVP TIGHTSCF CHELPG PMODEL PAL8
|  3>
|  4> %base "22-211_DFT_AB"
|  5>
|  6> %scf
|  7> MaxIter 1000
|  8> end
|  9>
| 10> * xyz 0 1
| 11>   C                      -4.439583            5.284049             6.460720
| 12>   O                      -3.532584            5.940513             7.279064
| 13>   H                      -2.829601            5.355491             7.431559
| 14>   H                      -5.279890            4.732551             6.970226
| 15>   H                      -4.912317            5.976185             5.736336
| 16>   H                      -3.816924            4.488641             5.983282
| 17>   C                      -2.384133            5.612888             10.250260
| 18>   O                      -2.876529            4.335479             10.740839
| 19>   H                      -3.130271            3.791132             9.947765
| 20>   H                      -3.259201            6.241876             10.017787
| 21>   H                      -1.742954            6.086604             10.965910
| 22>   H                      -1.794586            5.557124             9.331309
| 23> *
| 24>
| 25> #Run DFT-D3 single point of the molecule with dimer basis set
| 26> $new_job
| 27> %base "22-211_DFT_A"
| 28> ! wB97X-D3 def2-TZVP TIGHTSCF CHELPG PMODEL
| 29>
| 30> %scf
| 31> MaxIter 1000
| 32> end
| 33>
| 34> * xyz 0 1
| 35>   C                      -4.439583            5.284049             6.460720
| 36>   O                      -3.532584            5.940513             7.279064
| 37>   H                      -2.829601            5.355491             7.431559
| 38>   H                      -5.279890            4.732551             6.970226
| 39>   H                      -4.912317            5.976185             5.736336
| 40>   H                      -3.816924            4.488641             5.983282
| 41>   C                    : -2.384133            5.612888             10.250260
| 42>   O                    : -2.876529            4.335479             10.740839
| 43>   H                    : -3.130271            3.791132             9.947765
| 44>   H                    : -3.259201            6.241876             10.017787
| 45>   H                    : -1.742954            6.086604             10.965910
| 46>   H                    : -1.794586            5.557124             9.331309
| 47> *
| 48>
| 49> #Run DFT-D3 single point of the particle with dimer basis set
| 50> $new_job
| 51> %base "22-211_DFT_B"
| 52> ! wB97X-D3 def2-TZVP TIGHTSCF CHELPG PMODEL
| 53>
| 54> %scf
| 55> MaxIter 1000
| 56> end
| 57>
| 58> * xyz 0 1
| 59>   C                    : -4.439583            5.284049             6.460720
| 60>   O                    : -3.532584            5.940513             7.279064
| 61>   H                    : -2.829601            5.355491             7.431559
| 62>   H                    : -5.279890            4.732551             6.970226
| 63>   H                    : -4.912317            5.976185             5.736336
| 64>   H                    : -3.816924            4.488641             5.983282
| 65>   C                      -2.384133            5.612888             10.250260
| 66>   O                      -2.876529            4.335479             10.740839
| 67>   H                      -3.130271            3.791132             9.947765
| 68>   H                      -3.259201            6.241876             10.017787
| 69>   H                      -1.742954            6.086604             10.965910
| 70>   H                      -1.794586            5.557124             9.331309
| 71> *
| 72>
| 73>                          ****END OF INPUT****
 Total Charge           Charge          ....    0
 Multiplicity           Mult            ....    1
 Number of Electrons    NEL             ....   36
Dispersion correction           -0.001878053
FINAL SINGLE POINT ENERGY      -231.462263322625
Dispersion correction           -0.000234961
FINAL SINGLE POINT ENERGY      -115.729610491097

CARTESIAN COORDINATES (ANGSTROEM)
---------------------------------
  C     -4.439583    5.284049    6.460720
  O     -3.532584    5.940513    7.279064
  H     -2.829601    5.355491    7.431559
  H     -5.279890    4.732551    6.970226
  H     -4.912317    5.976185    5.736336
  H     -3.816924    4.488641    5.983282
  C     -2.384133    5.612888   10.250260
  O     -2.876529    4.335479   10.740839
  H     -3.130271    3.791132    9.947765
  H     -3.259201    6.241876   10.017787
  H     -1.742954    6.086604   10.965910
  H     -1.794586    5.557124    9.331309

 Multiplicity           Mult            ....    1
 Number of Electrons    NEL             ....   18
 Basis Dimension        Dim             ....  172

ORBITAL ENERGIES
----------------

  NO   OCC          E(Eh)            E(eV)
   0   2.0000     -19.233087      -523.3589
   1   2.0000     -10.314189      -280.6634
   2   2.0000      -1.117676       -30.4135
   3   2.0000      -0.795859       -21.6564
   4   2.0000      -0.599849       -16.3227
   5   2.0000      -0.540100       -14.6969
   6   2.0000      -0.518637       -14.1128
   7   2.0000      -0.437490       -11.9047
   8   2.0000      -0.373156       -10.1541
   9   0.0000       0.073638         2.0038
  10   0.0000       0.123704         3.3661
  11   0.0000       0.145326         3.9545
  12   0.0000       0.169936         4.6242
  13   0.0000       0.193753         5.2723

MULLIKEN ATOMIC CHARGES
-----------------------
   0 C :   -0.000462
   1 O :   -0.001013
   2 H :   -0.000079
   3 H :   -0.000060
   4 H :    0.000052
   5 H :   -0.000028
   6 C :   -0.176896
   7 O :   -0.479599
   8 H :    0.316330
   9 H :    0.105130
  10 H :    0.128588
  11 H :    0.108036
Sum of atomic charges:   -0.0000000

LOEWDIN ATOMIC CHARGES
----------------------
   0 C :   -0.000616
   1 O :   -0.005018
   2 H :   -0.007662
   3 H :   -0.000063
   4 H :   -0.000008
   5 H :   -0.000014
   6 C :   -0.354438
   7 O :   -0.120267
   8 H :    0.185812
   9 H :    0.100747
  10 H :    0.102322
  11 H :    0.099205

  Mayer bond orders larger than 0.1
B(  6-C ,  7-O ) :   1.0001 B(  6-C ,  9-H ) :   0.9790 B(  6-C , 10-H ) :   0.9694
B(  6-C , 11-H ) :   0.9721 B(  7-O ,  8-H ) :   0.8962

Dispersion correction           -0.000260610
FINAL SINGLE POINT ENERGY      -115.733099690148

DIPOLE MOMENT
-------------
                                X             Y             Z
Electronic contribution:     -0.53176      -1.55836       0.82161
Nuclear contribution   :      0.59893       1.74904      -1.52073
                        -----------------------------------------
Total Dipole Moment    :      0.06718       0.19068      -0.69912
                        -----------------------------------------
Magnitude (a.u.)       :      0.72777
Magnitude (Debye)      :      1.84983

Rotational constants in cm-1:     4.279811     0.790690     0.764114
Rotational constants in MHz : 128305.504143 23704.301457 22907.558073

                             ****ORCA TERMINATED NORMALLY****
TOTAL RUN TIME: 0 days 0 hours 1 minutes 7 seconds 710 msec
