                         Program Version 4.1.2  - RELEASE  -
|  1> #Run DFT-D3 single point of the dimer
|  2> ! wB97X-D3 def2-TZVP TIGHTSCF CHELPG PMODEL PAL8
|  3>
|  4> %base "11-149_DFT_AB"
|  5>
|  6> %scf
|  7> MaxIter 1000
|  8> end
|  9>
| 10> * xyz 0 1
| 11>   C                      0.522925             10.778937            4.542610
| 12>   O                      1.691702             10.595625            3.819887
| 13>   H                      1.475997             11.017691            2.950456
| 14>   H                      0.185831             11.848188            4.569693
| 15>   H                      -0.205225            10.049583            4.162227
| 16>   H                      0.673300             10.484050            5.642736
| 17>   C                      2.929683             7.565886             6.186065
| 18>   O                      1.994438             8.151976             5.350054
| 19>   H                      2.221781             9.017770             4.981318
| 20>   H                      3.621932             7.006439             5.536390
| 21>   H                      3.616853             8.303369             6.650891
| 22>   H                      2.525832             6.884103             6.957979
| 23> *
| 24>
| 25> #Run DFT-D3 single point of the molecule with dimer basis set
| 26> $new_job
| 27> %base "11-149_DFT_A"
| 28> ! wB97X-D3 def2-TZVP TIGHTSCF CHELPG PMODEL
| 29>
| 30> %scf
| 31> MaxIter 1000
| 32> end
| 33>
| 34> * xyz 0 1
| 35>   C                      0.522925             10.778937            4.542610
| 36>   O                      1.691702             10.595625            3.819887
| 37>   H                      1.475997             11.017691            2.950456
| 38>   H                      0.185831             11.848188            4.569693
| 39>   H                      -0.205225            10.049583            4.162227
| 40>   H                      0.673300             10.484050            5.642736
| 41>   C                    : 2.929683             7.565886             6.186065
| 42>   O                    : 1.994438             8.151976             5.350054
| 43>   H                    : 2.221781             9.017770             4.981318
| 44>   H                    : 3.621932             7.006439             5.536390
| 45>   H                    : 3.616853             8.303369             6.650891
| 46>   H                    : 2.525832             6.884103             6.957979
| 47> *
| 48>
| 49> #Run DFT-D3 single point of the particle with dimer basis set
| 50> $new_job
| 51> %base "11-149_DFT_B"
| 52> ! wB97X-D3 def2-TZVP TIGHTSCF CHELPG PMODEL
| 53>
| 54> %scf
| 55> MaxIter 1000
| 56> end
| 57>
| 58> * xyz 0 1
| 59>   C                    : 0.522925             10.778937            4.542610
| 60>   O                    : 1.691702             10.595625            3.819887
| 61>   H                    : 1.475997             11.017691            2.950456
| 62>   H                    : 0.185831             11.848188            4.569693
| 63>   H                    : -0.205225            10.049583            4.162227
| 64>   H                    : 0.673300             10.484050            5.642736
| 65>   C                      2.929683             7.565886             6.186065
| 66>   O                      1.994438             8.151976             5.350054
| 67>   H                      2.221781             9.017770             4.981318
| 68>   H                      3.621932             7.006439             5.536390
| 69>   H                      3.616853             8.303369             6.650891
| 70>   H                      2.525832             6.884103             6.957979
| 71> *
| 72>
| 73>                          ****END OF INPUT****
 Total Charge           Charge          ....    0
 Multiplicity           Mult            ....    1
 Number of Electrons    NEL             ....   36
Dispersion correction           -0.001705381
FINAL SINGLE POINT ENERGY      -231.467209265451
Dispersion correction           -0.000224496
FINAL SINGLE POINT ENERGY      -115.730427234081

CARTESIAN COORDINATES (ANGSTROEM)
---------------------------------
  C      0.522925   10.778937    4.542610
  O      1.691702   10.595625    3.819887
  H      1.475997   11.017691    2.950456
  H      0.185831   11.848188    4.569693
  H     -0.205225   10.049583    4.162227
  H      0.673300   10.484050    5.642736
  C      2.929683    7.565886    6.186065
  O      1.994438    8.151976    5.350054
  H      2.221781    9.017770    4.981318
  H      3.621932    7.006439    5.536390
  H      3.616853    8.303369    6.650891
  H      2.525832    6.884103    6.957979

 Multiplicity           Mult            ....    1
 Number of Electrons    NEL             ....   18
 Basis Dimension        Dim             ....  172

ORBITAL ENERGIES
----------------

  NO   OCC          E(Eh)            E(eV)
   0   2.0000     -19.228621      -523.2374
   1   2.0000     -10.315919      -280.7104
   2   2.0000      -1.139402       -31.0047
   3   2.0000      -0.795659       -21.6510
   4   2.0000      -0.619235       -16.8502
   5   2.0000      -0.542444       -14.7607
   6   2.0000      -0.530339       -14.4313
   7   2.0000      -0.423395       -11.5212
   8   2.0000      -0.366352        -9.9689
   9   0.0000       0.078271         2.1299
  10   0.0000       0.130169         3.5421
  11   0.0000       0.156155         4.2492
  12   0.0000       0.167541         4.5590
  13   0.0000       0.193277         5.2593

MULLIKEN ATOMIC CHARGES
-----------------------
   0 C :    0.001915
   1 O :    0.000163
   2 H :   -0.000017
   3 H :   -0.000388
   4 H :   -0.000451
   5 H :   -0.010801
   6 C :   -0.157788
   7 O :   -0.473960
   8 H :    0.320998
   9 H :    0.097862
  10 H :    0.098360
  11 H :    0.124106
Sum of atomic charges:    0.0000000

LOEWDIN ATOMIC CHARGES
----------------------
   0 C :   -0.015361
   1 O :   -0.013132
   2 H :   -0.000438
   3 H :   -0.000122
   4 H :   -0.001180
   5 H :   -0.008130
   6 C :   -0.408211
   7 O :   -0.044654
   8 H :    0.188303
   9 H :    0.096263
  10 H :    0.097042
  11 H :    0.109619

  Mayer bond orders larger than 0.1
B(  6-C ,  7-O ) :   0.9940 B(  6-C ,  9-H ) :   0.9838 B(  6-C , 10-H ) :   0.9816
B(  6-C , 11-H ) :   0.9663 B(  7-O ,  8-H ) :   0.8873

Dispersion correction           -0.000250526
FINAL SINGLE POINT ENERGY      -115.730802097167

DIPOLE MOMENT
-------------
                                X             Y             Z
Electronic contribution:     -1.43068       0.65660      -0.96150
Nuclear contribution   :      1.96491      -0.31672       1.05402
                        -----------------------------------------
Total Dipole Moment    :      0.53423       0.33989       0.09252
                        -----------------------------------------
Magnitude (a.u.)       :      0.63991
Magnitude (Debye)      :      1.62652

Rotational constants in cm-1:     4.376333     0.845829     0.811383
Rotational constants in MHz : 131199.157670 25357.320838 24324.660064

                             ****ORCA TERMINATED NORMALLY****
TOTAL RUN TIME: 0 days 0 hours 1 minutes 12 seconds 7 msec
