                         Program Version 4.1.2  - RELEASE  -
|  1> #Run DFT-D3 single point of the dimer
|  2> ! wB97X-D3 def2-TZVP TIGHTSCF CHELPG PMODEL PAL8
|  3>
|  4> %base "14-66_DFT_AB"
|  5>
|  6> %scf
|  7> MaxIter 1000
|  8> end
|  9>
| 10> * xyz 0 1
| 11>   C                      -0.584460            9.833385             -7.370606
| 12>   O                      0.262817             9.973202             -6.259486
| 13>   H                      -0.083268            10.436978            -5.479950
| 14>   H                      -1.227082            10.668618            -7.422794
| 15>   H                      0.023229             9.743565             -8.282138
| 16>   H                      -1.232432            8.935795             -7.342917
| 17>   C                      -5.353303            11.069871            -8.863530
| 18>   O                      -6.223960            10.129537            -9.440476
| 19>   H                      -7.113445            10.492733            -9.573066
| 20>   H                      -5.404248            12.067274            -9.320768
| 21>   H                      -5.585512            11.032351            -7.805065
| 22>   H                      -4.332795            10.687860            -8.945880
| 23> *
| 24>
| 25> #Run DFT-D3 single point of the molecule with dimer basis set
| 26> $new_job
| 27> %base "14-66_DFT_A"
| 28> ! wB97X-D3 def2-TZVP TIGHTSCF CHELPG PMODEL
| 29>
| 30> %scf
| 31> MaxIter 1000
| 32> end
| 33>
| 34> * xyz 0 1
| 35>   C                      -0.584460            9.833385             -7.370606
| 36>   O                      0.262817             9.973202             -6.259486
| 37>   H                      -0.083268            10.436978            -5.479950
| 38>   H                      -1.227082            10.668618            -7.422794
| 39>   H                      0.023229             9.743565             -8.282138
| 40>   H                      -1.232432            8.935795             -7.342917
| 41>   C                    : -5.353303            11.069871            -8.863530
| 42>   O                    : -6.223960            10.129537            -9.440476
| 43>   H                    : -7.113445            10.492733            -9.573066
| 44>   H                    : -5.404248            12.067274            -9.320768
| 45>   H                    : -5.585512            11.032351            -7.805065
| 46>   H                    : -4.332795            10.687860            -8.945880
| 47> *
| 48>
| 49> #Run DFT-D3 single point of the particle with dimer basis set
| 50> $new_job
| 51> %base "14-66_DFT_B"
| 52> ! wB97X-D3 def2-TZVP TIGHTSCF CHELPG PMODEL
| 53>
| 54> %scf
| 55> MaxIter 1000
| 56> end
| 57>
| 58> * xyz 0 1
| 59>   C                    : -0.584460            9.833385             -7.370606
| 60>   O                    : 0.262817             9.973202             -6.259486
| 61>   H                    : -0.083268            10.436978            -5.479950
| 62>   H                    : -1.227082            10.668618            -7.422794
| 63>   H                    : 0.023229             9.743565             -8.282138
| 64>   H                    : -1.232432            8.935795             -7.342917
| 65>   C                      -5.353303            11.069871            -8.863530
| 66>   O                      -6.223960            10.129537            -9.440476
| 67>   H                      -7.113445            10.492733            -9.573066
| 68>   H                      -5.404248            12.067274            -9.320768
| 69>   H                      -5.585512            11.032351            -7.805065
| 70>   H                      -4.332795            10.687860            -8.945880
| 71> *
| 72>
| 73>                          ****END OF INPUT****
 Total Charge           Charge          ....    0
 Multiplicity           Mult            ....    1
 Number of Electrons    NEL             ....   36
Dispersion correction           -0.000775487
FINAL SINGLE POINT ENERGY      -231.466448827153
Dispersion correction           -0.000256089
FINAL SINGLE POINT ENERGY      -115.732521331203

CARTESIAN COORDINATES (ANGSTROEM)
---------------------------------
  C     -0.584460    9.833385   -7.370606
  O      0.262817    9.973202   -6.259486
  H     -0.083268   10.436978   -5.479950
  H     -1.227082   10.668618   -7.422794
  H      0.023229    9.743565   -8.282138
  H     -1.232432    8.935795   -7.342917
  C     -5.353303   11.069871   -8.863530
  O     -6.223960   10.129537   -9.440476
  H     -7.113445   10.492733   -9.573066
  H     -5.404248   12.067274   -9.320768
  H     -5.585512   11.032351   -7.805065
  H     -4.332795   10.687860   -8.945880

 Multiplicity           Mult            ....    1
 Number of Electrons    NEL             ....   18
 Basis Dimension        Dim             ....  172

ORBITAL ENERGIES
----------------

  NO   OCC          E(Eh)            E(eV)
   0   2.0000     -19.225270      -523.1462
   1   2.0000     -10.310506      -280.5631
   2   2.0000      -1.132652       -30.8210
   3   2.0000      -0.794828       -21.6284
   4   2.0000      -0.606504       -16.5038
   5   2.0000      -0.548549       -14.9268
   6   2.0000      -0.527766       -14.3612
   7   2.0000      -0.425887       -11.5890
   8   2.0000      -0.369069       -10.0429
   9   0.0000       0.085020         2.3135
  10   0.0000       0.116092         3.1590
  11   0.0000       0.145120         3.9489
  12   0.0000       0.167589         4.5603
  13   0.0000       0.192475         5.2375

MULLIKEN ATOMIC CHARGES
-----------------------
   0 C :   -0.000024
   1 O :   -0.000001
   2 H :   -0.000001
   3 H :   -0.000047
   4 H :   -0.000007
   5 H :   -0.000036
   6 C :   -0.155540
   7 O :   -0.487169
   8 H :    0.316164
   9 H :    0.102978
  10 H :    0.105606
  11 H :    0.118076
Sum of atomic charges:   -0.0000000

LOEWDIN ATOMIC CHARGES
----------------------
   0 C :   -0.000243
   1 O :   -0.000003
   2 H :   -0.000000
   3 H :   -0.000212
   4 H :   -0.000003
   5 H :   -0.000040
   6 C :   -0.389445
   7 O :   -0.082811
   8 H :    0.172135
   9 H :    0.095972
  10 H :    0.096058
  11 H :    0.108592

  Mayer bond orders larger than 0.1
B(  6-C ,  7-O ) :   0.9925 B(  6-C ,  9-H ) :   0.9717 B(  6-C , 10-H ) :   0.9864
B(  6-C , 11-H ) :   0.9719 B(  7-O ,  8-H ) :   0.8945

Dispersion correction           -0.000235889
FINAL SINGLE POINT ENERGY      -115.733700955402

DIPOLE MOMENT
-------------
                                X             Y             Z
Electronic contribution:     -0.99730      -1.15165      -0.77833
Nuclear contribution   :      0.78664       1.75561       0.92052
                        -----------------------------------------
Total Dipole Moment    :     -0.21067       0.60397       0.14219
                        -----------------------------------------
Magnitude (a.u.)       :      0.65527
Magnitude (Debye)      :      1.66556

Rotational constants in cm-1:     4.275729     0.840938     0.813778
Rotational constants in MHz : 128183.143308 25210.682635 24396.438954

                             ****ORCA TERMINATED NORMALLY****
TOTAL RUN TIME: 0 days 0 hours 0 minutes 50 seconds 405 msec
