                         Program Version 4.1.2  - RELEASE  -
|  1> #Run DFT-D3 single point of the dimer
|  2> ! wB97X-D3 def2-TZVP TIGHTSCF  CHELPG PAL8
|  3>
|  4> %base "175_charges"
|  5>
|  6> %scf
|  7> MaxIter 1000
|  8> end
|  9> %output
| 10>   Print[ P_Mayer ] 1
| 11>   Print[ P_NatPop ] 1
| 12>   Print[ P_Hirshfeld ] 1
| 13>   Print[ P_Mulliken ] 1
| 14>   Print [ P_Loewdin ] 1
| 15> end
| 16>
| 17> * xyz 0 1
| 18>   C                      5.672933             -10.989250           -7.577769
| 19>   O                      5.912326             -11.905211           -8.617627
| 20>   H                      5.214954             -11.698194           -9.227127
| 21>   H                      6.317532             -10.091900           -7.606148
| 22>   H                      4.647942             -10.742637           -7.383984
| 23>   H                      5.962104             -11.469975           -6.643434
| 24> *
| 25>
| 26>                          ****END OF INPUT****

CARTESIAN COORDINATES (ANGSTROEM)
---------------------------------
  C      5.672933  -10.989250   -7.577769
  O      5.912326  -11.905211   -8.617627
  H      5.214954  -11.698194   -9.227127
  H      6.317532  -10.091900   -7.606148
  H      4.647942  -10.742637   -7.383984
  H      5.962104  -11.469975   -6.643434

 Total Charge           Charge          ....    0
 Multiplicity           Mult            ....    1
 Number of Electrons    NEL             ....   18
 Basis Dimension        Dim             ....   86

ORBITAL ENERGIES
----------------

  NO   OCC          E(Eh)            E(eV)
   0   2.0000     -19.233773      -523.3776
   1   2.0000     -10.309417      -280.5335
   2   2.0000      -1.146090       -31.1867
   3   2.0000      -0.796884       -21.6843
   4   2.0000      -0.615496       -16.7485
   5   2.0000      -0.543397       -14.7866
   6   2.0000      -0.525291       -14.2939
   7   2.0000      -0.439755       -11.9663
   8   2.0000      -0.375897       -10.2287
   9   0.0000       0.117119         3.1870
  10   0.0000       0.154603         4.2070
  11   0.0000       0.197834         5.3833
  12   0.0000       0.208150         5.6640
  13   0.0000       0.234913         6.3923

MULLIKEN ATOMIC CHARGES
-----------------------
   0 C :   -0.174752
   1 O :   -0.453762
   2 H :    0.312884
   3 H :    0.099240
   4 H :    0.106468
   5 H :    0.109923
Sum of atomic charges:   -0.0000000

LOEWDIN ATOMIC CHARGES
----------------------
   0 C :   -0.401283
   1 O :   -0.060549
   2 H :    0.166261
   3 H :    0.097959
   4 H :    0.092158
   5 H :    0.105453

  Mayer bond orders larger than 0.1
B(  0-C ,  1-O ) :   1.0173 B(  0-C ,  3-H ) :   0.9732 B(  0-C ,  4-H ) :   0.9779
B(  0-C ,  5-H ) :   0.9801 B(  1-O ,  2-H ) :   0.9062

Dispersion correction           -0.000242344
FINAL SINGLE POINT ENERGY      -115.732025654355

DIPOLE MOMENT
-------------
                                X             Y             Z
Electronic contribution:      0.34692      -1.21834      -1.45856
Nuclear contribution   :     -0.89695       1.67206       1.49026
                        -----------------------------------------
Total Dipole Moment    :     -0.55003       0.45372       0.03170
                        -----------------------------------------
Magnitude (a.u.)       :      0.71372
Magnitude (Debye)      :      1.81414

Rotational constants in cm-1:     4.397869     0.836930     0.810744
Rotational constants in MHz : 131844.785989 25090.540159 24305.493479

                             ****ORCA TERMINATED NORMALLY****
TOTAL RUN TIME: 0 days 0 hours 0 minutes 41 seconds 496 msec
