                         Program Version 4.1.2  - RELEASE  -
|  1> #Run DFT-D3 single point of the dimer
|  2> ! wB97X-D3 def2-TZVP TIGHTSCF CHELPG PMODEL PAL8
|  3>
|  4> %base "8-18_DFT_AB"
|  5>
|  6> %scf
|  7> MaxIter 1000
|  8> end
|  9>
| 10> * xyz 0 1
| 11>   C                      0.003535             -5.877715            10.140912
| 12>   O                      0.318346             -4.605744            10.783172
| 13>   H                      1.007645             -4.757691            11.420423
| 14>   H                      -0.478516            -5.721957            9.157673
| 15>   H                      0.881340             -6.498868            10.075310
| 16>   H                      -0.767575            -6.350094            10.780891
| 17>   C                      -4.390719            -7.654209            10.904074
| 18>   O                      -4.003870            -8.702914            11.784423
| 19>   H                      -4.276294            -9.526877            11.329858
| 20>   H                      -5.456891            -7.422801            11.032410
| 21>   H                      -3.784582            -6.714726            10.983076
| 22>   H                      -4.307290            -8.005947            9.833732
| 23> *
| 24>
| 25> #Run DFT-D3 single point of the molecule with dimer basis set
| 26> $new_job
| 27> %base "8-18_DFT_A"
| 28> ! wB97X-D3 def2-TZVP TIGHTSCF CHELPG PMODEL
| 29>
| 30> %scf
| 31> MaxIter 1000
| 32> end
| 33>
| 34> * xyz 0 1
| 35>   C                      0.003535             -5.877715            10.140912
| 36>   O                      0.318346             -4.605744            10.783172
| 37>   H                      1.007645             -4.757691            11.420423
| 38>   H                      -0.478516            -5.721957            9.157673
| 39>   H                      0.881340             -6.498868            10.075310
| 40>   H                      -0.767575            -6.350094            10.780891
| 41>   C                    : -4.390719            -7.654209            10.904074
| 42>   O                    : -4.003870            -8.702914            11.784423
| 43>   H                    : -4.276294            -9.526877            11.329858
| 44>   H                    : -5.456891            -7.422801            11.032410
| 45>   H                    : -3.784582            -6.714726            10.983076
| 46>   H                    : -4.307290            -8.005947            9.833732
| 47> *
| 48>
| 49> #Run DFT-D3 single point of the particle with dimer basis set
| 50> $new_job
| 51> %base "8-18_DFT_B"
| 52> ! wB97X-D3 def2-TZVP TIGHTSCF CHELPG PMODEL
| 53>
| 54> %scf
| 55> MaxIter 1000
| 56> end
| 57>
| 58> * xyz 0 1
| 59>   C                    : 0.003535             -5.877715            10.140912
| 60>   O                    : 0.318346             -4.605744            10.783172
| 61>   H                    : 1.007645             -4.757691            11.420423
| 62>   H                    : -0.478516            -5.721957            9.157673
| 63>   H                    : 0.881340             -6.498868            10.075310
| 64>   H                    : -0.767575            -6.350094            10.780891
| 65>   C                      -4.390719            -7.654209            10.904074
| 66>   O                      -4.003870            -8.702914            11.784423
| 67>   H                      -4.276294            -9.526877            11.329858
| 68>   H                      -5.456891            -7.422801            11.032410
| 69>   H                      -3.784582            -6.714726            10.983076
| 70>   H                      -4.307290            -8.005947            9.833732
| 71> *
| 72>
| 73>                          ****END OF INPUT****
 Total Charge           Charge          ....    0
 Multiplicity           Mult            ....    1
 Number of Electrons    NEL             ....   36
Dispersion correction           -0.000937875
FINAL SINGLE POINT ENERGY      -231.466697667525
Dispersion correction           -0.000249233
FINAL SINGLE POINT ENERGY      -115.733465009298

CARTESIAN COORDINATES (ANGSTROEM)
---------------------------------
  C      0.003535   -5.877715   10.140912
  O      0.318346   -4.605744   10.783172
  H      1.007645   -4.757691   11.420423
  H     -0.478516   -5.721957    9.157673
  H      0.881340   -6.498868   10.075310
  H     -0.767575   -6.350094   10.780891
  C     -4.390719   -7.654209   10.904074
  O     -4.003870   -8.702914   11.784423
  H     -4.276294   -9.526877   11.329858
  H     -5.456891   -7.422801   11.032410
  H     -3.784582   -6.714726   10.983076
  H     -4.307290   -8.005947    9.833732

 Multiplicity           Mult            ....    1
 Number of Electrons    NEL             ....   18
 Basis Dimension        Dim             ....  172

ORBITAL ENERGIES
----------------

  NO   OCC          E(Eh)            E(eV)
   0   2.0000     -19.233904      -523.3811
   1   2.0000     -10.321462      -280.8613
   2   2.0000      -1.132779       -30.8245
   3   2.0000      -0.787887       -21.4395
   4   2.0000      -0.606587       -16.5061
   5   2.0000      -0.537840       -14.6354
   6   2.0000      -0.525911       -14.3108
   7   2.0000      -0.433724       -11.8022
   8   2.0000      -0.372675       -10.1410
   9   0.0000       0.088123         2.3979
  10   0.0000       0.110384         3.0037
  11   0.0000       0.146654         3.9907
  12   0.0000       0.170764         4.6467
  13   0.0000       0.183619         4.9965

MULLIKEN ATOMIC CHARGES
-----------------------
   0 C :   -0.001167
   1 O :    0.000034
   2 H :    0.000006
   3 H :    0.000041
   4 H :    0.000011
   5 H :    0.001438
   6 C :   -0.183280
   7 O :   -0.470714
   8 H :    0.320062
   9 H :    0.108823
  10 H :    0.123525
  11 H :    0.101221
Sum of atomic charges:    0.0000000

LOEWDIN ATOMIC CHARGES
----------------------
   0 C :   -0.000359
   1 O :   -0.000002
   2 H :   -0.000000
   3 H :   -0.000043
   4 H :   -0.000002
   5 H :   -0.000432
   6 C :   -0.393516
   7 O :   -0.094615
   8 H :    0.183454
   9 H :    0.094279
  10 H :    0.110938
  11 H :    0.100299

  Mayer bond orders larger than 0.1
B(  6-C ,  7-O ) :   0.9967 B(  6-C ,  9-H ) :   0.9739 B(  6-C , 10-H ) :   0.9682
B(  6-C , 11-H ) :   0.9851 B(  7-O ,  8-H ) :   0.8953

Dispersion correction           -0.000245957
FINAL SINGLE POINT ENERGY      -115.732534604203

DIPOLE MOMENT
-------------
                                X             Y             Z
Electronic contribution:      0.61955      -1.20178       1.36529
Nuclear contribution   :     -0.93690       1.09375      -2.00143
                        -----------------------------------------
Total Dipole Moment    :     -0.31736      -0.10803      -0.63614
                        -----------------------------------------
Magnitude (a.u.)       :      0.71906
Magnitude (Debye)      :      1.82772

Rotational constants in cm-1:     4.143099     0.819479     0.785472
Rotational constants in MHz : 124206.984319 24567.358463 23547.861383

                             ****ORCA TERMINATED NORMALLY****
TOTAL RUN TIME: 0 days 0 hours 0 minutes 39 seconds 616 msec
