                         Program Version 4.1.2  - RELEASE  -
|  1> #Run DFT-D3 single point of the dimer
|  2> ! wB97X-D3 def2-TZVP TIGHTSCF CHELPG PMODEL PAL8
|  3>
|  4> %base "21-173_DFT_AB"
|  5>
|  6> %scf
|  7> MaxIter 1000
|  8> end
|  9>
| 10> * xyz 0 1
| 11>   C                      9.529779             -3.734456            -7.888648
| 12>   O                      8.537099             -2.944454            -8.420546
| 13>   H                      7.770596             -3.505597            -8.623501
| 14>   H                      9.170968             -4.743425            -7.737205
| 15>   H                      10.429349            -3.879150            -8.555951
| 16>   H                      9.961874             -3.350867            -7.001502
| 17>   C                      6.116449             -2.829464            -5.620753
| 18>   O                      6.255045             -2.353373            -6.959713
| 19>   H                      7.130615             -2.363186            -7.284429
| 20>   H                      7.038531             -3.072071            -5.237766
| 21>   H                      5.737454             -2.054060            -4.932750
| 22>   H                      5.437193             -3.696490            -5.586526
| 23> *
| 24>
| 25> #Run DFT-D3 single point of the molecule with dimer basis set
| 26> $new_job
| 27> %base "21-173_DFT_A"
| 28> ! wB97X-D3 def2-TZVP TIGHTSCF CHELPG PMODEL
| 29>
| 30> %scf
| 31> MaxIter 1000
| 32> end
| 33>
| 34> * xyz 0 1
| 35>   C                      9.529779             -3.734456            -7.888648
| 36>   O                      8.537099             -2.944454            -8.420546
| 37>   H                      7.770596             -3.505597            -8.623501
| 38>   H                      9.170968             -4.743425            -7.737205
| 39>   H                      10.429349            -3.879150            -8.555951
| 40>   H                      9.961874             -3.350867            -7.001502
| 41>   C                    : 6.116449             -2.829464            -5.620753
| 42>   O                    : 6.255045             -2.353373            -6.959713
| 43>   H                    : 7.130615             -2.363186            -7.284429
| 44>   H                    : 7.038531             -3.072071            -5.237766
| 45>   H                    : 5.737454             -2.054060            -4.932750
| 46>   H                    : 5.437193             -3.696490            -5.586526
| 47> *
| 48>
| 49> #Run DFT-D3 single point of the particle with dimer basis set
| 50> $new_job
| 51> %base "21-173_DFT_B"
| 52> ! wB97X-D3 def2-TZVP TIGHTSCF CHELPG PMODEL
| 53>
| 54> %scf
| 55> MaxIter 1000
| 56> end
| 57>
| 58> * xyz 0 1
| 59>   C                    : 9.529779             -3.734456            -7.888648
| 60>   O                    : 8.537099             -2.944454            -8.420546
| 61>   H                    : 7.770596             -3.505597            -8.623501
| 62>   H                    : 9.170968             -4.743425            -7.737205
| 63>   H                    : 10.429349            -3.879150            -8.555951
| 64>   H                    : 9.961874             -3.350867            -7.001502
| 65>   C                      6.116449             -2.829464            -5.620753
| 66>   O                      6.255045             -2.353373            -6.959713
| 67>   H                      7.130615             -2.363186            -7.284429
| 68>   H                      7.038531             -3.072071            -5.237766
| 69>   H                      5.737454             -2.054060            -4.932750
| 70>   H                      5.437193             -3.696490            -5.586526
| 71> *
| 72>
| 73>                          ****END OF INPUT****
 Total Charge           Charge          ....    0
 Multiplicity           Mult            ....    1
 Number of Electrons    NEL             ....   36
Dispersion correction           -0.001859001
FINAL SINGLE POINT ENERGY      -231.468549904390
Dispersion correction           -0.000240878
FINAL SINGLE POINT ENERGY      -115.731825343222

CARTESIAN COORDINATES (ANGSTROEM)
---------------------------------
  C      9.529779   -3.734456   -7.888648
  O      8.537099   -2.944454   -8.420546
  H      7.770596   -3.505597   -8.623501
  H      9.170968   -4.743425   -7.737205
  H     10.429349   -3.879150   -8.555951
  H      9.961874   -3.350867   -7.001502
  C      6.116449   -2.829464   -5.620753
  O      6.255045   -2.353373   -6.959713
  H      7.130615   -2.363186   -7.284429
  H      7.038531   -3.072071   -5.237766
  H      5.737454   -2.054060   -4.932750
  H      5.437193   -3.696490   -5.586526

 Multiplicity           Mult            ....    1
 Number of Electrons    NEL             ....   18
 Basis Dimension        Dim             ....  172

ORBITAL ENERGIES
----------------

  NO   OCC          E(Eh)            E(eV)
   0   2.0000     -19.225047      -523.1401
   1   2.0000     -10.310574      -280.5650
   2   2.0000      -1.132965       -30.8295
   3   2.0000      -0.805665       -21.9232
   4   2.0000      -0.618640       -16.8340
   5   2.0000      -0.538083       -14.6420
   6   2.0000      -0.531190       -14.4544
   7   2.0000      -0.429375       -11.6839
   8   2.0000      -0.374387       -10.1876
   9   0.0000       0.072364         1.9691
  10   0.0000       0.141361         3.8466
  11   0.0000       0.146132         3.9764
  12   0.0000       0.170512         4.6399
  13   0.0000       0.190445         5.1823

MULLIKEN ATOMIC CHARGES
-----------------------
   0 C :   -0.003080
   1 O :   -0.003656
   2 H :   -0.006758
   3 H :    0.000368
   4 H :   -0.000182
   5 H :    0.000285
   6 C :   -0.150625
   7 O :   -0.478259
   8 H :    0.311844
   9 H :    0.108943
  10 H :    0.110623
  11 H :    0.110497
Sum of atomic charges:    0.0000000

LOEWDIN ATOMIC CHARGES
----------------------
   0 C :   -0.004635
   1 O :   -0.020526
   2 H :   -0.011444
   3 H :   -0.000171
   4 H :   -0.000111
   5 H :   -0.000297
   6 C :   -0.357187
   7 O :   -0.056450
   8 H :    0.159124
   9 H :    0.082431
  10 H :    0.104614
  11 H :    0.104653

  Mayer bond orders larger than 0.1
B(  6-C ,  7-O ) :   0.9930 B(  6-C ,  9-H ) :   0.9842 B(  6-C , 10-H ) :   0.9758
B(  6-C , 11-H ) :   0.9747 B(  7-O ,  8-H ) :   0.9062

Dispersion correction           -0.000254529
FINAL SINGLE POINT ENERGY      -115.731195117614

DIPOLE MOMENT
-------------
                                X             Y             Z
Electronic contribution:      0.09280       0.57042      -1.66344
Nuclear contribution   :      0.46098      -0.78033       2.04125
                        -----------------------------------------
Total Dipole Moment    :      0.55378      -0.20991       0.37781
                        -----------------------------------------
Magnitude (a.u.)       :      0.70248
Magnitude (Debye)      :      1.78556

Rotational constants in cm-1:     4.547155     0.809760     0.790927
Rotational constants in MHz : 136320.291997 24275.999195 23711.380148

                             ****ORCA TERMINATED NORMALLY****
TOTAL RUN TIME: 0 days 0 hours 1 minutes 8 seconds 237 msec
