                         Program Version 4.1.2  - RELEASE  -
|  1> #Run DFT-D3 single point of the dimer
|  2> ! wB97X-D3 def2-TZVP TIGHTSCF CHELPG PMODEL PAL8
|  3>
|  4> %base "11-21_DFT_AB"
|  5>
|  6> %scf
|  7> MaxIter 1000
|  8> end
|  9>
| 10> * xyz 0 1
| 11>   C                      -8.448119            2.442185             -5.118233
| 12>   O                      -7.831945            1.753476             -4.059607
| 13>   H                      -8.251878            0.862124             -3.916511
| 14>   H                      -9.518605            2.289483             -5.032777
| 15>   H                      -8.197066            3.464053             -5.152794
| 16>   H                      -8.176135            2.038059             -6.035437
| 17>   C                      -6.890285            -0.651512            -6.912674
| 18>   O                      -7.229241            -1.200924            -5.604162
| 19>   H                      -8.080898            -1.626156            -5.709926
| 20>   H                      -6.749683            -1.458813            -7.604666
| 21>   H                      -7.653449            0.054767             -7.336818
| 22>   H                      -5.976611            -0.051108            -6.957047
| 23> *
| 24>
| 25> #Run DFT-D3 single point of the molecule with dimer basis set
| 26> $new_job
| 27> %base "11-21_DFT_A"
| 28> ! wB97X-D3 def2-TZVP TIGHTSCF CHELPG PMODEL
| 29>
| 30> %scf
| 31> MaxIter 1000
| 32> end
| 33>
| 34> * xyz 0 1
| 35>   C                      -8.448119            2.442185             -5.118233
| 36>   O                      -7.831945            1.753476             -4.059607
| 37>   H                      -8.251878            0.862124             -3.916511
| 38>   H                      -9.518605            2.289483             -5.032777
| 39>   H                      -8.197066            3.464053             -5.152794
| 40>   H                      -8.176135            2.038059             -6.035437
| 41>   C                    : -6.890285            -0.651512            -6.912674
| 42>   O                    : -7.229241            -1.200924            -5.604162
| 43>   H                    : -8.080898            -1.626156            -5.709926
| 44>   H                    : -6.749683            -1.458813            -7.604666
| 45>   H                    : -7.653449            0.054767             -7.336818
| 46>   H                    : -5.976611            -0.051108            -6.957047
| 47> *
| 48>
| 49> #Run DFT-D3 single point of the particle with dimer basis set
| 50> $new_job
| 51> %base "11-21_DFT_B"
| 52> ! wB97X-D3 def2-TZVP TIGHTSCF CHELPG PMODEL
| 53>
| 54> %scf
| 55> MaxIter 1000
| 56> end
| 57>
| 58> * xyz 0 1
| 59>   C                    : -8.448119            2.442185             -5.118233
| 60>   O                    : -7.831945            1.753476             -4.059607
| 61>   H                    : -8.251878            0.862124             -3.916511
| 62>   H                    : -9.518605            2.289483             -5.032777
| 63>   H                    : -8.197066            3.464053             -5.152794
| 64>   H                    : -8.176135            2.038059             -6.035437
| 65>   C                      -6.890285            -0.651512            -6.912674
| 66>   O                      -7.229241            -1.200924            -5.604162
| 67>   H                      -8.080898            -1.626156            -5.709926
| 68>   H                      -6.749683            -1.458813            -7.604666
| 69>   H                      -7.653449            0.054767             -7.336818
| 70>   H                      -5.976611            -0.051108            -6.957047
| 71> *
| 72>
| 73>                          ****END OF INPUT****
 Total Charge           Charge          ....    0
 Multiplicity           Mult            ....    1
 Number of Electrons    NEL             ....   36
Dispersion correction           -0.002016260
FINAL SINGLE POINT ENERGY      -231.464144183168
Dispersion correction           -0.000222118
FINAL SINGLE POINT ENERGY      -115.730423234553

CARTESIAN COORDINATES (ANGSTROEM)
---------------------------------
  C     -8.448119    2.442185   -5.118233
  O     -7.831945    1.753476   -4.059607
  H     -8.251878    0.862124   -3.916511
  H     -9.518605    2.289483   -5.032777
  H     -8.197066    3.464053   -5.152794
  H     -8.176135    2.038059   -6.035437
  C     -6.890285   -0.651512   -6.912674
  O     -7.229241   -1.200924   -5.604162
  H     -8.080898   -1.626156   -5.709926
  H     -6.749683   -1.458813   -7.604666
  H     -7.653449    0.054767   -7.336818
  H     -5.976611   -0.051108   -6.957047

 Multiplicity           Mult            ....    1
 Number of Electrons    NEL             ....   18
 Basis Dimension        Dim             ....  172

ORBITAL ENERGIES
----------------

  NO   OCC          E(Eh)            E(eV)
   0   2.0000     -19.233908      -523.3813
   1   2.0000     -10.318523      -280.7813
   2   2.0000      -1.126255       -30.6470
   3   2.0000      -0.798768       -21.7356
   4   2.0000      -0.601953       -16.3800
   5   2.0000      -0.540693       -14.7130
   6   2.0000      -0.523253       -14.2384
   7   2.0000      -0.435629       -11.8541
   8   2.0000      -0.377890       -10.2829
   9   0.0000       0.090277         2.4566
  10   0.0000       0.127209         3.4615
  11   0.0000       0.144698         3.9374
  12   0.0000       0.182844         4.9754
  13   0.0000       0.191203         5.2029

MULLIKEN ATOMIC CHARGES
-----------------------
   0 C :   -0.002797
   1 O :    0.001701
   2 H :   -0.005619
   3 H :    0.000069
   4 H :    0.000038
   5 H :    0.002397
   6 C :   -0.193851
   7 O :   -0.473599
   8 H :    0.316523
   9 H :    0.120008
  10 H :    0.109018
  11 H :    0.126111
Sum of atomic charges:   -0.0000000

LOEWDIN ATOMIC CHARGES
----------------------
   0 C :   -0.002861
   1 O :   -0.001780
   2 H :   -0.007500
   3 H :   -0.000042
   4 H :   -0.000029
   5 H :   -0.003456
   6 C :   -0.359741
   7 O :   -0.097058
   8 H :    0.166547
   9 H :    0.092786
  10 H :    0.103290
  11 H :    0.109843

  Mayer bond orders larger than 0.1
B(  6-C ,  7-O ) :   0.9868 B(  6-C ,  9-H ) :   0.9759 B(  6-C , 10-H ) :   0.9716
B(  6-C , 11-H ) :   0.9733 B(  7-O ,  8-H ) :   0.8994

Dispersion correction           -0.000267374
FINAL SINGLE POINT ENERGY      -115.732166273770

DIPOLE MOMENT
-------------
                                X             Y             Z
Electronic contribution:     -0.26724      -0.67980       1.77892
Nuclear contribution   :     -0.10466       0.63586      -2.40755
                        -----------------------------------------
Total Dipole Moment    :     -0.37190      -0.04394      -0.62863
                        -----------------------------------------
Magnitude (a.u.)       :      0.73172
Magnitude (Debye)      :      1.85988

Rotational constants in cm-1:     4.393627     0.779183     0.756495
Rotational constants in MHz : 131717.611889 23359.305240 22679.149735

                             ****ORCA TERMINATED NORMALLY****
TOTAL RUN TIME: 0 days 0 hours 1 minutes 7 seconds 649 msec
