                         Program Version 4.1.2  - RELEASE  -
|  1> #Run DFT-D3 single point of the dimer
|  2> ! wB97X-D3 def2-TZVP TIGHTSCF CHELPG PMODEL PAL8
|  3>
|  4> %base "11-132_DFT_AB"
|  5>
|  6> %scf
|  7> MaxIter 1000
|  8> end
|  9>
| 10> * xyz 0 1
| 11>   C                      -3.148170            5.526536             0.250592
| 12>   O                      -4.122243            6.461500             0.653780
| 13>   H                      -4.972779            6.142392             0.328687
| 14>   H                      -2.964292            5.774731             -0.804132
| 15>   H                      -2.171916            5.713092             0.804986
| 16>   H                      -3.408570            4.525718             0.398298
| 17>   C                      -5.235882            3.625782             3.629223
| 18>   O                      -5.157352            3.575601             2.260142
| 19>   H                      -5.339816            4.474139             1.905838
| 20>   H                      -4.746919            2.763487             4.126884
| 21>   H                      -4.722941            4.481456             4.022618
| 22>   H                      -6.300535            3.639498             3.943306
| 23> *
| 24>
| 25> #Run DFT-D3 single point of the molecule with dimer basis set
| 26> $new_job
| 27> %base "11-132_DFT_A"
| 28> ! wB97X-D3 def2-TZVP TIGHTSCF CHELPG PMODEL
| 29>
| 30> %scf
| 31> MaxIter 1000
| 32> end
| 33>
| 34> * xyz 0 1
| 35>   C                      -3.148170            5.526536             0.250592
| 36>   O                      -4.122243            6.461500             0.653780
| 37>   H                      -4.972779            6.142392             0.328687
| 38>   H                      -2.964292            5.774731             -0.804132
| 39>   H                      -2.171916            5.713092             0.804986
| 40>   H                      -3.408570            4.525718             0.398298
| 41>   C                    : -5.235882            3.625782             3.629223
| 42>   O                    : -5.157352            3.575601             2.260142
| 43>   H                    : -5.339816            4.474139             1.905838
| 44>   H                    : -4.746919            2.763487             4.126884
| 45>   H                    : -4.722941            4.481456             4.022618
| 46>   H                    : -6.300535            3.639498             3.943306
| 47> *
| 48>
| 49> #Run DFT-D3 single point of the particle with dimer basis set
| 50> $new_job
| 51> %base "11-132_DFT_B"
| 52> ! wB97X-D3 def2-TZVP TIGHTSCF CHELPG PMODEL
| 53>
| 54> %scf
| 55> MaxIter 1000
| 56> end
| 57>
| 58> * xyz 0 1
| 59>   C                    : -3.148170            5.526536             0.250592
| 60>   O                    : -4.122243            6.461500             0.653780
| 61>   H                    : -4.972779            6.142392             0.328687
| 62>   H                    : -2.964292            5.774731             -0.804132
| 63>   H                    : -2.171916            5.713092             0.804986
| 64>   H                    : -3.408570            4.525718             0.398298
| 65>   C                      -5.235882            3.625782             3.629223
| 66>   O                      -5.157352            3.575601             2.260142
| 67>   H                      -5.339816            4.474139             1.905838
| 68>   H                      -4.746919            2.763487             4.126884
| 69>   H                      -4.722941            4.481456             4.022618
| 70>   H                      -6.300535            3.639498             3.943306
| 71> *
| 72>
| 73>                          ****END OF INPUT****
 Total Charge           Charge          ....    0
 Multiplicity           Mult            ....    1
 Number of Electrons    NEL             ....   36
Dispersion correction           -0.001774193
FINAL SINGLE POINT ENERGY      -231.468615957530
Dispersion correction           -0.000224914
FINAL SINGLE POINT ENERGY      -115.732126958403

CARTESIAN COORDINATES (ANGSTROEM)
---------------------------------
  C     -3.148170    5.526536    0.250592
  O     -4.122243    6.461500    0.653780
  H     -4.972779    6.142392    0.328687
  H     -2.964292    5.774731   -0.804132
  H     -2.171916    5.713092    0.804986
  H     -3.408570    4.525718    0.398298
  C     -5.235882    3.625782    3.629223
  O     -5.157352    3.575601    2.260142
  H     -5.339816    4.474139    1.905838
  H     -4.746919    2.763487    4.126884
  H     -4.722941    4.481456    4.022618
  H     -6.300535    3.639498    3.943306

 Multiplicity           Mult            ....    1
 Number of Electrons    NEL             ....   18
 Basis Dimension        Dim             ....  172

ORBITAL ENERGIES
----------------

  NO   OCC          E(Eh)            E(eV)
   0   2.0000     -19.232985      -523.3561
   1   2.0000     -10.309935      -280.5476
   2   2.0000      -1.146521       -31.1984
   3   2.0000      -0.791243       -21.5308
   4   2.0000      -0.616611       -16.7788
   5   2.0000      -0.549093       -14.9416
   6   2.0000      -0.533064       -14.5054
   7   2.0000      -0.426399       -11.6029
   8   2.0000      -0.371561       -10.1107
   9   0.0000       0.077429         2.1070
  10   0.0000       0.132213         3.5977
  11   0.0000       0.149143         4.0584
  12   0.0000       0.179318         4.8795
  13   0.0000       0.191368         5.2074

MULLIKEN ATOMIC CHARGES
-----------------------
   0 C :   -0.006279
   1 O :    0.000086
   2 H :    0.000005
   3 H :   -0.000370
   4 H :    0.000864
   5 H :   -0.005190
   6 C :   -0.161774
   7 O :   -0.458966
   8 H :    0.322966
   9 H :    0.113633
  10 H :    0.100286
  11 H :    0.094739
Sum of atomic charges:    0.0000000

LOEWDIN ATOMIC CHARGES
----------------------
   0 C :   -0.008186
   1 O :   -0.002183
   2 H :   -0.002557
   3 H :   -0.000120
   4 H :   -0.000106
   5 H :   -0.007452
   6 C :   -0.421745
   7 O :   -0.044180
   8 H :    0.190867
   9 H :    0.110382
  10 H :    0.089031
  11 H :    0.096251

  Mayer bond orders larger than 0.1
B(  6-C ,  7-O ) :   1.0052 B(  6-C ,  9-H ) :   0.9709 B(  6-C , 10-H ) :   0.9802
B(  6-C , 11-H ) :   0.9807 B(  7-O ,  8-H ) :   0.8894

Dispersion correction           -0.000224264
FINAL SINGLE POINT ENERGY      -115.734186976637

DIPOLE MOMENT
-------------
                                X             Y             Z
Electronic contribution:      0.15643      -0.21125      -1.82896
Nuclear contribution   :     -0.28319       0.79483       2.13043
                        -----------------------------------------
Total Dipole Moment    :     -0.12676       0.58358       0.30147
                        -----------------------------------------
Magnitude (a.u.)       :      0.66897
Magnitude (Debye)      :      1.70039

Rotational constants in cm-1:     4.282854     0.865574     0.837878
Rotational constants in MHz : 128396.727408 25949.265895 25118.949162

                             ****ORCA TERMINATED NORMALLY****
TOTAL RUN TIME: 0 days 0 hours 1 minutes 15 seconds 518 msec
