                         Program Version 4.1.2  - RELEASE  -
|  1> #Run DFT-D3 single point of the dimer
|  2> ! wB97X-D3 def2-TZVP TIGHTSCF CHELPG PMODEL PAL8
|  3>
|  4> %base "14-97_DFT_AB"
|  5>
|  6> %scf
|  7> MaxIter 1000
|  8> end
|  9>
| 10> * xyz 0 1
| 11>   C                      -8.023118            5.970073             -7.301579
| 12>   O                      -7.208899            5.748031             -6.199433
| 13>   H                      -7.582233            5.100643             -5.540227
| 14>   H                      -8.491772            6.984259             -7.204203
| 15>   H                      -7.494694            5.832346             -8.256467
| 16>   H                      -8.841849            5.215604             -7.301558
| 17>   C                      -11.246257           4.690061             -5.507770
| 18>   O                      -11.667383           5.099352             -6.767872
| 19>   H                      -10.915478           4.982300             -7.343913
| 20>   H                      -10.329714           5.154487             -5.161061
| 21>   H                      -11.975830           4.830696             -4.695046
| 22>   H                      -10.984927           3.649927             -5.510068
| 23> *
| 24>
| 25> #Run DFT-D3 single point of the molecule with dimer basis set
| 26> $new_job
| 27> %base "14-97_DFT_A"
| 28> ! wB97X-D3 def2-TZVP TIGHTSCF CHELPG PMODEL
| 29>
| 30> %scf
| 31> MaxIter 1000
| 32> end
| 33>
| 34> * xyz 0 1
| 35>   C                      -8.023118            5.970073             -7.301579
| 36>   O                      -7.208899            5.748031             -6.199433
| 37>   H                      -7.582233            5.100643             -5.540227
| 38>   H                      -8.491772            6.984259             -7.204203
| 39>   H                      -7.494694            5.832346             -8.256467
| 40>   H                      -8.841849            5.215604             -7.301558
| 41>   C                    : -11.246257           4.690061             -5.507770
| 42>   O                    : -11.667383           5.099352             -6.767872
| 43>   H                    : -10.915478           4.982300             -7.343913
| 44>   H                    : -10.329714           5.154487             -5.161061
| 45>   H                    : -11.975830           4.830696             -4.695046
| 46>   H                    : -10.984927           3.649927             -5.510068
| 47> *
| 48>
| 49> #Run DFT-D3 single point of the particle with dimer basis set
| 50> $new_job
| 51> %base "14-97_DFT_B"
| 52> ! wB97X-D3 def2-TZVP TIGHTSCF CHELPG PMODEL
| 53>
| 54> %scf
| 55> MaxIter 1000
| 56> end
| 57>
| 58> * xyz 0 1
| 59>   C                    : -8.023118            5.970073             -7.301579
| 60>   O                    : -7.208899            5.748031             -6.199433
| 61>   H                    : -7.582233            5.100643             -5.540227
| 62>   H                    : -8.491772            6.984259             -7.204203
| 63>   H                    : -7.494694            5.832346             -8.256467
| 64>   H                    : -8.841849            5.215604             -7.301558
| 65>   C                      -11.246257           4.690061             -5.507770
| 66>   O                      -11.667383           5.099352             -6.767872
| 67>   H                      -10.915478           4.982300             -7.343913
| 68>   H                      -10.329714           5.154487             -5.161061
| 69>   H                      -11.975830           4.830696             -4.695046
| 70>   H                      -10.984927           3.649927             -5.510068
| 71> *
| 72>
| 73>                          ****END OF INPUT****
 Total Charge           Charge          ....    0
 Multiplicity           Mult            ....    1
 Number of Electrons    NEL             ....   36
Dispersion correction           -0.002012021
FINAL SINGLE POINT ENERGY      -231.465468604535
Dispersion correction           -0.000249417
FINAL SINGLE POINT ENERGY      -115.731490889342

CARTESIAN COORDINATES (ANGSTROEM)
---------------------------------
  C     -8.023118    5.970073   -7.301579
  O     -7.208899    5.748031   -6.199433
  H     -7.582233    5.100643   -5.540227
  H     -8.491772    6.984259   -7.204203
  H     -7.494694    5.832346   -8.256467
  H     -8.841849    5.215604   -7.301558
  C    -11.246257    4.690061   -5.507770
  O    -11.667383    5.099352   -6.767872
  H    -10.915478    4.982300   -7.343913
  H    -10.329714    5.154487   -5.161061
  H    -11.975830    4.830696   -4.695046
  H    -10.984927    3.649927   -5.510068

 Multiplicity           Mult            ....    1
 Number of Electrons    NEL             ....   18
 Basis Dimension        Dim             ....  172

ORBITAL ENERGIES
----------------

  NO   OCC          E(Eh)            E(eV)
   0   2.0000     -19.233578      -523.3723
   1   2.0000     -10.308181      -280.4999
   2   2.0000      -1.147930       -31.2368
   3   2.0000      -0.797855       -21.7107
   4   2.0000      -0.621157       -16.9025
   5   2.0000      -0.540965       -14.7204
   6   2.0000      -0.533085       -14.5060
   7   2.0000      -0.437432       -11.9031
   8   2.0000      -0.372352       -10.1322
   9   0.0000       0.072697         1.9782
  10   0.0000       0.136189         3.7059
  11   0.0000       0.143796         3.9129
  12   0.0000       0.178222         4.8497
  13   0.0000       0.183422         4.9912

MULLIKEN ATOMIC CHARGES
-----------------------
   0 C :    0.000948
   1 O :   -0.000286
   2 H :   -0.000384
   3 H :    0.000144
   4 H :   -0.000187
   5 H :   -0.004182
   6 C :   -0.177270
   7 O :   -0.458637
   8 H :    0.317063
   9 H :    0.097789
  10 H :    0.122339
  11 H :    0.102663
Sum of atomic charges:   -0.0000000

LOEWDIN ATOMIC CHARGES
----------------------
   0 C :   -0.004531
   1 O :   -0.000287
   2 H :   -0.001633
   3 H :   -0.000328
   4 H :   -0.000024
   5 H :   -0.006181
   6 C :   -0.405623
   7 O :   -0.046594
   8 H :    0.171438
   9 H :    0.092372
  10 H :    0.110807
  11 H :    0.090584

  Mayer bond orders larger than 0.1
B(  6-C ,  7-O ) :   1.0014 B(  6-C ,  9-H ) :   0.9754 B(  6-C , 10-H ) :   0.9724
B(  6-C , 11-H ) :   0.9852 B(  7-O ,  8-H ) :   0.9035

Dispersion correction           -0.000225554
FINAL SINGLE POINT ENERGY      -115.733687818633

DIPOLE MOMENT
-------------
                                X             Y             Z
Electronic contribution:     -0.78512       0.64600      -1.67671
Nuclear contribution   :      1.42455      -0.88096       1.79527
                        -----------------------------------------
Total Dipole Moment    :      0.63943      -0.23497       0.11856
                        -----------------------------------------
Magnitude (a.u.)       :      0.69147
Magnitude (Debye)      :      1.75759

Rotational constants in cm-1:     4.486263     0.851525     0.813605
Rotational constants in MHz : 134494.767527 25528.087112 24391.277354

                             ****ORCA TERMINATED NORMALLY****
TOTAL RUN TIME: 0 days 0 hours 1 minutes 11 seconds 657 msec
