                         Program Version 4.1.2  - RELEASE  -
|  1> #Run DFT-D3 single point of the dimer
|  2> ! wB97X-D3 def2-TZVP TIGHTSCF CHELPG PMODEL PAL8
|  3>
|  4> %base "20-83_DFT_AB"
|  5>
|  6> %scf
|  7> MaxIter 1000
|  8> end
|  9>
| 10> * xyz 0 1
| 11>   C                      -2.839955            -3.953407            -0.078150
| 12>   O                      -2.008247            -2.946951            0.371114
| 13>   H                      -2.187683            -2.219467            -0.178250
| 14>   H                      -3.058394            -3.772306            -1.120352
| 15>   H                      -2.431864            -4.948480            0.016022
| 16>   H                      -3.792097            -3.920621            0.402216
| 17>   C                      1.310005             -5.374597            1.050134
| 18>   O                      2.401512             -6.320147            0.794165
| 19>   H                      2.409136             -7.072881            1.458004
| 20>   H                      0.288380             -5.856881            0.838766
| 21>   H                      1.226147             -4.946307            2.050724
| 22>   H                      1.364170             -4.525090            0.270397
| 23> *
| 24>
| 25> #Run DFT-D3 single point of the molecule with dimer basis set
| 26> $new_job
| 27> %base "20-83_DFT_A"
| 28> ! wB97X-D3 def2-TZVP TIGHTSCF CHELPG PMODEL
| 29>
| 30> %scf
| 31> MaxIter 1000
| 32> end
| 33>
| 34> * xyz 0 1
| 35>   C                      -2.839955            -3.953407            -0.078150
| 36>   O                      -2.008247            -2.946951            0.371114
| 37>   H                      -2.187683            -2.219467            -0.178250
| 38>   H                      -3.058394            -3.772306            -1.120352
| 39>   H                      -2.431864            -4.948480            0.016022
| 40>   H                      -3.792097            -3.920621            0.402216
| 41>   C                    : 1.310005             -5.374597            1.050134
| 42>   O                    : 2.401512             -6.320147            0.794165
| 43>   H                    : 2.409136             -7.072881            1.458004
| 44>   H                    : 0.288380             -5.856881            0.838766
| 45>   H                    : 1.226147             -4.946307            2.050724
| 46>   H                    : 1.364170             -4.525090            0.270397
| 47> *
| 48>
| 49> #Run DFT-D3 single point of the particle with dimer basis set
| 50> $new_job
| 51> %base "20-83_DFT_B"
| 52> ! wB97X-D3 def2-TZVP TIGHTSCF CHELPG PMODEL
| 53>
| 54> %scf
| 55> MaxIter 1000
| 56> end
| 57>
| 58> * xyz 0 1
| 59>   C                    : -2.839955            -3.953407            -0.078150
| 60>   O                    : -2.008247            -2.946951            0.371114
| 61>   H                    : -2.187683            -2.219467            -0.178250
| 62>   H                    : -3.058394            -3.772306            -1.120352
| 63>   H                    : -2.431864            -4.948480            0.016022
| 64>   H                    : -3.792097            -3.920621            0.402216
| 65>   C                      1.310005             -5.374597            1.050134
| 66>   O                      2.401512             -6.320147            0.794165
| 67>   H                      2.409136             -7.072881            1.458004
| 68>   H                      0.288380             -5.856881            0.838766
| 69>   H                      1.226147             -4.946307            2.050724
| 70>   H                      1.364170             -4.525090            0.270397
| 71> *
| 72>
| 73>                          ****END OF INPUT****
 Total Charge           Charge          ....    0
 Multiplicity           Mult            ....    1
 Number of Electrons    NEL             ....   36
Dispersion correction           -0.001182229
FINAL SINGLE POINT ENERGY      -231.460270261429
Dispersion correction           -0.000207890
FINAL SINGLE POINT ENERGY      -115.731871950659

CARTESIAN COORDINATES (ANGSTROEM)
---------------------------------
  C     -2.839955   -3.953407   -0.078150
  O     -2.008247   -2.946951    0.371114
  H     -2.187683   -2.219467   -0.178250
  H     -3.058394   -3.772306   -1.120352
  H     -2.431864   -4.948480    0.016022
  H     -3.792097   -3.920621    0.402216
  C      1.310005   -5.374597    1.050134
  O      2.401512   -6.320147    0.794165
  H      2.409136   -7.072881    1.458004
  H      0.288380   -5.856881    0.838766
  H      1.226147   -4.946307    2.050724
  H      1.364170   -4.525090    0.270397

 Multiplicity           Mult            ....    1
 Number of Electrons    NEL             ....   18
 Basis Dimension        Dim             ....  172

ORBITAL ENERGIES
----------------

  NO   OCC          E(Eh)            E(eV)
   0   2.0000     -19.236735      -523.4582
   1   2.0000     -10.330307      -281.1020
   2   2.0000      -1.112229       -30.2653
   3   2.0000      -0.788554       -21.4576
   4   2.0000      -0.600000       -16.3268
   5   2.0000      -0.526351       -14.3227
   6   2.0000      -0.512977       -13.9588
   7   2.0000      -0.431911       -11.7529
   8   2.0000      -0.374163       -10.1815
   9   0.0000       0.082126         2.2348
  10   0.0000       0.111182         3.0254
  11   0.0000       0.139200         3.7878
  12   0.0000       0.159027         4.3273
  13   0.0000       0.186924         5.0865

MULLIKEN ATOMIC CHARGES
-----------------------
   0 C :    0.000048
   1 O :    0.000110
   2 H :    0.000001
   3 H :   -0.000015
   4 H :   -0.000869
   5 H :   -0.000030
   6 C :   -0.177930
   7 O :   -0.486097
   8 H :    0.318523
   9 H :    0.104158
  10 H :    0.116188
  11 H :    0.125913
Sum of atomic charges:    0.0000000

LOEWDIN ATOMIC CHARGES
----------------------
   0 C :   -0.000790
   1 O :   -0.000094
   2 H :   -0.000012
   3 H :   -0.000006
   4 H :   -0.001327
   5 H :   -0.000004
   6 C :   -0.371160
   7 O :   -0.132562
   8 H :    0.188340
   9 H :    0.103380
  10 H :    0.093130
  11 H :    0.121105

  Mayer bond orders larger than 0.1
B(  6-C ,  7-O ) :   0.9972 B(  6-C ,  9-H ) :   0.9745 B(  6-C , 10-H ) :   0.9610
B(  6-C , 11-H ) :   0.9707 B(  7-O ,  8-H ) :   0.8895

Dispersion correction           -0.000312886
FINAL SINGLE POINT ENERGY      -115.727114761297

DIPOLE MOMENT
-------------
                                X             Y             Z
Electronic contribution:      1.54918      -1.09765      -0.29270
Nuclear contribution   :     -1.99797       1.02479       0.81982
                        -----------------------------------------
Total Dipole Moment    :     -0.44878      -0.07286       0.52712
                        -----------------------------------------
Magnitude (a.u.)       :      0.69611
Magnitude (Debye)      :      1.76938

Rotational constants in cm-1:     4.124726     0.763516     0.734197
Rotational constants in MHz : 123656.178349 22889.623981 22010.674379

                             ****ORCA TERMINATED NORMALLY****
TOTAL RUN TIME: 0 days 0 hours 0 minutes 55 seconds 527 msec
