                         Program Version 4.1.2  - RELEASE  -
|  1> #Run DFT-D3 single point of the dimer
|  2> ! wB97X-D3 def2-TZVP TIGHTSCF CHELPG PMODEL PAL8
|  3>
|  4> %base "2-158_DFT_AB"
|  5>
|  6> %scf
|  7> MaxIter 1000
|  8> end
|  9>
| 10> * xyz 0 1
| 11>   C                      1.254855             -3.502723            -4.882211
| 12>   O                      0.769337             -3.116388            -6.096251
| 13>   H                      1.398327             -2.419543            -6.356148
| 14>   H                      1.332779             -4.581020            -4.796774
| 15>   H                      2.314396             -3.121156            -4.747694
| 16>   H                      0.714537             -3.056710            -3.998052
| 17>   C                      -1.611009            -3.567888            -2.565436
| 18>   O                      -1.557684            -2.857989            -3.741557
| 19>   H                      -1.576404            -3.374543            -4.544399
| 20>   H                      -2.643826            -3.930797            -2.404599
| 21>   H                      -0.884362            -4.421204            -2.627286
| 22>   H                      -1.333220            -2.821947            -1.769267
| 23> *
| 24>
| 25> #Run DFT-D3 single point of the molecule with dimer basis set
| 26> $new_job
| 27> %base "2-158_DFT_A"
| 28> ! wB97X-D3 def2-TZVP TIGHTSCF CHELPG PMODEL
| 29>
| 30> %scf
| 31> MaxIter 1000
| 32> end
| 33>
| 34> * xyz 0 1
| 35>   C                      1.254855             -3.502723            -4.882211
| 36>   O                      0.769337             -3.116388            -6.096251
| 37>   H                      1.398327             -2.419543            -6.356148
| 38>   H                      1.332779             -4.581020            -4.796774
| 39>   H                      2.314396             -3.121156            -4.747694
| 40>   H                      0.714537             -3.056710            -3.998052
| 41>   C                    : -1.611009            -3.567888            -2.565436
| 42>   O                    : -1.557684            -2.857989            -3.741557
| 43>   H                    : -1.576404            -3.374543            -4.544399
| 44>   H                    : -2.643826            -3.930797            -2.404599
| 45>   H                    : -0.884362            -4.421204            -2.627286
| 46>   H                    : -1.333220            -2.821947            -1.769267
| 47> *
| 48>
| 49> #Run DFT-D3 single point of the particle with dimer basis set
| 50> $new_job
| 51> %base "2-158_DFT_B"
| 52> ! wB97X-D3 def2-TZVP TIGHTSCF CHELPG PMODEL
| 53>
| 54> %scf
| 55> MaxIter 1000
| 56> end
| 57>
| 58> * xyz 0 1
| 59>   C                    : 1.254855             -3.502723            -4.882211
| 60>   O                    : 0.769337             -3.116388            -6.096251
| 61>   H                    : 1.398327             -2.419543            -6.356148
| 62>   H                    : 1.332779             -4.581020            -4.796774
| 63>   H                    : 2.314396             -3.121156            -4.747694
| 64>   H                    : 0.714537             -3.056710            -3.998052
| 65>   C                      -1.611009            -3.567888            -2.565436
| 66>   O                      -1.557684            -2.857989            -3.741557
| 67>   H                      -1.576404            -3.374543            -4.544399
| 68>   H                      -2.643826            -3.930797            -2.404599
| 69>   H                      -0.884362            -4.421204            -2.627286
| 70>   H                      -1.333220            -2.821947            -1.769267
| 71> *
| 72>
| 73>                          ****END OF INPUT****
 Total Charge           Charge          ....    0
 Multiplicity           Mult            ....    1
 Number of Electrons    NEL             ....   36
Dispersion correction           -0.002007004
FINAL SINGLE POINT ENERGY      -231.463977583036
Dispersion correction           -0.000226810
FINAL SINGLE POINT ENERGY      -115.729493148892

CARTESIAN COORDINATES (ANGSTROEM)
---------------------------------
  C      1.254855   -3.502723   -4.882211
  O      0.769337   -3.116388   -6.096251
  H      1.398327   -2.419543   -6.356148
  H      1.332779   -4.581020   -4.796774
  H      2.314396   -3.121156   -4.747694
  H      0.714537   -3.056710   -3.998052
  C     -1.611009   -3.567888   -2.565436
  O     -1.557684   -2.857989   -3.741557
  H     -1.576404   -3.374543   -4.544399
  H     -2.643826   -3.930797   -2.404599
  H     -0.884362   -4.421204   -2.627286
  H     -1.333220   -2.821947   -1.769267

 Multiplicity           Mult            ....    1
 Number of Electrons    NEL             ....   18
 Basis Dimension        Dim             ....  172

ORBITAL ENERGIES
----------------

  NO   OCC          E(Eh)            E(eV)
   0   2.0000     -19.224436      -523.1235
   1   2.0000     -10.318267      -280.7743
   2   2.0000      -1.144676       -31.1482
   3   2.0000      -0.792152       -21.5555
   4   2.0000      -0.614926       -16.7330
   5   2.0000      -0.546753       -14.8779
   6   2.0000      -0.530713       -14.4414
   7   2.0000      -0.420123       -11.4321
   8   2.0000      -0.368686       -10.0325
   9   0.0000       0.083517         2.2726
  10   0.0000       0.134745         3.6666
  11   0.0000       0.148488         4.0406
  12   0.0000       0.173471         4.7204
  13   0.0000       0.193447         5.2640

MULLIKEN ATOMIC CHARGES
-----------------------
   0 C :   -0.017237
   1 O :    0.001475
   2 H :    0.000038
   3 H :    0.001556
   4 H :   -0.000697
   5 H :    0.001220
   6 C :   -0.140494
   7 O :   -0.477875
   8 H :    0.318110
   9 H :    0.100599
  10 H :    0.094994
  11 H :    0.118312
Sum of atomic charges:    0.0000000

LOEWDIN ATOMIC CHARGES
----------------------
   0 C :   -0.016977
   1 O :   -0.001700
   2 H :   -0.000158
   3 H :   -0.000417
   4 H :   -0.000218
   5 H :   -0.017062
   6 C :   -0.410768
   7 O :   -0.030439
   8 H :    0.165736
   9 H :    0.095325
  10 H :    0.098794
  11 H :    0.117884

  Mayer bond orders larger than 0.1
B(  6-C ,  7-O ) :   0.9836 B(  6-C ,  9-H ) :   0.9758 B(  6-C , 10-H ) :   0.9805
B(  6-C , 11-H ) :   0.9730 B(  7-O ,  8-H ) :   0.8923

Dispersion correction           -0.000233196
FINAL SINGLE POINT ENERGY      -115.733042665456

DIPOLE MOMENT
-------------
                                X             Y             Z
Electronic contribution:      0.04919       0.95364      -1.38183
Nuclear contribution   :     -0.09442      -1.55193       1.30673
                        -----------------------------------------
Total Dipole Moment    :     -0.04523      -0.59829      -0.07510
                        -----------------------------------------
Magnitude (a.u.)       :      0.60468
Magnitude (Debye)      :      1.53698

Rotational constants in cm-1:     4.110577     0.870344     0.838827
Rotational constants in MHz : 123231.999982 26092.246238 25147.391503

                             ****ORCA TERMINATED NORMALLY****
TOTAL RUN TIME: 0 days 0 hours 6 minutes 25 seconds 705 msec
