                         Program Version 4.1.2  - RELEASE  -
|  1> #Run DFT-D3 single point of the dimer
|  2> ! wB97X-D3 def2-TZVP TIGHTSCF CHELPG PMODEL PAL8
|  3>
|  4> %base "16-201_DFT_AB"
|  5>
|  6> %scf
|  7> MaxIter 1000
|  8> end
|  9>
| 10> * xyz 0 1
| 11>   C                      5.608818             -4.339067            6.613344
| 12>   O                      6.800231             -4.583821            5.901699
| 13>   H                      6.905804             -3.930152            5.211157
| 14>   H                      4.734001             -4.363559            5.936224
| 15>   H                      5.388047             -5.115316            7.280868
| 16>   H                      5.776462             -3.352235            7.096274
| 17>   C                      6.734664             -1.465832            4.134875
| 18>   O                      6.850133             -2.723269            3.574663
| 19>   H                      7.554024             -2.634037            2.919549
| 20>   H                      7.197122             -0.684707            3.440621
| 21>   H                      5.634631             -1.156529            4.236709
| 22>   H                      7.234480             -1.426352            5.052072
| 23> *
| 24>
| 25> #Run DFT-D3 single point of the molecule with dimer basis set
| 26> $new_job
| 27> %base "16-201_DFT_A"
| 28> ! wB97X-D3 def2-TZVP TIGHTSCF CHELPG PMODEL
| 29>
| 30> %scf
| 31> MaxIter 1000
| 32> end
| 33>
| 34> * xyz 0 1
| 35>   C                      5.608818             -4.339067            6.613344
| 36>   O                      6.800231             -4.583821            5.901699
| 37>   H                      6.905804             -3.930152            5.211157
| 38>   H                      4.734001             -4.363559            5.936224
| 39>   H                      5.388047             -5.115316            7.280868
| 40>   H                      5.776462             -3.352235            7.096274
| 41>   C                    : 6.734664             -1.465832            4.134875
| 42>   O                    : 6.850133             -2.723269            3.574663
| 43>   H                    : 7.554024             -2.634037            2.919549
| 44>   H                    : 7.197122             -0.684707            3.440621
| 45>   H                    : 5.634631             -1.156529            4.236709
| 46>   H                    : 7.234480             -1.426352            5.052072
| 47> *
| 48>
| 49> #Run DFT-D3 single point of the particle with dimer basis set
| 50> $new_job
| 51> %base "16-201_DFT_B"
| 52> ! wB97X-D3 def2-TZVP TIGHTSCF CHELPG PMODEL
| 53>
| 54> %scf
| 55> MaxIter 1000
| 56> end
| 57>
| 58> * xyz 0 1
| 59>   C                    : 5.608818             -4.339067            6.613344
| 60>   O                    : 6.800231             -4.583821            5.901699
| 61>   H                    : 6.905804             -3.930152            5.211157
| 62>   H                    : 4.734001             -4.363559            5.936224
| 63>   H                    : 5.388047             -5.115316            7.280868
| 64>   H                    : 5.776462             -3.352235            7.096274
| 65>   C                      6.734664             -1.465832            4.134875
| 66>   O                      6.850133             -2.723269            3.574663
| 67>   H                      7.554024             -2.634037            2.919549
| 68>   H                      7.197122             -0.684707            3.440621
| 69>   H                      5.634631             -1.156529            4.236709
| 70>   H                      7.234480             -1.426352            5.052072
| 71> *
| 72>
| 73>                          ****END OF INPUT****
 Total Charge           Charge          ....    0
 Multiplicity           Mult            ....    1
 Number of Electrons    NEL             ....   36
Dispersion correction           -0.001940475
FINAL SINGLE POINT ENERGY      -231.469082715408
Dispersion correction           -0.000223075
FINAL SINGLE POINT ENERGY      -115.732046015196

CARTESIAN COORDINATES (ANGSTROEM)
---------------------------------
  C      5.608818   -4.339067    6.613344
  O      6.800231   -4.583821    5.901699
  H      6.905804   -3.930152    5.211157
  H      4.734001   -4.363559    5.936224
  H      5.388047   -5.115316    7.280868
  H      5.776462   -3.352235    7.096274
  C      6.734664   -1.465832    4.134875
  O      6.850133   -2.723269    3.574663
  H      7.554024   -2.634037    2.919549
  H      7.197122   -0.684707    3.440621
  H      5.634631   -1.156529    4.236709
  H      7.234480   -1.426352    5.052072

 Multiplicity           Mult            ....    1
 Number of Electrons    NEL             ....   18
 Basis Dimension        Dim             ....  172

ORBITAL ENERGIES
----------------

  NO   OCC          E(Eh)            E(eV)
   0   2.0000     -19.231824      -523.3245
   1   2.0000     -10.315681      -280.7040
   2   2.0000      -1.149231       -31.2722
   3   2.0000      -0.787943       -21.4410
   4   2.0000      -0.615320       -16.7437
   5   2.0000      -0.553437       -15.0598
   6   2.0000      -0.526273       -14.3206
   7   2.0000      -0.426809       -11.6141
   8   2.0000      -0.374673       -10.1954
   9   0.0000       0.094799         2.5796
  10   0.0000       0.120854         3.2886
  11   0.0000       0.154704         4.2097
  12   0.0000       0.183188         4.9848
  13   0.0000       0.188169         5.1203

MULLIKEN ATOMIC CHARGES
-----------------------
   0 C :    0.002783
   1 O :   -0.001823
   2 H :   -0.006429
   3 H :   -0.000976
   4 H :    0.000062
   5 H :   -0.000201
   6 C :   -0.168928
   7 O :   -0.460292
   8 H :    0.319155
   9 H :    0.096740
  10 H :    0.105842
  11 H :    0.114066
Sum of atomic charges:    0.0000000

LOEWDIN ATOMIC CHARGES
----------------------
   0 C :   -0.001545
   1 O :   -0.003803
   2 H :   -0.033352
   3 H :   -0.000253
   4 H :   -0.000014
   5 H :   -0.000337
   6 C :   -0.412399
   7 O :   -0.028161
   8 H :    0.178743
   9 H :    0.103569
  10 H :    0.112136
  11 H :    0.085415

  Mayer bond orders larger than 0.1
B(  6-C ,  7-O ) :   0.9948 B(  6-C ,  9-H ) :   0.9853 B(  6-C , 10-H ) :   0.9724
B(  6-C , 11-H ) :   0.9756 B(  7-O ,  8-H ) :   0.8969

Dispersion correction           -0.000225845
FINAL SINGLE POINT ENERGY      -115.729877913520

DIPOLE MOMENT
-------------
                                X             Y             Z
Electronic contribution:      0.07678      -1.79511      -0.53452
Nuclear contribution   :      0.34317       2.31545       0.31562
                        -----------------------------------------
Total Dipole Moment    :      0.41995       0.52035      -0.21890
                        -----------------------------------------
Magnitude (a.u.)       :      0.70359
Magnitude (Debye)      :      1.78839

Rotational constants in cm-1:     4.126310     0.866776     0.831627
Rotational constants in MHz : 123703.662408 25985.289231 24931.565189

                             ****ORCA TERMINATED NORMALLY****
TOTAL RUN TIME: 0 days 0 hours 0 minutes 59 seconds 463 msec
