                         Program Version 4.1.2  - RELEASE  -
|  1> #Run DFT-D3 single point of the dimer
|  2> ! wB97X-D3 def2-TZVP TIGHTSCF CHELPG PMODEL PAL8
|  3>
|  4> %base "3-96_DFT_AB"
|  5>
|  6> %scf
|  7> MaxIter 1000
|  8> end
|  9>
| 10> * xyz 0 1
| 11>   C                      8.643484             -10.596535           3.469221
| 12>   O                      8.955716             -10.854942           2.119081
| 13>   H                      9.117032             -9.999848            1.707795
| 14>   H                      9.382769             -10.096657           4.085668
| 15>   H                      7.796566             -9.991265            3.549302
| 16>   H                      8.301989             -11.458165           3.995973
| 17>   C                      9.202785             -6.005696            3.073275
| 18>   O                      8.958415             -7.193723            3.871641
| 19>   H                      8.027412             -7.454308            3.797882
| 20>   H                      9.139643             -6.243452            2.007380
| 21>   H                      8.391360             -5.319012            3.253768
| 22>   H                      10.098898            -5.548324            3.361159
| 23> *
| 24>
| 25> #Run DFT-D3 single point of the molecule with dimer basis set
| 26> $new_job
| 27> %base "3-96_DFT_A"
| 28> ! wB97X-D3 def2-TZVP TIGHTSCF CHELPG PMODEL
| 29>
| 30> %scf
| 31> MaxIter 1000
| 32> end
| 33>
| 34> * xyz 0 1
| 35>   C                      8.643484             -10.596535           3.469221
| 36>   O                      8.955716             -10.854942           2.119081
| 37>   H                      9.117032             -9.999848            1.707795
| 38>   H                      9.382769             -10.096657           4.085668
| 39>   H                      7.796566             -9.991265            3.549302
| 40>   H                      8.301989             -11.458165           3.995973
| 41>   C                    : 9.202785             -6.005696            3.073275
| 42>   O                    : 8.958415             -7.193723            3.871641
| 43>   H                    : 8.027412             -7.454308            3.797882
| 44>   H                    : 9.139643             -6.243452            2.007380
| 45>   H                    : 8.391360             -5.319012            3.253768
| 46>   H                    : 10.098898            -5.548324            3.361159
| 47> *
| 48>
| 49> #Run DFT-D3 single point of the particle with dimer basis set
| 50> $new_job
| 51> %base "3-96_DFT_B"
| 52> ! wB97X-D3 def2-TZVP TIGHTSCF CHELPG PMODEL
| 53>
| 54> %scf
| 55> MaxIter 1000
| 56> end
| 57>
| 58> * xyz 0 1
| 59>   C                    : 8.643484             -10.596535           3.469221
| 60>   O                    : 8.955716             -10.854942           2.119081
| 61>   H                    : 9.117032             -9.999848            1.707795
| 62>   H                    : 9.382769             -10.096657           4.085668
| 63>   H                    : 7.796566             -9.991265            3.549302
| 64>   H                    : 8.301989             -11.458165           3.995973
| 65>   C                      9.202785             -6.005696            3.073275
| 66>   O                      8.958415             -7.193723            3.871641
| 67>   H                      8.027412             -7.454308            3.797882
| 68>   H                      9.139643             -6.243452            2.007380
| 69>   H                      8.391360             -5.319012            3.253768
| 70>   H                      10.098898            -5.548324            3.361159
| 71> *
| 72>
| 73>                          ****END OF INPUT****
 Total Charge           Charge          ....    0
 Multiplicity           Mult            ....    1
 Number of Electrons    NEL             ....   36
Dispersion correction           -0.001635049
FINAL SINGLE POINT ENERGY      -231.465885805872
Dispersion correction           -0.000239298
FINAL SINGLE POINT ENERGY      -115.730715697429

CARTESIAN COORDINATES (ANGSTROEM)
---------------------------------
  C      8.643484  -10.596535    3.469221
  O      8.955716  -10.854942    2.119081
  H      9.117032   -9.999848    1.707795
  H      9.382769  -10.096657    4.085668
  H      7.796566   -9.991265    3.549302
  H      8.301989  -11.458165    3.995973
  C      9.202785   -6.005696    3.073275
  O      8.958415   -7.193723    3.871641
  H      8.027412   -7.454308    3.797882
  H      9.139643   -6.243452    2.007380
  H      8.391360   -5.319012    3.253768
  H     10.098898   -5.548324    3.361159

 Multiplicity           Mult            ....    1
 Number of Electrons    NEL             ....   18
 Basis Dimension        Dim             ....  172

ORBITAL ENERGIES
----------------

  NO   OCC          E(Eh)            E(eV)
   0   2.0000     -19.227591      -523.2093
   1   2.0000     -10.310619      -280.5662
   2   2.0000      -1.120813       -30.4989
   3   2.0000      -0.801908       -21.8210
   4   2.0000      -0.604059       -16.4373
   5   2.0000      -0.541445       -14.7335
   6   2.0000      -0.529053       -14.3963
   7   2.0000      -0.435287       -11.8448
   8   2.0000      -0.371965       -10.1217
   9   0.0000       0.086935         2.3656
  10   0.0000       0.129661         3.5283
  11   0.0000       0.151001         4.1089
  12   0.0000       0.171100         4.6559
  13   0.0000       0.201055         5.4710

MULLIKEN ATOMIC CHARGES
-----------------------
   0 C :    0.000040
   1 O :    0.000789
   2 H :   -0.001660
   3 H :   -0.002820
   4 H :   -0.004610
   5 H :   -0.000828
   6 C :   -0.166845
   7 O :   -0.484296
   8 H :    0.316162
   9 H :    0.107749
  10 H :    0.108072
  11 H :    0.128247
Sum of atomic charges:   -0.0000000

LOEWDIN ATOMIC CHARGES
----------------------
   0 C :   -0.008374
   1 O :   -0.000066
   2 H :   -0.000926
   3 H :   -0.004109
   4 H :   -0.002623
   5 H :   -0.000127
   6 C :   -0.343605
   7 O :   -0.101724
   8 H :    0.171347
   9 H :    0.097486
  10 H :    0.094981
  11 H :    0.097741

  Mayer bond orders larger than 0.1
B(  6-C ,  7-O ) :   0.9882 B(  6-C ,  9-H ) :   0.9728 B(  6-C , 10-H ) :   0.9839
B(  6-C , 11-H ) :   0.9732 B(  7-O ,  8-H ) :   0.8967

Dispersion correction           -0.000238986
FINAL SINGLE POINT ENERGY      -115.733412788016

DIPOLE MOMENT
-------------
                                X             Y             Z
Electronic contribution:     -0.00492      -1.39121       1.01067
Nuclear contribution   :     -0.48966       1.77279      -1.38588
                        -----------------------------------------
Total Dipole Moment    :     -0.49457       0.38158      -0.37521
                        -----------------------------------------
Magnitude (a.u.)       :      0.72869
Magnitude (Debye)      :      1.85218

Rotational constants in cm-1:     4.370080     0.803062     0.773428
Rotational constants in MHz : 131011.693061 24075.195559 23186.789182

                             ****ORCA TERMINATED NORMALLY****
TOTAL RUN TIME: 0 days 0 hours 3 minutes 24 seconds 376 msec
