                         Program Version 4.1.2  - RELEASE  -
|  1> #Run DFT-D3 single point of the dimer
|  2> ! wB97X-D3 def2-TZVP TIGHTSCF CHELPG PMODEL PAL8
|  3>
|  4> %base "7-59_DFT_AB"
|  5>
|  6> %scf
|  7> MaxIter 1000
|  8> end
|  9>
| 10> * xyz 0 1
| 11>   C                      -1.585404            3.392058             7.212129
| 12>   O                      -2.120105            3.744945             8.520689
| 13>   H                      -1.462705            3.477092             9.167592
| 14>   H                      -2.311762            3.531126             6.455074
| 15>   H                      -0.759444            4.075805             6.822156
| 16>   H                      -1.228848            2.336794             7.215379
| 17>   C                      1.133568             -0.516884            6.785558
| 18>   O                      1.915771             0.504868             7.331157
| 19>   H                      2.600641             0.127832             7.936668
| 20>   H                      0.461457             -0.935861            7.569601
| 21>   H                      0.563237             -0.144390            5.969614
| 22>   H                      1.757236             -1.298917            6.418166
| 23> *
| 24>
| 25> #Run DFT-D3 single point of the molecule with dimer basis set
| 26> $new_job
| 27> %base "7-59_DFT_A"
| 28> ! wB97X-D3 def2-TZVP TIGHTSCF CHELPG PMODEL
| 29>
| 30> %scf
| 31> MaxIter 1000
| 32> end
| 33>
| 34> * xyz 0 1
| 35>   C                      -1.585404            3.392058             7.212129
| 36>   O                      -2.120105            3.744945             8.520689
| 37>   H                      -1.462705            3.477092             9.167592
| 38>   H                      -2.311762            3.531126             6.455074
| 39>   H                      -0.759444            4.075805             6.822156
| 40>   H                      -1.228848            2.336794             7.215379
| 41>   C                    : 1.133568             -0.516884            6.785558
| 42>   O                    : 1.915771             0.504868             7.331157
| 43>   H                    : 2.600641             0.127832             7.936668
| 44>   H                    : 0.461457             -0.935861            7.569601
| 45>   H                    : 0.563237             -0.144390            5.969614
| 46>   H                    : 1.757236             -1.298917            6.418166
| 47> *
| 48>
| 49> #Run DFT-D3 single point of the particle with dimer basis set
| 50> $new_job
| 51> %base "7-59_DFT_B"
| 52> ! wB97X-D3 def2-TZVP TIGHTSCF CHELPG PMODEL
| 53>
| 54> %scf
| 55> MaxIter 1000
| 56> end
| 57>
| 58> * xyz 0 1
| 59>   C                    : -1.585404            3.392058             7.212129
| 60>   O                    : -2.120105            3.744945             8.520689
| 61>   H                    : -1.462705            3.477092             9.167592
| 62>   H                    : -2.311762            3.531126             6.455074
| 63>   H                    : -0.759444            4.075805             6.822156
| 64>   H                    : -1.228848            2.336794             7.215379
| 65>   C                      1.133568             -0.516884            6.785558
| 66>   O                      1.915771             0.504868             7.331157
| 67>   H                      2.600641             0.127832             7.936668
| 68>   H                      0.461457             -0.935861            7.569601
| 69>   H                      0.563237             -0.144390            5.969614
| 70>   H                      1.757236             -1.298917            6.418166
| 71> *
| 72>
| 73>                          ****END OF INPUT****
 Total Charge           Charge          ....    0
 Multiplicity           Mult            ....    1
 Number of Electrons    NEL             ....   36
Dispersion correction           -0.001012549
FINAL SINGLE POINT ENERGY      -231.467459605320
Dispersion correction           -0.000275674
FINAL SINGLE POINT ENERGY      -115.731793295441

CARTESIAN COORDINATES (ANGSTROEM)
---------------------------------
  C     -1.585404    3.392058    7.212129
  O     -2.120105    3.744945    8.520689
  H     -1.462705    3.477092    9.167592
  H     -2.311762    3.531126    6.455074
  H     -0.759444    4.075805    6.822156
  H     -1.228848    2.336794    7.215379
  C      1.133568   -0.516884    6.785558
  O      1.915771    0.504868    7.331157
  H      2.600641    0.127832    7.936668
  H      0.461457   -0.935861    7.569601
  H      0.563237   -0.144390    5.969614
  H      1.757236   -1.298917    6.418166

 Multiplicity           Mult            ....    1
 Number of Electrons    NEL             ....   18
 Basis Dimension        Dim             ....  172

ORBITAL ENERGIES
----------------

  NO   OCC          E(Eh)            E(eV)
   0   2.0000     -19.228501      -523.2341
   1   2.0000     -10.306550      -280.4555
   2   2.0000      -1.133221       -30.8365
   3   2.0000      -0.795121       -21.6363
   4   2.0000      -0.609969       -16.5981
   5   2.0000      -0.543477       -14.7888
   6   2.0000      -0.533683       -14.5222
   7   2.0000      -0.429494       -11.6871
   8   2.0000      -0.369295       -10.0490
   9   0.0000       0.092719         2.5230
  10   0.0000       0.115051         3.1307
  11   0.0000       0.153581         4.1792
  12   0.0000       0.170135         4.6296
  13   0.0000       0.194962         5.3052

MULLIKEN ATOMIC CHARGES
-----------------------
   0 C :   -0.000846
   1 O :    0.000038
   2 H :   -0.000031
   3 H :   -0.000017
   4 H :    0.000012
   5 H :    0.000706
   6 C :   -0.158048
   7 O :   -0.485116
   8 H :    0.317401
   9 H :    0.095405
  10 H :    0.122747
  11 H :    0.107750
Sum of atomic charges:    0.0000000

LOEWDIN ATOMIC CHARGES
----------------------
   0 C :   -0.000399
   1 O :   -0.000008
   2 H :   -0.000017
   3 H :   -0.000009
   4 H :   -0.000032
   5 H :   -0.000369
   6 C :   -0.392235
   7 O :   -0.082091
   8 H :    0.185617
   9 H :    0.098030
  10 H :    0.102101
  11 H :    0.089413

  Mayer bond orders larger than 0.1
B(  6-C ,  7-O ) :   0.9915 B(  6-C ,  9-H ) :   0.9792 B(  6-C , 10-H ) :   0.9718
B(  6-C , 11-H ) :   0.9813 B(  7-O ,  8-H ) :   0.8926

Dispersion correction           -0.000226876
FINAL SINGLE POINT ENERGY      -115.734478844560

DIPOLE MOMENT
-------------
                                X             Y             Z
Electronic contribution:      0.90500       1.41167       0.54047
Nuclear contribution   :     -0.76457      -2.05762      -0.40206
                        -----------------------------------------
Total Dipole Moment    :      0.14043      -0.64595       0.13842
                        -----------------------------------------
Magnitude (a.u.)       :      0.67538
Magnitude (Debye)      :      1.71668

Rotational constants in cm-1:     4.314747     0.848337     0.819511
Rotational constants in MHz : 129352.850836 25432.504256 24568.331706

                             ****ORCA TERMINATED NORMALLY****
TOTAL RUN TIME: 0 days 0 hours 1 minutes 12 seconds 20 msec
