                         Program Version 4.1.2  - RELEASE  -
|  1> #Run DFT-D3 single point of the dimer
|  2> ! wB97X-D3 def2-TZVP TIGHTSCF CHELPG PMODEL PAL8
|  3>
|  4> %base "11-199_DFT_AB"
|  5>
|  6> %scf
|  7> MaxIter 1000
|  8> end
|  9>
| 10> * xyz 0 1
| 11>   C                      -0.907765            -10.387057           -7.837134
| 12>   O                      0.405391             -10.686019           -7.496707
| 13>   H                      0.426644             -10.754461           -6.527792
| 14>   H                      -1.282115            -9.678535            -7.062980
| 15>   H                      -0.910572            -9.964160            -8.848894
| 16>   H                      -1.557584            -11.213663           -7.775463
| 17>   C                      3.050934             -10.665024           -4.307386
| 18>   O                      2.092074             -10.525762           -5.298851
| 19>   H                      1.976535             -9.579363            -5.514077
| 20>   H                      2.688544             -10.157992           -3.413439
| 21>   H                      3.253577             -11.725895           -4.103417
| 22>   H                      4.051600             -10.308682           -4.484244
| 23> *
| 24>
| 25> #Run DFT-D3 single point of the molecule with dimer basis set
| 26> $new_job
| 27> %base "11-199_DFT_A"
| 28> ! wB97X-D3 def2-TZVP TIGHTSCF CHELPG PMODEL
| 29>
| 30> %scf
| 31> MaxIter 1000
| 32> end
| 33>
| 34> * xyz 0 1
| 35>   C                      -0.907765            -10.387057           -7.837134
| 36>   O                      0.405391             -10.686019           -7.496707
| 37>   H                      0.426644             -10.754461           -6.527792
| 38>   H                      -1.282115            -9.678535            -7.062980
| 39>   H                      -0.910572            -9.964160            -8.848894
| 40>   H                      -1.557584            -11.213663           -7.775463
| 41>   C                    : 3.050934             -10.665024           -4.307386
| 42>   O                    : 2.092074             -10.525762           -5.298851
| 43>   H                    : 1.976535             -9.579363            -5.514077
| 44>   H                    : 2.688544             -10.157992           -3.413439
| 45>   H                    : 3.253577             -11.725895           -4.103417
| 46>   H                    : 4.051600             -10.308682           -4.484244
| 47> *
| 48>
| 49> #Run DFT-D3 single point of the particle with dimer basis set
| 50> $new_job
| 51> %base "11-199_DFT_B"
| 52> ! wB97X-D3 def2-TZVP TIGHTSCF CHELPG PMODEL
| 53>
| 54> %scf
| 55> MaxIter 1000
| 56> end
| 57>
| 58> * xyz 0 1
| 59>   C                    : -0.907765            -10.387057           -7.837134
| 60>   O                    : 0.405391             -10.686019           -7.496707
| 61>   H                    : 0.426644             -10.754461           -6.527792
| 62>   H                    : -1.282115            -9.678535            -7.062980
| 63>   H                    : -0.910572            -9.964160            -8.848894
| 64>   H                    : -1.557584            -11.213663           -7.775463
| 65>   C                      3.050934             -10.665024           -4.307386
| 66>   O                      2.092074             -10.525762           -5.298851
| 67>   H                      1.976535             -9.579363            -5.514077
| 68>   H                      2.688544             -10.157992           -3.413439
| 69>   H                      3.253577             -11.725895           -4.103417
| 70>   H                      4.051600             -10.308682           -4.484244
| 71> *
| 72>
| 73>                          ****END OF INPUT****
 Total Charge           Charge          ....    0
 Multiplicity           Mult            ....    1
 Number of Electrons    NEL             ....   36
Dispersion correction           -0.001313485
FINAL SINGLE POINT ENERGY      -231.469166998190
Dispersion correction           -0.000210251
FINAL SINGLE POINT ENERGY      -115.732966943900

CARTESIAN COORDINATES (ANGSTROEM)
---------------------------------
  C     -0.907765  -10.387057   -7.837134
  O      0.405391  -10.686019   -7.496707
  H      0.426644  -10.754461   -6.527792
  H     -1.282115   -9.678535   -7.062980
  H     -0.910572   -9.964160   -8.848894
  H     -1.557584  -11.213663   -7.775463
  C      3.050934  -10.665024   -4.307386
  O      2.092074  -10.525762   -5.298851
  H      1.976535   -9.579363   -5.514077
  H      2.688544  -10.157992   -3.413439
  H      3.253577  -11.725895   -4.103417
  H      4.051600  -10.308682   -4.484244

 Multiplicity           Mult            ....    1
 Number of Electrons    NEL             ....   18
 Basis Dimension        Dim             ....  172

ORBITAL ENERGIES
----------------

  NO   OCC          E(Eh)            E(eV)
   0   2.0000     -19.233866      -523.3801
   1   2.0000     -10.308460      -280.5074
   2   2.0000      -1.142084       -31.0777
   3   2.0000      -0.796549       -21.6752
   4   2.0000      -0.617760       -16.8101
   5   2.0000      -0.550709       -14.9855
   6   2.0000      -0.523909       -14.2563
   7   2.0000      -0.429464       -11.6863
   8   2.0000      -0.372679       -10.1411
   9   0.0000       0.092567         2.5189
  10   0.0000       0.122287         3.3276
  11   0.0000       0.153196         4.1687
  12   0.0000       0.195208         5.3119
  13   0.0000       0.201136         5.4732

MULLIKEN ATOMIC CHARGES
-----------------------
   0 C :    0.001299
   1 O :    0.000137
   2 H :   -0.012912
   3 H :   -0.000400
   4 H :    0.000033
   5 H :   -0.000089
   6 C :   -0.155014
   7 O :   -0.456724
   8 H :    0.319358
   9 H :    0.093986
  10 H :    0.115466
  11 H :    0.094861
Sum of atomic charges:   -0.0000000

LOEWDIN ATOMIC CHARGES
----------------------
   0 C :   -0.000592
   1 O :   -0.008896
   2 H :   -0.027326
   3 H :   -0.000087
   4 H :   -0.000011
   5 H :   -0.000009
   6 C :   -0.408480
   7 O :   -0.035249
   8 H :    0.186078
   9 H :    0.094218
  10 H :    0.111408
  11 H :    0.088946

  Mayer bond orders larger than 0.1
B(  6-C ,  7-O ) :   1.0056 B(  6-C ,  9-H ) :   0.9864 B(  6-C , 10-H ) :   0.9762
B(  6-C , 11-H ) :   0.9650 B(  7-O ,  8-H ) :   0.8888

Dispersion correction           -0.000240361
FINAL SINGLE POINT ENERGY      -115.733199180106

DIPOLE MOMENT
-------------
                                X             Y             Z
Electronic contribution:     -1.28071       0.07358      -1.37370
Nuclear contribution   :      1.59822       0.46807       1.61632
                        -----------------------------------------
Total Dipole Moment    :      0.31750       0.54166       0.24262
                        -----------------------------------------
Magnitude (a.u.)       :      0.67310
Magnitude (Debye)      :      1.71089

Rotational constants in cm-1:     4.435650     0.850125     0.816872
Rotational constants in MHz : 132977.428703 25486.100978 24489.192813

                             ****ORCA TERMINATED NORMALLY****
TOTAL RUN TIME: 0 days 0 hours 1 minutes 13 seconds 619 msec
