                         Program Version 4.1.2  - RELEASE  -
|  1> #Run DFT-D3 single point of the dimer
|  2> ! wB97X-D3 def2-TZVP TIGHTSCF CHELPG PMODEL PAL8
|  3>
|  4> %base "16-145_DFT_AB"
|  5>
|  6> %scf
|  7> MaxIter 1000
|  8> end
|  9>
| 10> * xyz 0 1
| 11>   C                      -1.631992            1.956017             -9.277053
| 12>   O                      -1.772947            3.220567             -9.838238
| 13>   H                      -1.416225            3.163725             -10.735111
| 14>   H                      -1.824583            1.947769             -8.203156
| 15>   H                      -2.335217            1.321095             -9.892011
| 16>   H                      -0.550905            1.698402             -9.377842
| 17>   C                      1.223260             -1.480674            -8.357908
| 18>   O                      0.775474             -0.222044            -8.690268
| 19>   H                      -0.158119            -0.431225            -8.811252
| 20>   H                      2.308091             -1.483279            -8.461027
| 21>   H                      1.210435             -1.708440            -7.310833
| 22>   H                      0.795470             -2.240952            -8.929470
| 23> *
| 24>
| 25> #Run DFT-D3 single point of the molecule with dimer basis set
| 26> $new_job
| 27> %base "16-145_DFT_A"
| 28> ! wB97X-D3 def2-TZVP TIGHTSCF CHELPG PMODEL
| 29>
| 30> %scf
| 31> MaxIter 1000
| 32> end
| 33>
| 34> * xyz 0 1
| 35>   C                      -1.631992            1.956017             -9.277053
| 36>   O                      -1.772947            3.220567             -9.838238
| 37>   H                      -1.416225            3.163725             -10.735111
| 38>   H                      -1.824583            1.947769             -8.203156
| 39>   H                      -2.335217            1.321095             -9.892011
| 40>   H                      -0.550905            1.698402             -9.377842
| 41>   C                    : 1.223260             -1.480674            -8.357908
| 42>   O                    : 0.775474             -0.222044            -8.690268
| 43>   H                    : -0.158119            -0.431225            -8.811252
| 44>   H                    : 2.308091             -1.483279            -8.461027
| 45>   H                    : 1.210435             -1.708440            -7.310833
| 46>   H                    : 0.795470             -2.240952            -8.929470
| 47> *
| 48>
| 49> #Run DFT-D3 single point of the particle with dimer basis set
| 50> $new_job
| 51> %base "16-145_DFT_B"
| 52> ! wB97X-D3 def2-TZVP TIGHTSCF CHELPG PMODEL
| 53>
| 54> %scf
| 55> MaxIter 1000
| 56> end
| 57>
| 58> * xyz 0 1
| 59>   C                    : -1.631992            1.956017             -9.277053
| 60>   O                    : -1.772947            3.220567             -9.838238
| 61>   H                    : -1.416225            3.163725             -10.735111
| 62>   H                    : -1.824583            1.947769             -8.203156
| 63>   H                    : -2.335217            1.321095             -9.892011
| 64>   H                    : -0.550905            1.698402             -9.377842
| 65>   C                      1.223260             -1.480674            -8.357908
| 66>   O                      0.775474             -0.222044            -8.690268
| 67>   H                      -0.158119            -0.431225            -8.811252
| 68>   H                      2.308091             -1.483279            -8.461027
| 69>   H                      1.210435             -1.708440            -7.310833
| 70>   H                      0.795470             -2.240952            -8.929470
| 71> *
| 72>
| 73>                          ****END OF INPUT****
 Total Charge           Charge          ....    0
 Multiplicity           Mult            ....    1
 Number of Electrons    NEL             ....   36
Dispersion correction           -0.001361761
FINAL SINGLE POINT ENERGY      -231.456257079491
Dispersion correction           -0.000203318
FINAL SINGLE POINT ENERGY      -115.729267720388

CARTESIAN COORDINATES (ANGSTROEM)
---------------------------------
  C     -1.631992    1.956017   -9.277053
  O     -1.772947    3.220567   -9.838238
  H     -1.416225    3.163725  -10.735111
  H     -1.824583    1.947769   -8.203156
  H     -2.335217    1.321095   -9.892011
  H     -0.550905    1.698402   -9.377842
  C      1.223260   -1.480674   -8.357908
  O      0.775474   -0.222044   -8.690268
  H     -0.158119   -0.431225   -8.811252
  H      2.308091   -1.483279   -8.461027
  H      1.210435   -1.708440   -7.310833
  H      0.795470   -2.240952   -8.929470

 Multiplicity           Mult            ....    1
 Number of Electrons    NEL             ....   18
 Basis Dimension        Dim             ....  172

ORBITAL ENERGIES
----------------

  NO   OCC          E(Eh)            E(eV)
   0   2.0000     -19.235110      -523.4140
   1   2.0000     -10.300425      -280.2888
   2   2.0000      -1.155726       -31.4489
   3   2.0000      -0.797541       -21.7022
   4   2.0000      -0.621879       -16.9222
   5   2.0000      -0.556020       -15.1301
   6   2.0000      -0.526756       -14.3337
   7   2.0000      -0.443170       -12.0593
   8   2.0000      -0.372144       -10.1265
   9   0.0000       0.084135         2.2894
  10   0.0000       0.126787         3.4500
  11   0.0000       0.157683         4.2908
  12   0.0000       0.181517         4.9393
  13   0.0000       0.192786         5.2460

MULLIKEN ATOMIC CHARGES
-----------------------
   0 C :   -0.001999
   1 O :    0.000015
   2 H :    0.000014
   3 H :   -0.000190
   4 H :    0.000045
   5 H :   -0.005131
   6 C :   -0.179536
   7 O :   -0.439079
   8 H :    0.317550
   9 H :    0.108038
  10 H :    0.094304
  11 H :    0.105970
Sum of atomic charges:   -0.0000000

LOEWDIN ATOMIC CHARGES
----------------------
   0 C :   -0.008995
   1 O :   -0.000061
   2 H :   -0.000008
   3 H :   -0.000677
   4 H :   -0.000314
   5 H :   -0.009860
   6 C :   -0.419231
   7 O :   -0.033064
   8 H :    0.186304
   9 H :    0.109267
  10 H :    0.091262
  11 H :    0.085377

  Mayer bond orders larger than 0.1
B(  6-C ,  7-O ) :   1.0162 B(  6-C ,  9-H ) :   0.9832 B(  6-C , 10-H ) :   0.9706
B(  6-C , 11-H ) :   0.9839 B(  7-O ,  8-H ) :   0.8991

Dispersion correction           -0.000205301
FINAL SINGLE POINT ENERGY      -115.726588742822

DIPOLE MOMENT
-------------
                                X             Y             Z
Electronic contribution:     -0.62086       1.70552      -0.51260
Nuclear contribution   :      0.23152      -2.30088       0.55396
                        -----------------------------------------
Total Dipole Moment    :     -0.38934      -0.59536       0.04136
                        -----------------------------------------
Magnitude (a.u.)       :      0.71256
Magnitude (Debye)      :      1.81120

Rotational constants in cm-1:     4.450361     0.885857     0.841837
Rotational constants in MHz : 133418.452948 26557.328767 25237.623592

                             ****ORCA TERMINATED NORMALLY****
TOTAL RUN TIME: 0 days 0 hours 0 minutes 54 seconds 993 msec
