                         Program Version 4.1.2  - RELEASE  -
|  1> #Run DFT-D3 single point of the dimer
|  2> ! wB97X-D3 def2-TZVP TIGHTSCF CHELPG PMODEL PAL8
|  3>
|  4> %base "22-184_DFT_AB"
|  5>
|  6> %scf
|  7> MaxIter 1000
|  8> end
|  9>
| 10> * xyz 0 1
| 11>   C                      7.695051             -7.276950            0.412980
| 12>   O                      8.970194             -6.688546            0.221901
| 13>   H                      8.750554             -5.892536            -0.340025
| 14>   H                      7.752044             -8.187793            1.079230
| 15>   H                      6.997280             -6.546783            0.831304
| 16>   H                      7.280716             -7.647085            -0.589028
| 17>   C                      10.871998            -7.520388            3.575884
| 18>   O                      10.946414            -6.578942            2.617202
| 19>   H                      10.153854            -6.785670            2.096697
| 20>   H                      10.578821            -8.503729            3.263273
| 21>   H                      11.871519            -7.730637            3.961695
| 22>   H                      10.250930            -7.148476            4.458536
| 23> *
| 24>
| 25> #Run DFT-D3 single point of the molecule with dimer basis set
| 26> $new_job
| 27> %base "22-184_DFT_A"
| 28> ! wB97X-D3 def2-TZVP TIGHTSCF CHELPG PMODEL
| 29>
| 30> %scf
| 31> MaxIter 1000
| 32> end
| 33>
| 34> * xyz 0 1
| 35>   C                      7.695051             -7.276950            0.412980
| 36>   O                      8.970194             -6.688546            0.221901
| 37>   H                      8.750554             -5.892536            -0.340025
| 38>   H                      7.752044             -8.187793            1.079230
| 39>   H                      6.997280             -6.546783            0.831304
| 40>   H                      7.280716             -7.647085            -0.589028
| 41>   C                    : 10.871998            -7.520388            3.575884
| 42>   O                    : 10.946414            -6.578942            2.617202
| 43>   H                    : 10.153854            -6.785670            2.096697
| 44>   H                    : 10.578821            -8.503729            3.263273
| 45>   H                    : 11.871519            -7.730637            3.961695
| 46>   H                    : 10.250930            -7.148476            4.458536
| 47> *
| 48>
| 49> #Run DFT-D3 single point of the particle with dimer basis set
| 50> $new_job
| 51> %base "22-184_DFT_B"
| 52> ! wB97X-D3 def2-TZVP TIGHTSCF CHELPG PMODEL
| 53>
| 54> %scf
| 55> MaxIter 1000
| 56> end
| 57>
| 58> * xyz 0 1
| 59>   C                    : 7.695051             -7.276950            0.412980
| 60>   O                    : 8.970194             -6.688546            0.221901
| 61>   H                    : 8.750554             -5.892536            -0.340025
| 62>   H                    : 7.752044             -8.187793            1.079230
| 63>   H                    : 6.997280             -6.546783            0.831304
| 64>   H                    : 7.280716             -7.647085            -0.589028
| 65>   C                      10.871998            -7.520388            3.575884
| 66>   O                      10.946414            -6.578942            2.617202
| 67>   H                      10.153854            -6.785670            2.096697
| 68>   H                      10.578821            -8.503729            3.263273
| 69>   H                      11.871519            -7.730637            3.961695
| 70>   H                      10.250930            -7.148476            4.458536
| 71> *
| 72>
| 73>                          ****END OF INPUT****
 Total Charge           Charge          ....    0
 Multiplicity           Mult            ....    1
 Number of Electrons    NEL             ....   36
Dispersion correction           -0.001530608
FINAL SINGLE POINT ENERGY      -231.466179943747
Dispersion correction           -0.000234731
FINAL SINGLE POINT ENERGY      -115.732309266053

CARTESIAN COORDINATES (ANGSTROEM)
---------------------------------
  C      7.695051   -7.276950    0.412980
  O      8.970194   -6.688546    0.221901
  H      8.750554   -5.892536   -0.340025
  H      7.752044   -8.187793    1.079230
  H      6.997280   -6.546783    0.831304
  H      7.280716   -7.647085   -0.589028
  C     10.871998   -7.520388    3.575884
  O     10.946414   -6.578942    2.617202
  H     10.153854   -6.785670    2.096697
  H     10.578821   -8.503729    3.263273
  H     11.871519   -7.730637    3.961695
  H     10.250930   -7.148476    4.458536

 Multiplicity           Mult            ....    1
 Number of Electrons    NEL             ....   18
 Basis Dimension        Dim             ....  172

ORBITAL ENERGIES
----------------

  NO   OCC          E(Eh)            E(eV)
   0   2.0000     -19.236013      -523.4385
   1   2.0000     -10.308580      -280.5107
   2   2.0000      -1.164833       -31.6967
   3   2.0000      -0.788214       -21.4484
   4   2.0000      -0.624428       -16.9915
   5   2.0000      -0.552369       -15.0307
   6   2.0000      -0.533561       -14.5189
   7   2.0000      -0.430716       -11.7204
   8   2.0000      -0.372179       -10.1275
   9   0.0000       0.067085         1.8255
  10   0.0000       0.128600         3.4994
  11   0.0000       0.149261         4.0616
  12   0.0000       0.168262         4.5786
  13   0.0000       0.187427         5.1002

MULLIKEN ATOMIC CHARGES
-----------------------
   0 C :   -0.001765
   1 O :    0.000086
   2 H :    0.000007
   3 H :    0.000074
   4 H :    0.000110
   5 H :   -0.000029
   6 C :   -0.163373
   7 O :   -0.434932
   8 H :    0.315678
   9 H :    0.095404
  10 H :    0.102794
  11 H :    0.085946
Sum of atomic charges:   -0.0000000

LOEWDIN ATOMIC CHARGES
----------------------
   0 C :   -0.003025
   1 O :   -0.009342
   2 H :   -0.000471
   3 H :   -0.000282
   4 H :   -0.000073
   5 H :   -0.000076
   6 C :   -0.454337
   7 O :   -0.017104
   8 H :    0.191618
   9 H :    0.088565
  10 H :    0.104556
  11 H :    0.099970

  Mayer bond orders larger than 0.1
B(  6-C ,  7-O ) :   1.0174 B(  6-C ,  9-H ) :   0.9766 B(  6-C , 10-H ) :   0.9749
B(  6-C , 11-H ) :   0.9799 B(  7-O ,  8-H ) :   0.9043

Dispersion correction           -0.000211791
FINAL SINGLE POINT ENERGY      -115.727897665555

DIPOLE MOMENT
-------------
                                X             Y             Z
Electronic contribution:      0.17779       1.35770      -1.39503
Nuclear contribution   :     -0.65762      -1.82837       1.36030
                        -----------------------------------------
Total Dipole Moment    :     -0.47983      -0.47066      -0.03473
                        -----------------------------------------
Magnitude (a.u.)       :      0.67303
Magnitude (Debye)      :      1.71070

Rotational constants in cm-1:     4.233387     0.895439     0.873454
Rotational constants in MHz : 126913.737802 26844.596621 26185.479660

                             ****ORCA TERMINATED NORMALLY****
TOTAL RUN TIME: 0 days 0 hours 1 minutes 7 seconds 770 msec
