                         Program Version 4.1.2  - RELEASE  -
|  1> #Run DFT-D3 single point of the dimer
|  2> ! wB97X-D3 def2-TZVP TIGHTSCF CHELPG PMODEL PAL8
|  3>
|  4> %base "16-32_DFT_AB"
|  5>
|  6> %scf
|  7> MaxIter 1000
|  8> end
|  9>
| 10> * xyz 0 1
| 11>   C                      -9.948473            -1.812941            5.438624
| 12>   O                      -9.656483            -1.904055            6.869065
| 13>   H                      -8.898172            -2.436655            7.042660
| 14>   H                      -10.795136           -1.169837            5.194730
| 15>   H                      -9.039130            -1.454169            4.871001
| 16>   H                      -10.203844           -2.769139            4.921275
| 17>   C                      -8.326062            2.645754             3.193357
| 18>   O                      -9.471380            1.834753             3.573380
| 19>   H                      -9.147680            1.019631             3.952367
| 20>   H                      -8.261319            2.762300             2.108534
| 21>   H                      -8.453512            3.660884             3.527145
| 22>   H                      -7.380208            2.241632             3.505309
| 23> *
| 24>
| 25> #Run DFT-D3 single point of the molecule with dimer basis set
| 26> $new_job
| 27> %base "16-32_DFT_A"
| 28> ! wB97X-D3 def2-TZVP TIGHTSCF CHELPG PMODEL
| 29>
| 30> %scf
| 31> MaxIter 1000
| 32> end
| 33>
| 34> * xyz 0 1
| 35>   C                      -9.948473            -1.812941            5.438624
| 36>   O                      -9.656483            -1.904055            6.869065
| 37>   H                      -8.898172            -2.436655            7.042660
| 38>   H                      -10.795136           -1.169837            5.194730
| 39>   H                      -9.039130            -1.454169            4.871001
| 40>   H                      -10.203844           -2.769139            4.921275
| 41>   C                    : -8.326062            2.645754             3.193357
| 42>   O                    : -9.471380            1.834753             3.573380
| 43>   H                    : -9.147680            1.019631             3.952367
| 44>   H                    : -8.261319            2.762300             2.108534
| 45>   H                    : -8.453512            3.660884             3.527145
| 46>   H                    : -7.380208            2.241632             3.505309
| 47> *
| 48>
| 49> #Run DFT-D3 single point of the particle with dimer basis set
| 50> $new_job
| 51> %base "16-32_DFT_B"
| 52> ! wB97X-D3 def2-TZVP TIGHTSCF CHELPG PMODEL
| 53>
| 54> %scf
| 55> MaxIter 1000
| 56> end
| 57>
| 58> * xyz 0 1
| 59>   C                    : -9.948473            -1.812941            5.438624
| 60>   O                    : -9.656483            -1.904055            6.869065
| 61>   H                    : -8.898172            -2.436655            7.042660
| 62>   H                    : -10.795136           -1.169837            5.194730
| 63>   H                    : -9.039130            -1.454169            4.871001
| 64>   H                    : -10.203844           -2.769139            4.921275
| 65>   C                      -8.326062            2.645754             3.193357
| 66>   O                      -9.471380            1.834753             3.573380
| 67>   H                      -9.147680            1.019631             3.952367
| 68>   H                      -8.261319            2.762300             2.108534
| 69>   H                      -8.453512            3.660884             3.527145
| 70>   H                      -7.380208            2.241632             3.505309
| 71> *
| 72>
| 73>                          ****END OF INPUT****
 Total Charge           Charge          ....    0
 Multiplicity           Mult            ....    1
 Number of Electrons    NEL             ....   36
Dispersion correction           -0.001189884
FINAL SINGLE POINT ENERGY      -231.464272708645
Dispersion correction           -0.000296861
FINAL SINGLE POINT ENERGY      -115.730285863173

CARTESIAN COORDINATES (ANGSTROEM)
---------------------------------
  C     -9.948473   -1.812941    5.438624
  O     -9.656483   -1.904055    6.869065
  H     -8.898172   -2.436655    7.042660
  H    -10.795136   -1.169837    5.194730
  H     -9.039130   -1.454169    4.871001
  H    -10.203844   -2.769139    4.921275
  C     -8.326062    2.645754    3.193357
  O     -9.471380    1.834753    3.573380
  H     -9.147680    1.019631    3.952367
  H     -8.261319    2.762300    2.108534
  H     -8.453512    3.660884    3.527145
  H     -7.380208    2.241632    3.505309

 Multiplicity           Mult            ....    1
 Number of Electrons    NEL             ....   18
 Basis Dimension        Dim             ....  172

ORBITAL ENERGIES
----------------

  NO   OCC          E(Eh)            E(eV)
   0   2.0000     -19.230337      -523.2841
   1   2.0000     -10.312848      -280.6269
   2   2.0000      -1.125084       -30.6151
   3   2.0000      -0.802027       -21.8243
   4   2.0000      -0.607949       -16.5431
   5   2.0000      -0.531245       -14.4559
   6   2.0000      -0.527554       -14.3555
   7   2.0000      -0.441862       -12.0237
   8   2.0000      -0.373140       -10.1537
   9   0.0000       0.075222         2.0469
  10   0.0000       0.123363         3.3569
  11   0.0000       0.147019         4.0006
  12   0.0000       0.170107         4.6288
  13   0.0000       0.191161         5.2018

MULLIKEN ATOMIC CHARGES
-----------------------
   0 C :   -0.000120
   1 O :    0.000073
   2 H :    0.000006
   3 H :   -0.000199
   4 H :   -0.001082
   5 H :    0.000022
   6 C :   -0.169163
   7 O :   -0.480935
   8 H :    0.315463
   9 H :    0.109606
  10 H :    0.117834
  11 H :    0.108495
Sum of atomic charges:    0.0000000

LOEWDIN ATOMIC CHARGES
----------------------
   0 C :   -0.001603
   1 O :   -0.000014
   2 H :   -0.000001
   3 H :   -0.000341
   4 H :   -0.001469
   5 H :   -0.000017
   6 C :   -0.352411
   7 O :   -0.100760
   8 H :    0.163150
   9 H :    0.099553
  10 H :    0.100196
  11 H :    0.093717

  Mayer bond orders larger than 0.1
B(  6-C ,  7-O ) :   1.0060 B(  6-C ,  9-H ) :   0.9761 B(  6-C , 10-H ) :   0.9784
B(  6-C , 11-H ) :   0.9805 B(  7-O ,  8-H ) :   0.9026

Dispersion correction           -0.000267417
FINAL SINGLE POINT ENERGY      -115.733405646837

DIPOLE MOMENT
-------------
                                X             Y             Z
Electronic contribution:     -1.48477      -0.95598       0.53075
Nuclear contribution   :      2.18802       0.77711      -0.44703
                        -----------------------------------------
Total Dipole Moment    :      0.70325      -0.17887       0.08371
                        -----------------------------------------
Magnitude (a.u.)       :      0.73045
Magnitude (Debye)      :      1.85667

Rotational constants in cm-1:     4.450273     0.794290     0.760982
Rotational constants in MHz : 133415.840220 23812.202231 22813.668261

                             ****ORCA TERMINATED NORMALLY****
TOTAL RUN TIME: 0 days 0 hours 1 minutes 3 seconds 777 msec
