                         Program Version 4.1.2  - RELEASE  -
|  1> #Run DFT-D3 single point of the dimer
|  2> ! wB97X-D3 def2-TZVP TIGHTSCF CHELPG PMODEL PAL8
|  3>
|  4> %base "22-88_DFT_AB"
|  5>
|  6> %scf
|  7> MaxIter 1000
|  8> end
|  9>
| 10> * xyz 0 1
| 11>   C                      2.808889             0.844054             -8.414163
| 12>   O                      2.751306             -0.322919            -7.643315
| 13>   H                      2.321928             -0.062151            -6.767259
| 14>   H                      3.391022             0.885911             -9.374107
| 15>   H                      1.750066             0.987597             -8.760820
| 16>   H                      3.044555             1.683032             -7.747926
| 17>   C                      -0.175415            3.465032             -7.904652
| 18>   O                      0.826908             3.259719             -6.856385
| 19>   H                      0.711546             2.370965             -6.441981
| 20>   H                      -1.169431            3.420559             -7.469263
| 21>   H                      -0.150010            4.457220             -8.371209
| 22>   H                      -0.103712            2.536777             -8.615418
| 23> *
| 24>
| 25> #Run DFT-D3 single point of the molecule with dimer basis set
| 26> $new_job
| 27> %base "22-88_DFT_A"
| 28> ! wB97X-D3 def2-TZVP TIGHTSCF CHELPG PMODEL
| 29>
| 30> %scf
| 31> MaxIter 1000
| 32> end
| 33>
| 34> * xyz 0 1
| 35>   C                      2.808889             0.844054             -8.414163
| 36>   O                      2.751306             -0.322919            -7.643315
| 37>   H                      2.321928             -0.062151            -6.767259
| 38>   H                      3.391022             0.885911             -9.374107
| 39>   H                      1.750066             0.987597             -8.760820
| 40>   H                      3.044555             1.683032             -7.747926
| 41>   C                    : -0.175415            3.465032             -7.904652
| 42>   O                    : 0.826908             3.259719             -6.856385
| 43>   H                    : 0.711546             2.370965             -6.441981
| 44>   H                    : -1.169431            3.420559             -7.469263
| 45>   H                    : -0.150010            4.457220             -8.371209
| 46>   H                    : -0.103712            2.536777             -8.615418
| 47> *
| 48>
| 49> #Run DFT-D3 single point of the particle with dimer basis set
| 50> $new_job
| 51> %base "22-88_DFT_B"
| 52> ! wB97X-D3 def2-TZVP TIGHTSCF CHELPG PMODEL
| 53>
| 54> %scf
| 55> MaxIter 1000
| 56> end
| 57>
| 58> * xyz 0 1
| 59>   C                    : 2.808889             0.844054             -8.414163
| 60>   O                    : 2.751306             -0.322919            -7.643315
| 61>   H                    : 2.321928             -0.062151            -6.767259
| 62>   H                    : 3.391022             0.885911             -9.374107
| 63>   H                    : 1.750066             0.987597             -8.760820
| 64>   H                    : 3.044555             1.683032             -7.747926
| 65>   C                      -0.175415            3.465032             -7.904652
| 66>   O                      0.826908             3.259719             -6.856385
| 67>   H                      0.711546             2.370965             -6.441981
| 68>   H                      -1.169431            3.420559             -7.469263
| 69>   H                      -0.150010            4.457220             -8.371209
| 70>   H                      -0.103712            2.536777             -8.615418
| 71> *
| 72>
| 73>                          ****END OF INPUT****
 Total Charge           Charge          ....    0
 Multiplicity           Mult            ....    1
 Number of Electrons    NEL             ....   36
Dispersion correction           -0.001998739
FINAL SINGLE POINT ENERGY      -231.451092098357
Dispersion correction           -0.000226306
FINAL SINGLE POINT ENERGY      -115.723780527483

CARTESIAN COORDINATES (ANGSTROEM)
---------------------------------
  C      2.808889    0.844054   -8.414163
  O      2.751306   -0.322919   -7.643315
  H      2.321928   -0.062151   -6.767259
  H      3.391022    0.885911   -9.374107
  H      1.750066    0.987597   -8.760820
  H      3.044555    1.683032   -7.747926
  C     -0.175415    3.465032   -7.904652
  O      0.826908    3.259719   -6.856385
  H      0.711546    2.370965   -6.441981
  H     -1.169431    3.420559   -7.469263
  H     -0.150010    4.457220   -8.371209
  H     -0.103712    2.536777   -8.615418

 Multiplicity           Mult            ....    1
 Number of Electrons    NEL             ....   18
 Basis Dimension        Dim             ....  172

ORBITAL ENERGIES
----------------

  NO   OCC          E(Eh)            E(eV)
   0   2.0000     -19.231569      -523.3176
   1   2.0000     -10.326699      -281.0038
   2   2.0000      -1.115119       -30.3439
   3   2.0000      -0.792174       -21.5561
   4   2.0000      -0.596607       -16.2345
   5   2.0000      -0.538048       -14.6410
   6   2.0000      -0.519783       -14.1440
   7   2.0000      -0.431382       -11.7385
   8   2.0000      -0.370164       -10.0727
   9   0.0000       0.079726         2.1695
  10   0.0000       0.132734         3.6119
  11   0.0000       0.140583         3.8255
  12   0.0000       0.170013         4.6263
  13   0.0000       0.184878         5.0308

MULLIKEN ATOMIC CHARGES
-----------------------
   0 C :   -0.008410
   1 O :    0.001011
   2 H :   -0.000578
   3 H :   -0.000732
   4 H :    0.001584
   5 H :   -0.002295
   6 C :   -0.179753
   7 O :   -0.482099
   8 H :    0.320090
   9 H :    0.112949
  10 H :    0.134481
  11 H :    0.103754
Sum of atomic charges:    0.0000000

LOEWDIN ATOMIC CHARGES
----------------------
   0 C :   -0.007840
   1 O :   -0.000064
   2 H :   -0.000780
   3 H :   -0.000102
   4 H :   -0.003614
   5 H :   -0.006107
   6 C :   -0.356546
   7 O :   -0.120682
   8 H :    0.181235
   9 H :    0.092701
  10 H :    0.110471
  11 H :    0.111328

  Mayer bond orders larger than 0.1
B(  6-C ,  7-O ) :   0.9850 B(  6-C ,  9-H ) :   0.9755 B(  6-C , 10-H ) :   0.9681
B(  6-C , 11-H ) :   0.9768 B(  7-O ,  8-H ) :   0.8913

Dispersion correction           -0.000266381
FINAL SINGLE POINT ENERGY      -115.726740390695

DIPOLE MOMENT
-------------
                                X             Y             Z
Electronic contribution:      1.34083       0.06463       1.21124
Nuclear contribution   :     -1.87886      -0.49762      -1.36570
                        -----------------------------------------
Total Dipole Moment    :     -0.53803      -0.43299      -0.15446
                        -----------------------------------------
Magnitude (a.u.)       :      0.70769
Magnitude (Debye)      :      1.79879

Rotational constants in cm-1:     4.099383     0.782325     0.747736
Rotational constants in MHz : 122896.420555 23453.524837 22416.568243

                             ****ORCA TERMINATED NORMALLY****
TOTAL RUN TIME: 0 days 0 hours 0 minutes 56 seconds 317 msec
