                         Program Version 4.1.2  - RELEASE  -
|  1> #Run DFT-D3 single point of the dimer
|  2> ! wB97X-D3 def2-TZVP TIGHTSCF CHELPG PMODEL PAL8
|  3>
|  4> %base "11-135_DFT_AB"
|  5>
|  6> %scf
|  7> MaxIter 1000
|  8> end
|  9>
| 10> * xyz 0 1
| 11>   C                      -3.148170            5.526536             0.250592
| 12>   O                      -4.122243            6.461500             0.653780
| 13>   H                      -4.972779            6.142392             0.328687
| 14>   H                      -2.964292            5.774731             -0.804132
| 15>   H                      -2.171916            5.713092             0.804986
| 16>   H                      -3.408570            4.525718             0.398298
| 17>   C                      -6.627658            7.081964             3.362169
| 18>   O                      -5.285582            6.645281             3.332176
| 19>   H                      -5.029885            6.674027             2.389215
| 20>   H                      -7.282603            6.314999             2.972260
| 21>   H                      -6.947798            7.487413             4.321601
| 22>   H                      -6.790034            7.846642             2.565367
| 23> *
| 24>
| 25> #Run DFT-D3 single point of the molecule with dimer basis set
| 26> $new_job
| 27> %base "11-135_DFT_A"
| 28> ! wB97X-D3 def2-TZVP TIGHTSCF CHELPG PMODEL
| 29>
| 30> %scf
| 31> MaxIter 1000
| 32> end
| 33>
| 34> * xyz 0 1
| 35>   C                      -3.148170            5.526536             0.250592
| 36>   O                      -4.122243            6.461500             0.653780
| 37>   H                      -4.972779            6.142392             0.328687
| 38>   H                      -2.964292            5.774731             -0.804132
| 39>   H                      -2.171916            5.713092             0.804986
| 40>   H                      -3.408570            4.525718             0.398298
| 41>   C                    : -6.627658            7.081964             3.362169
| 42>   O                    : -5.285582            6.645281             3.332176
| 43>   H                    : -5.029885            6.674027             2.389215
| 44>   H                    : -7.282603            6.314999             2.972260
| 45>   H                    : -6.947798            7.487413             4.321601
| 46>   H                    : -6.790034            7.846642             2.565367
| 47> *
| 48>
| 49> #Run DFT-D3 single point of the particle with dimer basis set
| 50> $new_job
| 51> %base "11-135_DFT_B"
| 52> ! wB97X-D3 def2-TZVP TIGHTSCF CHELPG PMODEL
| 53>
| 54> %scf
| 55> MaxIter 1000
| 56> end
| 57>
| 58> * xyz 0 1
| 59>   C                    : -3.148170            5.526536             0.250592
| 60>   O                    : -4.122243            6.461500             0.653780
| 61>   H                    : -4.972779            6.142392             0.328687
| 62>   H                    : -2.964292            5.774731             -0.804132
| 63>   H                    : -2.171916            5.713092             0.804986
| 64>   H                    : -3.408570            4.525718             0.398298
| 65>   C                      -6.627658            7.081964             3.362169
| 66>   O                      -5.285582            6.645281             3.332176
| 67>   H                      -5.029885            6.674027             2.389215
| 68>   H                      -7.282603            6.314999             2.972260
| 69>   H                      -6.947798            7.487413             4.321601
| 70>   H                      -6.790034            7.846642             2.565367
| 71> *
| 72>
| 73>                          ****END OF INPUT****
 Total Charge           Charge          ....    0
 Multiplicity           Mult            ....    1
 Number of Electrons    NEL             ....   36
Dispersion correction           -0.001574044
FINAL SINGLE POINT ENERGY      -231.469460594718
Dispersion correction           -0.000224914
FINAL SINGLE POINT ENERGY      -115.732091400848

CARTESIAN COORDINATES (ANGSTROEM)
---------------------------------
  C     -3.148170    5.526536    0.250592
  O     -4.122243    6.461500    0.653780
  H     -4.972779    6.142392    0.328687
  H     -2.964292    5.774731   -0.804132
  H     -2.171916    5.713092    0.804986
  H     -3.408570    4.525718    0.398298
  C     -6.627658    7.081964    3.362169
  O     -5.285582    6.645281    3.332176
  H     -5.029885    6.674027    2.389215
  H     -7.282603    6.314999    2.972260
  H     -6.947798    7.487413    4.321601
  H     -6.790034    7.846642    2.565367

 Multiplicity           Mult            ....    1
 Number of Electrons    NEL             ....   18
 Basis Dimension        Dim             ....  172

ORBITAL ENERGIES
----------------

  NO   OCC          E(Eh)            E(eV)
   0   2.0000     -19.232769      -523.3503
   1   2.0000     -10.314462      -280.6708
   2   2.0000      -1.136310       -30.9206
   3   2.0000      -0.792924       -21.5766
   4   2.0000      -0.613632       -16.6978
   5   2.0000      -0.541594       -14.7375
   6   2.0000      -0.525513       -14.2999
   7   2.0000      -0.438927       -11.9438
   8   2.0000      -0.369113       -10.0441
   9   0.0000       0.070334         1.9139
  10   0.0000       0.122448         3.3320
  11   0.0000       0.154314         4.1991
  12   0.0000       0.177031         4.8173
  13   0.0000       0.189982         5.1697

MULLIKEN ATOMIC CHARGES
-----------------------
   0 C :   -0.000132
   1 O :   -0.002142
   2 H :   -0.001514
   3 H :   -0.000006
   4 H :    0.000029
   5 H :   -0.000268
   6 C :   -0.171224
   7 O :   -0.465509
   8 H :    0.315144
   9 H :    0.104512
  10 H :    0.125178
  11 H :    0.095932
Sum of atomic charges:   -0.0000000

LOEWDIN ATOMIC CHARGES
----------------------
   0 C :   -0.002280
   1 O :   -0.018092
   2 H :   -0.003964
   3 H :   -0.000055
   4 H :   -0.000077
   5 H :   -0.000145
   6 C :   -0.390808
   7 O :   -0.074303
   8 H :    0.192396
   9 H :    0.092437
  10 H :    0.106350
  11 H :    0.098542

  Mayer bond orders larger than 0.1
B(  6-C ,  7-O ) :   0.9936 B(  6-C ,  9-H ) :   0.9726 B(  6-C , 10-H ) :   0.9706
B(  6-C , 11-H ) :   0.9885 B(  7-O ,  8-H ) :   0.9024

Dispersion correction           -0.000225275
FINAL SINGLE POINT ENERGY      -115.731383584256

DIPOLE MOMENT
-------------
                                X             Y             Z
Electronic contribution:      1.75767      -0.61504       0.34384
Nuclear contribution   :     -2.12751       0.81110      -0.92780
                        -----------------------------------------
Total Dipole Moment    :     -0.36984       0.19606      -0.58396
                        -----------------------------------------
Magnitude (a.u.)       :      0.71849
Magnitude (Debye)      :      1.82627

Rotational constants in cm-1:     4.251060     0.841102     0.797193
Rotational constants in MHz : 127443.562654 25215.598704 23899.249198

                             ****ORCA TERMINATED NORMALLY****
TOTAL RUN TIME: 0 days 0 hours 1 minutes 15 seconds 500 msec
