                         Program Version 4.1.2  - RELEASE  -
|  1> #Run DFT-D3 single point of the dimer
|  2> ! wB97X-D3 def2-TZVP TIGHTSCF CHELPG PMODEL PAL8
|  3>
|  4> %base "4-63_DFT_AB"
|  5>
|  6> %scf
|  7> MaxIter 1000
|  8> end
|  9>
| 10> * xyz 0 1
| 11>   C                      3.051319             10.744531            -1.095731
| 12>   O                      4.041918             9.795528             -1.066697
| 13>   H                      3.695005             9.045905             -1.508227
| 14>   H                      2.823380             11.193484            -2.079917
| 15>   H                      2.116573             10.257582            -0.937231
| 16>   H                      3.298022             11.551580            -0.358631
| 17>   C                      6.954746             7.491548             2.890849
| 18>   O                      6.315243             6.971353             1.717059
| 19>   H                      5.920077             7.735909             1.324826
| 20>   H                      7.605254             6.722106             3.359889
| 21>   H                      7.647488             8.305513             2.508878
| 22>   H                      6.250953             7.862724             3.602146
| 23> *
| 24>
| 25> #Run DFT-D3 single point of the molecule with dimer basis set
| 26> $new_job
| 27> %base "4-63_DFT_A"
| 28> ! wB97X-D3 def2-TZVP TIGHTSCF CHELPG PMODEL
| 29>
| 30> %scf
| 31> MaxIter 1000
| 32> end
| 33>
| 34> * xyz 0 1
| 35>   C                      3.051319             10.744531            -1.095731
| 36>   O                      4.041918             9.795528             -1.066697
| 37>   H                      3.695005             9.045905             -1.508227
| 38>   H                      2.823380             11.193484            -2.079917
| 39>   H                      2.116573             10.257582            -0.937231
| 40>   H                      3.298022             11.551580            -0.358631
| 41>   C                    : 6.954746             7.491548             2.890849
| 42>   O                    : 6.315243             6.971353             1.717059
| 43>   H                    : 5.920077             7.735909             1.324826
| 44>   H                    : 7.605254             6.722106             3.359889
| 45>   H                    : 7.647488             8.305513             2.508878
| 46>   H                    : 6.250953             7.862724             3.602146
| 47> *
| 48>
| 49> #Run DFT-D3 single point of the particle with dimer basis set
| 50> $new_job
| 51> %base "4-63_DFT_B"
| 52> ! wB97X-D3 def2-TZVP TIGHTSCF CHELPG PMODEL
| 53>
| 54> %scf
| 55> MaxIter 1000
| 56> end
| 57>
| 58> * xyz 0 1
| 59>   C                    : 3.051319             10.744531            -1.095731
| 60>   O                    : 4.041918             9.795528             -1.066697
| 61>   H                    : 3.695005             9.045905             -1.508227
| 62>   H                    : 2.823380             11.193484            -2.079917
| 63>   H                    : 2.116573             10.257582            -0.937231
| 64>   H                    : 3.298022             11.551580            -0.358631
| 65>   C                      6.954746             7.491548             2.890849
| 66>   O                      6.315243             6.971353             1.717059
| 67>   H                      5.920077             7.735909             1.324826
| 68>   H                      7.605254             6.722106             3.359889
| 69>   H                      7.647488             8.305513             2.508878
| 70>   H                      6.250953             7.862724             3.602146
| 71> *
| 72>
| 73>                          ****END OF INPUT****
 Total Charge           Charge          ....    0
 Multiplicity           Mult            ....    1
 Number of Electrons    NEL             ....   36
Dispersion correction           -0.000677448
FINAL SINGLE POINT ENERGY      -231.464110492964
Dispersion correction           -0.000214605
FINAL SINGLE POINT ENERGY      -115.729367898061

CARTESIAN COORDINATES (ANGSTROEM)
---------------------------------
  C      3.051319   10.744531   -1.095731
  O      4.041918    9.795528   -1.066697
  H      3.695005    9.045905   -1.508227
  H      2.823380   11.193484   -2.079917
  H      2.116573   10.257582   -0.937231
  H      3.298022   11.551580   -0.358631
  C      6.954746    7.491548    2.890849
  O      6.315243    6.971353    1.717059
  H      5.920077    7.735909    1.324826
  H      7.605254    6.722106    3.359889
  H      7.647488    8.305513    2.508878
  H      6.250953    7.862724    3.602146

 Multiplicity           Mult            ....    1
 Number of Electrons    NEL             ....   18
 Basis Dimension        Dim             ....  172

ORBITAL ENERGIES
----------------

  NO   OCC          E(Eh)            E(eV)
   0   2.0000     -19.227686      -523.2119
   1   2.0000     -10.318295      -280.7751
   2   2.0000      -1.135322       -30.8937
   3   2.0000      -0.791948       -21.5500
   4   2.0000      -0.604245       -16.4423
   5   2.0000      -0.546601       -14.8738
   6   2.0000      -0.524187       -14.2638
   7   2.0000      -0.435237       -11.8434
   8   2.0000      -0.374116       -10.1802
   9   0.0000       0.078721         2.1421
  10   0.0000       0.113757         3.0955
  11   0.0000       0.149674         4.0728
  12   0.0000       0.172088         4.6828
  13   0.0000       0.187870         5.1122

MULLIKEN ATOMIC CHARGES
-----------------------
   0 C :   -0.000031
   1 O :   -0.000028
   2 H :   -0.000008
   3 H :    0.000000
   4 H :    0.000002
   5 H :    0.000002
   6 C :   -0.179613
   7 O :   -0.470639
   8 H :    0.311850
   9 H :    0.121919
  10 H :    0.103320
  11 H :    0.113226
Sum of atomic charges:   -0.0000000

LOEWDIN ATOMIC CHARGES
----------------------
   0 C :   -0.000019
   1 O :   -0.000120
   2 H :   -0.000045
   3 H :   -0.000001
   4 H :   -0.000000
   5 H :   -0.000000
   6 C :   -0.373502
   7 O :   -0.089478
   8 H :    0.158733
   9 H :    0.111691
  10 H :    0.104239
  11 H :    0.088503

  Mayer bond orders larger than 0.1
B(  6-C ,  7-O ) :   0.9907 B(  6-C ,  9-H ) :   0.9716 B(  6-C , 10-H ) :   0.9868
B(  6-C , 11-H ) :   0.9683 B(  7-O ,  8-H ) :   0.9053

Dispersion correction           -0.000225224
FINAL SINGLE POINT ENERGY      -115.732943078469

DIPOLE MOMENT
-------------
                                X             Y             Z
Electronic contribution:     -0.86012      -0.83470      -1.32788
Nuclear contribution   :      0.86961       1.51190       1.56151
                        -----------------------------------------
Total Dipole Moment    :      0.00949       0.67720       0.23364
                        -----------------------------------------
Magnitude (a.u.)       :      0.71643
Magnitude (Debye)      :      1.82102

Rotational constants in cm-1:     4.153609     0.820095     0.793437
Rotational constants in MHz : 124522.050298 24585.835373 23786.628335

                             ****ORCA TERMINATED NORMALLY****
TOTAL RUN TIME: 0 days 0 hours 1 minutes 34 seconds 870 msec
