                         Program Version 4.1.2  - RELEASE  -
|  1> #Run DFT-D3 single point of the dimer
|  2> ! wB97X-D3 def2-TZVP TIGHTSCF CHELPG PMODEL PAL8
|  3>
|  4> %base "18-168_DFT_AB"
|  5>
|  6> %scf
|  7> MaxIter 1000
|  8> end
|  9>
| 10> * xyz 0 1
| 11>   C                      10.902052            8.241988             6.870853
| 12>   O                      9.716200             8.730091             7.378162
| 13>   H                      9.123382             8.071701             7.731173
| 14>   H                      10.839917            7.174667             6.614693
| 15>   H                      11.198627            8.886888             6.007159
| 16>   H                      11.664649            8.276509             7.609887
| 17>   C                      6.999901             5.861613             7.645949
| 18>   O                      7.965901             6.568074             8.477822
| 19>   H                      8.482590             5.768734             8.894697
| 20>   H                      7.159892             4.785389             7.721795
| 21>   H                      5.910100             6.019634             7.758942
| 22>   H                      7.232210             6.064417             6.560629
| 23> *
| 24>
| 25> #Run DFT-D3 single point of the molecule with dimer basis set
| 26> $new_job
| 27> %base "18-168_DFT_A"
| 28> ! wB97X-D3 def2-TZVP TIGHTSCF CHELPG PMODEL
| 29>
| 30> %scf
| 31> MaxIter 1000
| 32> end
| 33>
| 34> * xyz 0 1
| 35>   C                      10.902052            8.241988             6.870853
| 36>   O                      9.716200             8.730091             7.378162
| 37>   H                      9.123382             8.071701             7.731173
| 38>   H                      10.839917            7.174667             6.614693
| 39>   H                      11.198627            8.886888             6.007159
| 40>   H                      11.664649            8.276509             7.609887
| 41>   C                    : 6.999901             5.861613             7.645949
| 42>   O                    : 7.965901             6.568074             8.477822
| 43>   H                    : 8.482590             5.768734             8.894697
| 44>   H                    : 7.159892             4.785389             7.721795
| 45>   H                    : 5.910100             6.019634             7.758942
| 46>   H                    : 7.232210             6.064417             6.560629
| 47> *
| 48>
| 49> #Run DFT-D3 single point of the particle with dimer basis set
| 50> $new_job
| 51> %base "18-168_DFT_B"
| 52> ! wB97X-D3 def2-TZVP TIGHTSCF CHELPG PMODEL
| 53>
| 54> %scf
| 55> MaxIter 1000
| 56> end
| 57>
| 58> * xyz 0 1
| 59>   C                    : 10.902052            8.241988             6.870853
| 60>   O                    : 9.716200             8.730091             7.378162
| 61>   H                    : 9.123382             8.071701             7.731173
| 62>   H                    : 10.839917            7.174667             6.614693
| 63>   H                    : 11.198627            8.886888             6.007159
| 64>   H                    : 11.664649            8.276509             7.609887
| 65>   C                      6.999901             5.861613             7.645949
| 66>   O                      7.965901             6.568074             8.477822
| 67>   H                      8.482590             5.768734             8.894697
| 68>   H                      7.159892             4.785389             7.721795
| 69>   H                      5.910100             6.019634             7.758942
| 70>   H                      7.232210             6.064417             6.560629
| 71> *
| 72>
| 73>                          ****END OF INPUT****
 Total Charge           Charge          ....    0
 Multiplicity           Mult            ....    1
 Number of Electrons    NEL             ....   36
Dispersion correction           -0.001673520
FINAL SINGLE POINT ENERGY      -231.463433386033
Dispersion correction           -0.000238477
FINAL SINGLE POINT ENERGY      -115.732968875080

CARTESIAN COORDINATES (ANGSTROEM)
---------------------------------
  C     10.902052    8.241988    6.870853
  O      9.716200    8.730091    7.378162
  H      9.123382    8.071701    7.731173
  H     10.839917    7.174667    6.614693
  H     11.198627    8.886888    6.007159
  H     11.664649    8.276509    7.609887
  C      6.999901    5.861613    7.645949
  O      7.965901    6.568074    8.477822
  H      8.482590    5.768734    8.894697
  H      7.159892    4.785389    7.721795
  H      5.910100    6.019634    7.758942
  H      7.232210    6.064417    6.560629

 Multiplicity           Mult            ....    1
 Number of Electrons    NEL             ....   18
 Basis Dimension        Dim             ....  172

ORBITAL ENERGIES
----------------

  NO   OCC          E(Eh)            E(eV)
   0   2.0000     -19.243971      -523.6551
   1   2.0000     -10.321883      -280.8727
   2   2.0000      -1.116792       -30.3895
   3   2.0000      -0.788863       -21.4660
   4   2.0000      -0.597549       -16.2601
   5   2.0000      -0.532995       -14.5035
   6   2.0000      -0.518704       -14.1147
   7   2.0000      -0.438391       -11.9292
   8   2.0000      -0.375660       -10.2222
   9   0.0000       0.088225         2.4007
  10   0.0000       0.115262         3.1364
  11   0.0000       0.142635         3.8813
  12   0.0000       0.180364         4.9080
  13   0.0000       0.199085         5.4174

MULLIKEN ATOMIC CHARGES
-----------------------
   0 C :   -0.001195
   1 O :   -0.001975
   2 H :   -0.002472
   3 H :   -0.002233
   4 H :   -0.000193
   5 H :    0.000081
   6 C :   -0.203948
   7 O :   -0.456585
   8 H :    0.320438
   9 H :    0.110877
  10 H :    0.122609
  11 H :    0.114595
Sum of atomic charges:   -0.0000000

LOEWDIN ATOMIC CHARGES
----------------------
   0 C :   -0.002380
   1 O :   -0.003665
   2 H :   -0.034225
   3 H :   -0.000961
   4 H :   -0.000041
   5 H :   -0.000031
   6 C :   -0.379821
   7 O :   -0.100519
   8 H :    0.215944
   9 H :    0.095933
  10 H :    0.103434
  11 H :    0.106332

  Mayer bond orders larger than 0.1
B(  6-C ,  7-O ) :   1.0038 B(  6-C ,  9-H ) :   0.9841 B(  6-C , 10-H ) :   0.9648
B(  6-C , 11-H ) :   0.9788 B(  7-O ,  8-H ) :   0.8927

Dispersion correction           -0.000276679
FINAL SINGLE POINT ENERGY      -115.722354094007

DIPOLE MOMENT
-------------
                                X             Y             Z
Electronic contribution:      1.08937       1.18909       1.19026
Nuclear contribution   :     -1.15933      -1.98103      -1.26385
                        -----------------------------------------
Total Dipole Moment    :     -0.06997      -0.79194      -0.07359
                        -----------------------------------------
Magnitude (a.u.)       :      0.79842
Magnitude (Debye)      :      2.02942

Rotational constants in cm-1:     4.152233     0.782717     0.752317
Rotational constants in MHz : 124480.815339 23465.254032 22553.882467

                             ****ORCA TERMINATED NORMALLY****
TOTAL RUN TIME: 0 days 0 hours 1 minutes 6 seconds 478 msec
