                         Program Version 4.1.2  - RELEASE  -
|  1> #Run DFT-D3 single point of the dimer
|  2> ! wB97X-D3 def2-TZVP TIGHTSCF CHELPG PMODEL PAL8
|  3>
|  4> %base "2-90_DFT_AB"
|  5>
|  6> %scf
|  7> MaxIter 1000
|  8> end
|  9>
| 10> * xyz 0 1
| 11>   C                      5.076919             -10.100200           -4.491884
| 12>   O                      4.875564             -8.751591            -4.271763
| 13>   H                      5.776038             -8.429535            -4.025102
| 14>   H                      4.079127             -10.597135           -4.605720
| 15>   H                      5.674618             -10.291725           -5.409982
| 16>   H                      5.579315             -10.598143           -3.609433
| 17>   C                      1.939360             -9.035453            -7.082805
| 18>   O                      3.045270             -8.165502            -7.097040
| 19>   H                      3.112391             -7.736880            -6.215927
| 20>   H                      1.745708             -9.488842            -6.117196
| 21>   H                      0.983521             -8.509977            -7.267819
| 22>   H                      2.094026             -9.756410            -7.788334
| 23> *
| 24>
| 25> #Run DFT-D3 single point of the molecule with dimer basis set
| 26> $new_job
| 27> %base "2-90_DFT_A"
| 28> ! wB97X-D3 def2-TZVP TIGHTSCF CHELPG PMODEL
| 29>
| 30> %scf
| 31> MaxIter 1000
| 32> end
| 33>
| 34> * xyz 0 1
| 35>   C                      5.076919             -10.100200           -4.491884
| 36>   O                      4.875564             -8.751591            -4.271763
| 37>   H                      5.776038             -8.429535            -4.025102
| 38>   H                      4.079127             -10.597135           -4.605720
| 39>   H                      5.674618             -10.291725           -5.409982
| 40>   H                      5.579315             -10.598143           -3.609433
| 41>   C                    : 1.939360             -9.035453            -7.082805
| 42>   O                    : 3.045270             -8.165502            -7.097040
| 43>   H                    : 3.112391             -7.736880            -6.215927
| 44>   H                    : 1.745708             -9.488842            -6.117196
| 45>   H                    : 0.983521             -8.509977            -7.267819
| 46>   H                    : 2.094026             -9.756410            -7.788334
| 47> *
| 48>
| 49> #Run DFT-D3 single point of the particle with dimer basis set
| 50> $new_job
| 51> %base "2-90_DFT_B"
| 52> ! wB97X-D3 def2-TZVP TIGHTSCF CHELPG PMODEL
| 53>
| 54> %scf
| 55> MaxIter 1000
| 56> end
| 57>
| 58> * xyz 0 1
| 59>   C                    : 5.076919             -10.100200           -4.491884
| 60>   O                    : 4.875564             -8.751591            -4.271763
| 61>   H                    : 5.776038             -8.429535            -4.025102
| 62>   H                    : 4.079127             -10.597135           -4.605720
| 63>   H                    : 5.674618             -10.291725           -5.409982
| 64>   H                    : 5.579315             -10.598143           -3.609433
| 65>   C                      1.939360             -9.035453            -7.082805
| 66>   O                      3.045270             -8.165502            -7.097040
| 67>   H                      3.112391             -7.736880            -6.215927
| 68>   H                      1.745708             -9.488842            -6.117196
| 69>   H                      0.983521             -8.509977            -7.267819
| 70>   H                      2.094026             -9.756410            -7.788334
| 71> *
| 72>
| 73>                          ****END OF INPUT****
 Total Charge           Charge          ....    0
 Multiplicity           Mult            ....    1
 Number of Electrons    NEL             ....   36
Dispersion correction           -0.001734177
FINAL SINGLE POINT ENERGY      -231.469706862013
Dispersion correction           -0.000225950
FINAL SINGLE POINT ENERGY      -115.733946573710

CARTESIAN COORDINATES (ANGSTROEM)
---------------------------------
  C      5.076919  -10.100200   -4.491884
  O      4.875564   -8.751591   -4.271763
  H      5.776038   -8.429535   -4.025102
  H      4.079127  -10.597135   -4.605720
  H      5.674618  -10.291725   -5.409982
  H      5.579315  -10.598143   -3.609433
  C      1.939360   -9.035453   -7.082805
  O      3.045270   -8.165502   -7.097040
  H      3.112391   -7.736880   -6.215927
  H      1.745708   -9.488842   -6.117196
  H      0.983521   -8.509977   -7.267819
  H      2.094026   -9.756410   -7.788334

 Multiplicity           Mult            ....    1
 Number of Electrons    NEL             ....   18
 Basis Dimension        Dim             ....  172

ORBITAL ENERGIES
----------------

  NO   OCC          E(Eh)            E(eV)
   0   2.0000     -19.232950      -523.3552
   1   2.0000     -10.304093      -280.3886
   2   2.0000      -1.134459       -30.8702
   3   2.0000      -0.800563       -21.7844
   4   2.0000      -0.615706       -16.7542
   5   2.0000      -0.541637       -14.7387
   6   2.0000      -0.527860       -14.3638
   7   2.0000      -0.440694       -11.9919
   8   2.0000      -0.370882       -10.0922
   9   0.0000       0.078991         2.1495
  10   0.0000       0.125986         3.4283
  11   0.0000       0.145892         3.9699
  12   0.0000       0.176859         4.8126
  13   0.0000       0.186752         5.0818

MULLIKEN ATOMIC CHARGES
-----------------------
   0 C :   -0.005602
   1 O :   -0.000365
   2 H :   -0.000091
   3 H :    0.000839
   4 H :    0.000118
   5 H :   -0.000119
   6 C :   -0.163285
   7 O :   -0.473698
   8 H :    0.317402
   9 H :    0.101772
  10 H :    0.097479
  11 H :    0.125550
Sum of atomic charges:   -0.0000000

LOEWDIN ATOMIC CHARGES
----------------------
   0 C :   -0.003836
   1 O :   -0.002706
   2 H :   -0.000192
   3 H :   -0.000750
   4 H :   -0.000510
   5 H :   -0.000104
   6 C :   -0.382484
   7 O :   -0.074546
   8 H :    0.182535
   9 H :    0.094282
  10 H :    0.097832
  11 H :    0.090478

  Mayer bond orders larger than 0.1
B(  6-C ,  7-O ) :   1.0000 B(  6-C ,  9-H ) :   0.9795 B(  6-C , 10-H ) :   0.9747
B(  6-C , 11-H ) :   0.9788 B(  7-O ,  8-H ) :   0.8966

Dispersion correction           -0.000237907
FINAL SINGLE POINT ENERGY      -115.732090944861

DIPOLE MOMENT
-------------
                                X             Y             Z
Electronic contribution:      1.52482       1.00147      -0.23469
Nuclear contribution   :     -1.91797      -1.09112       0.79864
                        -----------------------------------------
Total Dipole Moment    :     -0.39315      -0.08965       0.56395
                        -----------------------------------------
Magnitude (a.u.)       :      0.69329
Magnitude (Debye)      :      1.76220

Rotational constants in cm-1:     4.438283     0.840637     0.806453
Rotational constants in MHz : 133056.386797 25201.651883 24176.838620

                             ****ORCA TERMINATED NORMALLY****
TOTAL RUN TIME: 0 days 0 hours 6 minutes 13 seconds 359 msec
