                         Program Version 4.1.2  - RELEASE  -
|  1> #Run DFT-D3 single point of the dimer
|  2> ! wB97X-D3 def2-TZVP TIGHTSCF  CHELPG PAL8
|  3>
|  4> %base "16_charges"
|  5>
|  6> %scf
|  7> MaxIter 1000
|  8> end
|  9> %output
| 10>   Print[ P_Mayer ] 1
| 11>   Print[ P_NatPop ] 1
| 12>   Print[ P_Hirshfeld ] 1
| 13>   Print[ P_Mulliken ] 1
| 14>   Print [ P_Loewdin ] 1
| 15> end
| 16>
| 17> * xyz 0 1
| 18>   C                      -4.348745            2.498902             -0.395598
| 19>   O                      -4.774556            3.269099             -1.396210
| 20>   H                      -5.726224            3.220396             -1.374704
| 21>   H                      -4.391854            3.008908             0.604225
| 22>   H                      -4.971036            1.612524             -0.343536
| 23>   H                      -3.297642            2.256578             -0.428036
| 24> *
| 25>
| 26>                          ****END OF INPUT****

CARTESIAN COORDINATES (ANGSTROEM)
---------------------------------
  C     -4.348745    2.498902   -0.395598
  O     -4.774556    3.269099   -1.396210
  H     -5.726224    3.220396   -1.374704
  H     -4.391854    3.008908    0.604225
  H     -4.971036    1.612524   -0.343536
  H     -3.297642    2.256578   -0.428036

 Total Charge           Charge          ....    0
 Multiplicity           Mult            ....    1
 Number of Electrons    NEL             ....   18
 Basis Dimension        Dim             ....   86

ORBITAL ENERGIES
----------------

  NO   OCC          E(Eh)            E(eV)
   0   2.0000     -19.230820      -523.2972
   1   2.0000     -10.306481      -280.4536
   2   2.0000      -1.168532       -31.7974
   3   2.0000      -0.792249       -21.5582
   4   2.0000      -0.628949       -17.1146
   5   2.0000      -0.556138       -15.1333
   6   2.0000      -0.538500       -14.6533
   7   2.0000      -0.430779       -11.7221
   8   2.0000      -0.365212        -9.9379
   9   0.0000       0.113851         3.0980
  10   0.0000       0.159308         4.3350
  11   0.0000       0.205800         5.6001
  12   0.0000       0.209901         5.7117
  13   0.0000       0.232408         6.3242

MULLIKEN ATOMIC CHARGES
-----------------------
   0 C :   -0.154217
   1 O :   -0.443735
   2 H :    0.318553
   3 H :    0.077261
   4 H :    0.090235
   5 H :    0.111902
Sum of atomic charges:    0.0000000

LOEWDIN ATOMIC CHARGES
----------------------
   0 C :   -0.454994
   1 O :   -0.008716
   2 H :    0.176585
   3 H :    0.092559
   4 H :    0.091126
   5 H :    0.103439

  Mayer bond orders larger than 0.1
B(  0-C ,  1-O ) :   1.0191 B(  0-C ,  3-H ) :   0.9734 B(  0-C ,  4-H ) :   0.9923
B(  0-C ,  5-H ) :   0.9727 B(  1-O ,  2-H ) :   0.8980

Dispersion correction           -0.000204780
FINAL SINGLE POINT ENERGY      -115.728354141087

DIPOLE MOMENT
-------------
                                X             Y             Z
Electronic contribution:     -0.43194       1.04928      -1.57127
Nuclear contribution   :     -0.01819      -1.35321       1.90058
                        -----------------------------------------
Total Dipole Moment    :     -0.45014      -0.30394       0.32931
                        -----------------------------------------
Magnitude (a.u.)       :      0.63517
Magnitude (Debye)      :      1.61448

Rotational constants in cm-1:     4.365272     0.915612     0.875580
Rotational constants in MHz : 130867.576438 27449.342397 26249.225784

                             ****ORCA TERMINATED NORMALLY****
TOTAL RUN TIME: 0 days 0 hours 0 minutes 41 seconds 477 msec
