                         Program Version 4.1.2  - RELEASE  -
|  1> #Run DFT-D3 single point of the dimer
|  2> ! wB97X-D3 def2-TZVP TIGHTSCF CHELPG PMODEL PAL8
|  3>
|  4> %base "17-129_DFT_AB"
|  5>
|  6> %scf
|  7> MaxIter 1000
|  8> end
|  9>
| 10> * xyz 0 1
| 11>   C                      1.263298             8.071151             1.297706
| 12>   O                      1.107930             8.673241             2.604837
| 13>   H                      1.560115             9.489564             2.538540
| 14>   H                      2.336274             7.912194             1.074222
| 15>   H                      0.795633             7.135600             1.198332
| 16>   H                      0.729675             8.716011             0.583347
| 17>   C                      -0.726115            9.795292             5.714194
| 18>   O                      -1.311532            8.737187             6.403669
| 19>   H                      -1.031756            7.864205             5.971281
| 20>   H                      0.333128             9.943039             6.016875
| 21>   H                      -0.649164            9.690465             4.597876
| 22>   H                      -1.278986            10.773929            5.824933
| 23> *
| 24>
| 25> #Run DFT-D3 single point of the molecule with dimer basis set
| 26> $new_job
| 27> %base "17-129_DFT_A"
| 28> ! wB97X-D3 def2-TZVP TIGHTSCF CHELPG PMODEL
| 29>
| 30> %scf
| 31> MaxIter 1000
| 32> end
| 33>
| 34> * xyz 0 1
| 35>   C                      1.263298             8.071151             1.297706
| 36>   O                      1.107930             8.673241             2.604837
| 37>   H                      1.560115             9.489564             2.538540
| 38>   H                      2.336274             7.912194             1.074222
| 39>   H                      0.795633             7.135600             1.198332
| 40>   H                      0.729675             8.716011             0.583347
| 41>   C                    : -0.726115            9.795292             5.714194
| 42>   O                    : -1.311532            8.737187             6.403669
| 43>   H                    : -1.031756            7.864205             5.971281
| 44>   H                    : 0.333128             9.943039             6.016875
| 45>   H                    : -0.649164            9.690465             4.597876
| 46>   H                    : -1.278986            10.773929            5.824933
| 47> *
| 48>
| 49> #Run DFT-D3 single point of the particle with dimer basis set
| 50> $new_job
| 51> %base "17-129_DFT_B"
| 52> ! wB97X-D3 def2-TZVP TIGHTSCF CHELPG PMODEL
| 53>
| 54> %scf
| 55> MaxIter 1000
| 56> end
| 57>
| 58> * xyz 0 1
| 59>   C                    : 1.263298             8.071151             1.297706
| 60>   O                    : 1.107930             8.673241             2.604837
| 61>   H                    : 1.560115             9.489564             2.538540
| 62>   H                    : 2.336274             7.912194             1.074222
| 63>   H                    : 0.795633             7.135600             1.198332
| 64>   H                    : 0.729675             8.716011             0.583347
| 65>   C                      -0.726115            9.795292             5.714194
| 66>   O                      -1.311532            8.737187             6.403669
| 67>   H                      -1.031756            7.864205             5.971281
| 68>   H                      0.333128             9.943039             6.016875
| 69>   H                      -0.649164            9.690465             4.597876
| 70>   H                      -1.278986            10.773929            5.824933
| 71> *
| 72>
| 73>                          ****END OF INPUT****
 Total Charge           Charge          ....    0
 Multiplicity           Mult            ....    1
 Number of Electrons    NEL             ....   36
Dispersion correction           -0.001208113
FINAL SINGLE POINT ENERGY      -231.464274470289
Dispersion correction           -0.000233096
FINAL SINGLE POINT ENERGY      -115.732099961545

CARTESIAN COORDINATES (ANGSTROEM)
---------------------------------
  C      1.263298    8.071151    1.297706
  O      1.107930    8.673241    2.604837
  H      1.560115    9.489564    2.538540
  H      2.336274    7.912194    1.074222
  H      0.795633    7.135600    1.198332
  H      0.729675    8.716011    0.583347
  C     -0.726115    9.795292    5.714194
  O     -1.311532    8.737187    6.403669
  H     -1.031756    7.864205    5.971281
  H      0.333128    9.943039    6.016875
  H     -0.649164    9.690465    4.597876
  H     -1.278986   10.773929    5.824933

 Multiplicity           Mult            ....    1
 Number of Electrons    NEL             ....   18
 Basis Dimension        Dim             ....  172

ORBITAL ENERGIES
----------------

  NO   OCC          E(Eh)            E(eV)
   0   2.0000     -19.239024      -523.5205
   1   2.0000     -10.319711      -280.8136
   2   2.0000      -1.135483       -30.8981
   3   2.0000      -0.786006       -21.3883
   4   2.0000      -0.612293       -16.6613
   5   2.0000      -0.538506       -14.6535
   6   2.0000      -0.523085       -14.2339
   7   2.0000      -0.427501       -11.6329
   8   2.0000      -0.371359       -10.1052
   9   0.0000       0.078257         2.1295
  10   0.0000       0.109532         2.9805
  11   0.0000       0.139336         3.7915
  12   0.0000       0.173708         4.7268
  13   0.0000       0.186267         5.0686

MULLIKEN ATOMIC CHARGES
-----------------------
   0 C :    0.000055
   1 O :    0.000201
   2 H :   -0.000436
   3 H :   -0.000009
   4 H :    0.000008
   5 H :   -0.000025
   6 C :   -0.170126
   7 O :   -0.469573
   8 H :    0.323665
   9 H :    0.097356
  10 H :    0.099823
  11 H :    0.119062
Sum of atomic charges:    0.0000000

LOEWDIN ATOMIC CHARGES
----------------------
   0 C :   -0.000221
   1 O :   -0.002460
   2 H :   -0.000881
   3 H :   -0.000006
   4 H :   -0.000007
   5 H :   -0.000012
   6 C :   -0.425197
   7 O :   -0.081276
   8 H :    0.203904
   9 H :    0.095082
  10 H :    0.097587
  11 H :    0.113488

  Mayer bond orders larger than 0.1
B(  6-C ,  7-O ) :   1.0098 B(  6-C ,  9-H ) :   0.9761 B(  6-C , 10-H ) :   0.9742
B(  6-C , 11-H ) :   0.9674 B(  7-O ,  8-H ) :   0.8852

Dispersion correction           -0.000266226
FINAL SINGLE POINT ENERGY      -115.730133194136

DIPOLE MOMENT
-------------
                                X             Y             Z
Electronic contribution:     -0.93853      -1.38612       1.10952
Nuclear contribution   :      1.32021       1.22932      -1.65223
                        -----------------------------------------
Total Dipole Moment    :      0.38168      -0.15680      -0.54270
                        -----------------------------------------
Magnitude (a.u.)       :      0.68176
Magnitude (Debye)      :      1.73289

Rotational constants in cm-1:     4.203474     0.830822     0.797825
Rotational constants in MHz : 126016.971162 24907.403279 23918.189447

                             ****ORCA TERMINATED NORMALLY****
TOTAL RUN TIME: 0 days 0 hours 1 minutes 11 seconds 393 msec
