                         Program Version 4.1.2  - RELEASE  -
|  1> #Run DFT-D3 single point of the dimer
|  2> ! wB97X-D3 def2-TZVP TIGHTSCF CHELPG PMODEL PAL8
|  3>
|  4> %base "8-91_DFT_AB"
|  5>
|  6> %scf
|  7> MaxIter 1000
|  8> end
|  9>
| 10> * xyz 0 1
| 11>   C                      -4.288569            -3.454093            4.046615
| 12>   O                      -4.072984            -3.445141            5.450072
| 13>   H                      -3.608082            -2.611545            5.566733
| 14>   H                      -3.328369            -3.735090            3.527382
| 15>   H                      -4.996269            -4.232074            3.685555
| 16>   H                      -4.566862            -2.490800            3.649591
| 17>   C                      -4.649841            0.488223             2.777352
| 18>   O                      -5.030796            0.734548             1.408729
| 19>   H                      -4.503979            0.247009             0.766835
| 20>   H                      -5.304745            1.060699             3.458609
| 21>   H                      -4.711368            -0.565186            3.079461
| 22>   H                      -3.647727            0.894904             3.033890
| 23> *
| 24>
| 25> #Run DFT-D3 single point of the molecule with dimer basis set
| 26> $new_job
| 27> %base "8-91_DFT_A"
| 28> ! wB97X-D3 def2-TZVP TIGHTSCF CHELPG PMODEL
| 29>
| 30> %scf
| 31> MaxIter 1000
| 32> end
| 33>
| 34> * xyz 0 1
| 35>   C                      -4.288569            -3.454093            4.046615
| 36>   O                      -4.072984            -3.445141            5.450072
| 37>   H                      -3.608082            -2.611545            5.566733
| 38>   H                      -3.328369            -3.735090            3.527382
| 39>   H                      -4.996269            -4.232074            3.685555
| 40>   H                      -4.566862            -2.490800            3.649591
| 41>   C                    : -4.649841            0.488223             2.777352
| 42>   O                    : -5.030796            0.734548             1.408729
| 43>   H                    : -4.503979            0.247009             0.766835
| 44>   H                    : -5.304745            1.060699             3.458609
| 45>   H                    : -4.711368            -0.565186            3.079461
| 46>   H                    : -3.647727            0.894904             3.033890
| 47> *
| 48>
| 49> #Run DFT-D3 single point of the particle with dimer basis set
| 50> $new_job
| 51> %base "8-91_DFT_B"
| 52> ! wB97X-D3 def2-TZVP TIGHTSCF CHELPG PMODEL
| 53>
| 54> %scf
| 55> MaxIter 1000
| 56> end
| 57>
| 58> * xyz 0 1
| 59>   C                    : -4.288569            -3.454093            4.046615
| 60>   O                    : -4.072984            -3.445141            5.450072
| 61>   H                    : -3.608082            -2.611545            5.566733
| 62>   H                    : -3.328369            -3.735090            3.527382
| 63>   H                    : -4.996269            -4.232074            3.685555
| 64>   H                    : -4.566862            -2.490800            3.649591
| 65>   C                      -4.649841            0.488223             2.777352
| 66>   O                      -5.030796            0.734548             1.408729
| 67>   H                      -4.503979            0.247009             0.766835
| 68>   H                      -5.304745            1.060699             3.458609
| 69>   H                      -4.711368            -0.565186            3.079461
| 70>   H                      -3.647727            0.894904             3.033890
| 71> *
| 72>
| 73>                          ****END OF INPUT****
 Total Charge           Charge          ....    0
 Multiplicity           Mult            ....    1
 Number of Electrons    NEL             ....   36
Dispersion correction           -0.001341277
FINAL SINGLE POINT ENERGY      -231.466098497082
Dispersion correction           -0.000235322
FINAL SINGLE POINT ENERGY      -115.732409587046

CARTESIAN COORDINATES (ANGSTROEM)
---------------------------------
  C     -4.288569   -3.454093    4.046615
  O     -4.072984   -3.445141    5.450072
  H     -3.608082   -2.611545    5.566733
  H     -3.328369   -3.735090    3.527382
  H     -4.996269   -4.232074    3.685555
  H     -4.566862   -2.490800    3.649591
  C     -4.649841    0.488223    2.777352
  O     -5.030796    0.734548    1.408729
  H     -4.503979    0.247009    0.766835
  H     -5.304745    1.060699    3.458609
  H     -4.711368   -0.565186    3.079461
  H     -3.647727    0.894904    3.033890

 Multiplicity           Mult            ....    1
 Number of Electrons    NEL             ....   18
 Basis Dimension        Dim             ....  172

ORBITAL ENERGIES
----------------

  NO   OCC          E(Eh)            E(eV)
   0   2.0000     -19.230530      -523.2893
   1   2.0000     -10.319891      -280.8185
   2   2.0000      -1.124142       -30.5895
   3   2.0000      -0.797785       -21.7088
   4   2.0000      -0.606518       -16.5042
   5   2.0000      -0.538119       -14.6429
   6   2.0000      -0.520807       -14.1719
   7   2.0000      -0.426725       -11.6118
   8   2.0000      -0.376126       -10.2349
   9   0.0000       0.083168         2.2631
  10   0.0000       0.119254         3.2451
  11   0.0000       0.148818         4.0495
  12   0.0000       0.166673         4.5354
  13   0.0000       0.194871         5.3027

MULLIKEN ATOMIC CHARGES
-----------------------
   0 C :   -0.007097
   1 O :    0.000195
   2 H :   -0.000014
   3 H :    0.000115
   4 H :    0.000041
   5 H :    0.012639
   6 C :   -0.132560
   7 O :   -0.492678
   8 H :    0.317969
   9 H :    0.117044
  10 H :    0.080618
  11 H :    0.103728
Sum of atomic charges:   -0.0000000

LOEWDIN ATOMIC CHARGES
----------------------
   0 C :   -0.003614
   1 O :   -0.000010
   2 H :   -0.000125
   3 H :   -0.000056
   4 H :   -0.000029
   5 H :   -0.010334
   6 C :   -0.367017
   7 O :   -0.097761
   8 H :    0.166397
   9 H :    0.111761
  10 H :    0.102426
  11 H :    0.098363

  Mayer bond orders larger than 0.1
B(  6-C ,  7-O ) :   0.9920 B(  6-C ,  9-H ) :   0.9721 B(  6-C , 10-H ) :   0.9792
B(  6-C , 11-H ) :   0.9803 B(  7-O ,  8-H ) :   0.8940

Dispersion correction           -0.000286857
FINAL SINGLE POINT ENERGY      -115.734273712639

DIPOLE MOMENT
-------------
                                X             Y             Z
Electronic contribution:     -0.57514       0.30879      -1.75322
Nuclear contribution   :      1.06472      -0.71831       1.92272
                        -----------------------------------------
Total Dipole Moment    :      0.48958      -0.40952       0.16950
                        -----------------------------------------
Magnitude (a.u.)       :      0.66040
Magnitude (Debye)      :      1.67861

Rotational constants in cm-1:     4.377634     0.786486     0.765581
Rotational constants in MHz : 131238.171272 23578.256495 22951.529302

                             ****ORCA TERMINATED NORMALLY****
TOTAL RUN TIME: 0 days 0 hours 0 minutes 43 seconds 121 msec
