                         Program Version 4.1.2  - RELEASE  -
|  1> #Run DFT-D3 single point of the dimer
|  2> ! wB97X-D3 def2-TZVP TIGHTSCF CHELPG PMODEL PAL8
|  3>
|  4> %base "18-42_DFT_AB"
|  5>
|  6> %scf
|  7> MaxIter 1000
|  8> end
|  9>
| 10> * xyz 0 1
| 11>   C                      -2.012563            4.665636             -1.975602
| 12>   O                      -2.587163            3.443356             -2.387225
| 13>   H                      -2.699769            2.832937             -1.683804
| 14>   H                      -1.104865            4.452574             -1.373677
| 15>   H                      -1.693675            5.183946             -2.882772
| 16>   H                      -2.766827            5.318061             -1.491630
| 17>   C                      1.636724             3.135065             2.117009
| 18>   O                      2.604797             4.134345             2.105509
| 19>   H                      3.121479             4.067333             1.366747
| 20>   H                      0.710944             3.498242             1.633896
| 21>   H                      2.003399             2.198922             1.581749
| 22>   H                      1.507178             2.963489             3.155185
| 23> *
| 24>
| 25> #Run DFT-D3 single point of the molecule with dimer basis set
| 26> $new_job
| 27> %base "18-42_DFT_A"
| 28> ! wB97X-D3 def2-TZVP TIGHTSCF CHELPG PMODEL
| 29>
| 30> %scf
| 31> MaxIter 1000
| 32> end
| 33>
| 34> * xyz 0 1
| 35>   C                      -2.012563            4.665636             -1.975602
| 36>   O                      -2.587163            3.443356             -2.387225
| 37>   H                      -2.699769            2.832937             -1.683804
| 38>   H                      -1.104865            4.452574             -1.373677
| 39>   H                      -1.693675            5.183946             -2.882772
| 40>   H                      -2.766827            5.318061             -1.491630
| 41>   C                    : 1.636724             3.135065             2.117009
| 42>   O                    : 2.604797             4.134345             2.105509
| 43>   H                    : 3.121479             4.067333             1.366747
| 44>   H                    : 0.710944             3.498242             1.633896
| 45>   H                    : 2.003399             2.198922             1.581749
| 46>   H                    : 1.507178             2.963489             3.155185
| 47> *
| 48>
| 49> #Run DFT-D3 single point of the particle with dimer basis set
| 50> $new_job
| 51> %base "18-42_DFT_B"
| 52> ! wB97X-D3 def2-TZVP TIGHTSCF CHELPG PMODEL
| 53>
| 54> %scf
| 55> MaxIter 1000
| 56> end
| 57>
| 58> * xyz 0 1
| 59>   C                    : -2.012563            4.665636             -1.975602
| 60>   O                    : -2.587163            3.443356             -2.387225
| 61>   H                    : -2.699769            2.832937             -1.683804
| 62>   H                    : -1.104865            4.452574             -1.373677
| 63>   H                    : -1.693675            5.183946             -2.882772
| 64>   H                    : -2.766827            5.318061             -1.491630
| 65>   C                      1.636724             3.135065             2.117009
| 66>   O                      2.604797             4.134345             2.105509
| 67>   H                      3.121479             4.067333             1.366747
| 68>   H                      0.710944             3.498242             1.633896
| 69>   H                      2.003399             2.198922             1.581749
| 70>   H                      1.507178             2.963489             3.155185
| 71> *
| 72>
| 73>                          ****END OF INPUT****
 Total Charge           Charge          ....    0
 Multiplicity           Mult            ....    1
 Number of Electrons    NEL             ....   36
Dispersion correction           -0.000656835
FINAL SINGLE POINT ENERGY      -231.464815216070
Dispersion correction           -0.000246454
FINAL SINGLE POINT ENERGY      -115.735008485047

CARTESIAN COORDINATES (ANGSTROEM)
---------------------------------
  C     -2.012563    4.665636   -1.975602
  O     -2.587163    3.443356   -2.387225
  H     -2.699769    2.832937   -1.683804
  H     -1.104865    4.452574   -1.373677
  H     -1.693675    5.183946   -2.882772
  H     -2.766827    5.318061   -1.491630
  C      1.636724    3.135065    2.117009
  O      2.604797    4.134345    2.105509
  H      3.121479    4.067333    1.366747
  H      0.710944    3.498242    1.633896
  H      2.003399    2.198922    1.581749
  H      1.507178    2.963489    3.155185

 Multiplicity           Mult            ....    1
 Number of Electrons    NEL             ....   18
 Basis Dimension        Dim             ....  172

ORBITAL ENERGIES
----------------

  NO   OCC          E(Eh)            E(eV)
   0   2.0000     -19.220377      -523.0131
   1   2.0000     -10.312708      -280.6230
   2   2.0000      -1.152262       -31.3547
   3   2.0000      -0.799339       -21.7511
   4   2.0000      -0.617820       -16.8117
   5   2.0000      -0.546424       -14.8690
   6   2.0000      -0.528868       -14.3912
   7   2.0000      -0.432340       -11.7646
   8   2.0000      -0.371595       -10.1116
   9   0.0000       0.083818         2.2808
  10   0.0000       0.118287         3.2188
  11   0.0000       0.157950         4.2980
  12   0.0000       0.163793         4.4570
  13   0.0000       0.180095         4.9006

MULLIKEN ATOMIC CHARGES
-----------------------
   0 C :   -0.000148
   1 O :    0.000007
   2 H :   -0.000007
   3 H :    0.000135
   4 H :    0.000002
   5 H :    0.000005
   6 C :   -0.148565
   7 O :   -0.460215
   8 H :    0.301026
   9 H :    0.096330
  10 H :    0.092857
  11 H :    0.118573
Sum of atomic charges:    0.0000000

LOEWDIN ATOMIC CHARGES
----------------------
   0 C :   -0.000064
   1 O :   -0.000001
   2 H :   -0.000004
   3 H :   -0.000183
   4 H :   -0.000000
   5 H :   -0.000001
   6 C :   -0.392447
   7 O :   -0.035608
   8 H :    0.128590
   9 H :    0.096085
  10 H :    0.102310
  11 H :    0.101323

  Mayer bond orders larger than 0.1
B(  6-C ,  7-O ) :   0.9988 B(  6-C ,  9-H ) :   0.9717 B(  6-C , 10-H ) :   0.9817
B(  6-C , 11-H ) :   0.9793 B(  7-O ,  8-H ) :   0.9157

Dispersion correction           -0.000225266
FINAL SINGLE POINT ENERGY      -115.729666659129

DIPOLE MOMENT
-------------
                                X             Y             Z
Electronic contribution:      1.14075       1.28136       0.10376
Nuclear contribution   :     -1.15425      -1.71116      -0.57726
                        -----------------------------------------
Total Dipole Moment    :     -0.01350      -0.42979      -0.47351
                        -----------------------------------------
Magnitude (a.u.)       :      0.63962
Magnitude (Debye)      :      1.62578

Rotational constants in cm-1:     4.239353     0.863957     0.835354
Rotational constants in MHz : 127092.600815 25900.775818 25043.283592

                             ****ORCA TERMINATED NORMALLY****
TOTAL RUN TIME: 0 days 0 hours 0 minutes 56 seconds 146 msec
