                         Program Version 4.1.2  - RELEASE  -
|  1> #Run DFT-D3 single point of the dimer
|  2> ! wB97X-D3 def2-TZVP TIGHTSCF CHELPG PMODEL PAL8
|  3>
|  4> %base "3-191_DFT_AB"
|  5>
|  6> %scf
|  7> MaxIter 1000
|  8> end
|  9>
| 10> * xyz 0 1
| 11>   C                      -2.126235            -0.360681            -2.637112
| 12>   O                      -1.117700            -1.154782            -3.243928
| 13>   H                      -0.344218            -1.171476            -2.675353
| 14>   H                      -2.847046            -0.072665            -3.423563
| 15>   H                      -2.661588            -0.937043            -1.872576
| 16>   H                      -1.636193            0.528980             -2.202952
| 17>   C                      1.057545             3.862714             -3.473345
| 18>   O                      1.262792             2.751196             -2.626858
| 19>   H                      0.694783             2.763946             -1.872017
| 20>   H                      1.891357             4.555210             -3.318902
| 21>   H                      0.953360             3.598273             -4.529557
| 22>   H                      0.045968             4.336788             -3.240017
| 23> *
| 24>
| 25> #Run DFT-D3 single point of the molecule with dimer basis set
| 26> $new_job
| 27> %base "3-191_DFT_A"
| 28> ! wB97X-D3 def2-TZVP TIGHTSCF CHELPG PMODEL
| 29>
| 30> %scf
| 31> MaxIter 1000
| 32> end
| 33>
| 34> * xyz 0 1
| 35>   C                      -2.126235            -0.360681            -2.637112
| 36>   O                      -1.117700            -1.154782            -3.243928
| 37>   H                      -0.344218            -1.171476            -2.675353
| 38>   H                      -2.847046            -0.072665            -3.423563
| 39>   H                      -2.661588            -0.937043            -1.872576
| 40>   H                      -1.636193            0.528980             -2.202952
| 41>   C                    : 1.057545             3.862714             -3.473345
| 42>   O                    : 1.262792             2.751196             -2.626858
| 43>   H                    : 0.694783             2.763946             -1.872017
| 44>   H                    : 1.891357             4.555210             -3.318902
| 45>   H                    : 0.953360             3.598273             -4.529557
| 46>   H                    : 0.045968             4.336788             -3.240017
| 47> *
| 48>
| 49> #Run DFT-D3 single point of the particle with dimer basis set
| 50> $new_job
| 51> %base "3-191_DFT_B"
| 52> ! wB97X-D3 def2-TZVP TIGHTSCF CHELPG PMODEL
| 53>
| 54> %scf
| 55> MaxIter 1000
| 56> end
| 57>
| 58> * xyz 0 1
| 59>   C                    : -2.126235            -0.360681            -2.637112
| 60>   O                    : -1.117700            -1.154782            -3.243928
| 61>   H                    : -0.344218            -1.171476            -2.675353
| 62>   H                    : -2.847046            -0.072665            -3.423563
| 63>   H                    : -2.661588            -0.937043            -1.872576
| 64>   H                    : -1.636193            0.528980             -2.202952
| 65>   C                      1.057545             3.862714             -3.473345
| 66>   O                      1.262792             2.751196             -2.626858
| 67>   H                      0.694783             2.763946             -1.872017
| 68>   H                      1.891357             4.555210             -3.318902
| 69>   H                      0.953360             3.598273             -4.529557
| 70>   H                      0.045968             4.336788             -3.240017
| 71> *
| 72>
| 73>                          ****END OF INPUT****
 Total Charge           Charge          ....    0
 Multiplicity           Mult            ....    1
 Number of Electrons    NEL             ....   36
Dispersion correction           -0.000934355
FINAL SINGLE POINT ENERGY      -231.469077362360
Dispersion correction           -0.000235215
FINAL SINGLE POINT ENERGY      -115.736085449508

CARTESIAN COORDINATES (ANGSTROEM)
---------------------------------
  C     -2.126235   -0.360681   -2.637112
  O     -1.117700   -1.154782   -3.243928
  H     -0.344218   -1.171476   -2.675353
  H     -2.847046   -0.072665   -3.423563
  H     -2.661588   -0.937043   -1.872576
  H     -1.636193    0.528980   -2.202952
  C      1.057545    3.862714   -3.473345
  O      1.262792    2.751196   -2.626858
  H      0.694783    2.763946   -1.872017
  H      1.891357    4.555210   -3.318902
  H      0.953360    3.598273   -4.529557
  H      0.045968    4.336788   -3.240017

 Multiplicity           Mult            ....    1
 Number of Electrons    NEL             ....   18
 Basis Dimension        Dim             ....  172

ORBITAL ENERGIES
----------------

  NO   OCC          E(Eh)            E(eV)
   0   2.0000     -19.225988      -523.1657
   1   2.0000     -10.319268      -280.8016
   2   2.0000      -1.136661       -30.9301
   3   2.0000      -0.795267       -21.6403
   4   2.0000      -0.610575       -16.6146
   5   2.0000      -0.546840       -14.8803
   6   2.0000      -0.527212       -14.3462
   7   2.0000      -0.421414       -11.4673
   8   2.0000      -0.374654       -10.1949
   9   0.0000       0.085799         2.3347
  10   0.0000       0.118393         3.2216
  11   0.0000       0.153065         4.1651
  12   0.0000       0.170683         4.6445
  13   0.0000       0.193168         5.2564

MULLIKEN ATOMIC CHARGES
-----------------------
   0 C :    0.002436
   1 O :   -0.000057
   2 H :   -0.000427
   3 H :   -0.000017
   4 H :   -0.000157
   5 H :   -0.005038
   6 C :   -0.164675
   7 O :   -0.480301
   8 H :    0.319173
   9 H :    0.113956
  10 H :    0.117324
  11 H :    0.097785
Sum of atomic charges:    0.0000000

LOEWDIN ATOMIC CHARGES
----------------------
   0 C :   -0.000462
   1 O :   -0.000031
   2 H :   -0.000230
   3 H :   -0.000003
   4 H :   -0.000013
   5 H :   -0.001628
   6 C :   -0.386896
   7 O :   -0.073854
   8 H :    0.157886
   9 H :    0.098951
  10 H :    0.101996
  11 H :    0.104282

  Mayer bond orders larger than 0.1
B(  6-C ,  7-O ) :   0.9983 B(  6-C ,  9-H ) :   0.9767 B(  6-C , 10-H ) :   0.9682
B(  6-C , 11-H ) :   0.9861 B(  7-O ,  8-H ) :   0.8978

Dispersion correction           -0.000252912
FINAL SINGLE POINT ENERGY      -115.732603916071

DIPOLE MOMENT
-------------
                                X             Y             Z
Electronic contribution:      0.44316      -1.46018       0.96272
Nuclear contribution   :     -0.91151       1.91333      -0.81521
                        -----------------------------------------
Total Dipole Moment    :     -0.46835       0.45315       0.14750
                        -----------------------------------------
Magnitude (a.u.)       :      0.66817
Magnitude (Debye)      :      1.69836

Rotational constants in cm-1:     4.246714     0.825546     0.801452
Rotational constants in MHz : 127313.279588 24749.235020 24026.913898

                             ****ORCA TERMINATED NORMALLY****
TOTAL RUN TIME: 0 days 0 hours 6 minutes 14 seconds 69 msec
