                         Program Version 4.1.2  - RELEASE  -
|  1> #Run DFT-D3 single point of the dimer
|  2> ! wB97X-D3 def2-TZVP TIGHTSCF CHELPG PMODEL PAL8
|  3>
|  4> %base "12-78_DFT_AB"
|  5>
|  6> %scf
|  7> MaxIter 1000
|  8> end
|  9>
| 10> * xyz 0 1
| 11>   C                      7.095750             3.934989             5.712976
| 12>   O                      8.233398             3.019336             5.783510
| 13>   H                      8.730311             3.165655             4.956165
| 14>   H                      6.340234             3.723684             6.452433
| 15>   H                      7.425371             4.894638             6.015371
| 16>   H                      6.636750             3.988568             4.765022
| 17>   C                      5.813576             -0.380960            2.640093
| 18>   O                      7.084955             -0.050804            2.118011
| 19>   H                      6.863763             0.650739             1.462686
| 20>   H                      5.384125             -1.237247            2.046307
| 21>   H                      5.839170             -0.808611            3.657996
| 22>   H                      5.154827             0.481794             2.650543
| 23> *
| 24>
| 25> #Run DFT-D3 single point of the molecule with dimer basis set
| 26> $new_job
| 27> %base "12-78_DFT_A"
| 28> ! wB97X-D3 def2-TZVP TIGHTSCF CHELPG PMODEL
| 29>
| 30> %scf
| 31> MaxIter 1000
| 32> end
| 33>
| 34> * xyz 0 1
| 35>   C                      7.095750             3.934989             5.712976
| 36>   O                      8.233398             3.019336             5.783510
| 37>   H                      8.730311             3.165655             4.956165
| 38>   H                      6.340234             3.723684             6.452433
| 39>   H                      7.425371             4.894638             6.015371
| 40>   H                      6.636750             3.988568             4.765022
| 41>   C                    : 5.813576             -0.380960            2.640093
| 42>   O                    : 7.084955             -0.050804            2.118011
| 43>   H                    : 6.863763             0.650739             1.462686
| 44>   H                    : 5.384125             -1.237247            2.046307
| 45>   H                    : 5.839170             -0.808611            3.657996
| 46>   H                    : 5.154827             0.481794             2.650543
| 47> *
| 48>
| 49> #Run DFT-D3 single point of the particle with dimer basis set
| 50> $new_job
| 51> %base "12-78_DFT_B"
| 52> ! wB97X-D3 def2-TZVP TIGHTSCF CHELPG PMODEL
| 53>
| 54> %scf
| 55> MaxIter 1000
| 56> end
| 57>
| 58> * xyz 0 1
| 59>   C                    : 7.095750             3.934989             5.712976
| 60>   O                    : 8.233398             3.019336             5.783510
| 61>   H                    : 8.730311             3.165655             4.956165
| 62>   H                    : 6.340234             3.723684             6.452433
| 63>   H                    : 7.425371             4.894638             6.015371
| 64>   H                    : 6.636750             3.988568             4.765022
| 65>   C                      5.813576             -0.380960            2.640093
| 66>   O                      7.084955             -0.050804            2.118011
| 67>   H                      6.863763             0.650739             1.462686
| 68>   H                      5.384125             -1.237247            2.046307
| 69>   H                      5.839170             -0.808611            3.657996
| 70>   H                      5.154827             0.481794             2.650543
| 71> *
| 72>
| 73>                          ****END OF INPUT****
 Total Charge           Charge          ....    0
 Multiplicity           Mult            ....    1
 Number of Electrons    NEL             ....   36
Dispersion correction           -0.000738598
FINAL SINGLE POINT ENERGY      -231.462903292111
Dispersion correction           -0.000247378
FINAL SINGLE POINT ENERGY      -115.730934807424

CARTESIAN COORDINATES (ANGSTROEM)
---------------------------------
  C      7.095750    3.934989    5.712976
  O      8.233398    3.019336    5.783510
  H      8.730311    3.165655    4.956165
  H      6.340234    3.723684    6.452433
  H      7.425371    4.894638    6.015371
  H      6.636750    3.988568    4.765022
  C      5.813576   -0.380960    2.640093
  O      7.084955   -0.050804    2.118011
  H      6.863763    0.650739    1.462686
  H      5.384125   -1.237247    2.046307
  H      5.839170   -0.808611    3.657996
  H      5.154827    0.481794    2.650543

 Multiplicity           Mult            ....    1
 Number of Electrons    NEL             ....   18
 Basis Dimension        Dim             ....  172

ORBITAL ENERGIES
----------------

  NO   OCC          E(Eh)            E(eV)
   0   2.0000     -19.234766      -523.4046
   1   2.0000     -10.316234      -280.7190
   2   2.0000      -1.136250       -30.9189
   3   2.0000      -0.788466       -21.4552
   4   2.0000      -0.607838       -16.5401
   5   2.0000      -0.538827       -14.6622
   6   2.0000      -0.528346       -14.3770
   7   2.0000      -0.438260       -11.9257
   8   2.0000      -0.370566       -10.0836
   9   0.0000       0.085159         2.3173
  10   0.0000       0.112401         3.0586
  11   0.0000       0.151699         4.1279
  12   0.0000       0.167980         4.5710
  13   0.0000       0.191773         5.2184

MULLIKEN ATOMIC CHARGES
-----------------------
   0 C :    0.000104
   1 O :   -0.000002
   2 H :   -0.000241
   3 H :   -0.000005
   4 H :   -0.000009
   5 H :   -0.000098
   6 C :   -0.181187
   7 O :   -0.459607
   8 H :    0.317811
   9 H :    0.099311
  10 H :    0.116479
  11 H :    0.107442
Sum of atomic charges:    0.0000000

LOEWDIN ATOMIC CHARGES
----------------------
   0 C :   -0.000029
   1 O :   -0.000014
   2 H :   -0.000139
   3 H :   -0.000002
   4 H :   -0.000002
   5 H :   -0.000028
   6 C :   -0.400448
   7 O :   -0.087863
   8 H :    0.188289
   9 H :    0.100507
  10 H :    0.106570
  11 H :    0.093160

  Mayer bond orders larger than 0.1
B(  6-C ,  7-O ) :   1.0083 B(  6-C ,  9-H ) :   0.9762 B(  6-C , 10-H ) :   0.9725
B(  6-C , 11-H ) :   0.9818 B(  7-O ,  8-H ) :   0.8982

Dispersion correction           -0.000238260
FINAL SINGLE POINT ENERGY      -115.732033341998

DIPOLE MOMENT
-------------
                                X             Y             Z
Electronic contribution:      1.76427       0.43260      -0.55029
Nuclear contribution   :     -2.38304      -0.11578       0.36553
                        -----------------------------------------
Total Dipole Moment    :     -0.61877       0.31682      -0.18477
                        -----------------------------------------
Magnitude (a.u.)       :      0.71930
Magnitude (Debye)      :      1.82831

Rotational constants in cm-1:     4.170436     0.833110     0.799750
Rotational constants in MHz : 125026.518679 24976.003401 23975.892863

                             ****ORCA TERMINATED NORMALLY****
TOTAL RUN TIME: 0 days 0 hours 0 minutes 56 seconds 551 msec
