                         Program Version 4.1.2  - RELEASE  -
|  1> #Run DFT-D3 single point of the dimer
|  2> ! wB97X-D3 def2-TZVP TIGHTSCF CHELPG PMODEL PAL8
|  3>
|  4> %base "17-182_DFT_AB"
|  5>
|  6> %scf
|  7> MaxIter 1000
|  8> end
|  9>
| 10> * xyz 0 1
| 11>   C                      5.359301             -8.372943            -9.649824
| 12>   O                      6.654829             -8.198654            -9.020387
| 13>   H                      6.531283             -8.582992            -8.153111
| 14>   H                      4.948744             -9.385095            -9.563094
| 15>   H                      4.603484             -7.606381            -9.326096
| 16>   H                      5.413240             -8.249904            -10.710803
| 17>   C                      7.717335             -11.016342           -6.648886
| 18>   O                      6.948106             -9.839205            -6.598699
| 19>   H                      5.965727             -10.006760           -6.507486
| 20>   H                      7.595240             -11.582867           -7.607231
| 21>   H                      8.831074             -10.817666           -6.589294
| 22>   H                      7.444850             -11.642226           -5.774066
| 23> *
| 24>
| 25> #Run DFT-D3 single point of the molecule with dimer basis set
| 26> $new_job
| 27> %base "17-182_DFT_A"
| 28> ! wB97X-D3 def2-TZVP TIGHTSCF CHELPG PMODEL
| 29>
| 30> %scf
| 31> MaxIter 1000
| 32> end
| 33>
| 34> * xyz 0 1
| 35>   C                      5.359301             -8.372943            -9.649824
| 36>   O                      6.654829             -8.198654            -9.020387
| 37>   H                      6.531283             -8.582992            -8.153111
| 38>   H                      4.948744             -9.385095            -9.563094
| 39>   H                      4.603484             -7.606381            -9.326096
| 40>   H                      5.413240             -8.249904            -10.710803
| 41>   C                    : 7.717335             -11.016342           -6.648886
| 42>   O                    : 6.948106             -9.839205            -6.598699
| 43>   H                    : 5.965727             -10.006760           -6.507486
| 44>   H                    : 7.595240             -11.582867           -7.607231
| 45>   H                    : 8.831074             -10.817666           -6.589294
| 46>   H                    : 7.444850             -11.642226           -5.774066
| 47> *
| 48>
| 49> #Run DFT-D3 single point of the particle with dimer basis set
| 50> $new_job
| 51> %base "17-182_DFT_B"
| 52> ! wB97X-D3 def2-TZVP TIGHTSCF CHELPG PMODEL
| 53>
| 54> %scf
| 55> MaxIter 1000
| 56> end
| 57>
| 58> * xyz 0 1
| 59>   C                    : 5.359301             -8.372943            -9.649824
| 60>   O                    : 6.654829             -8.198654            -9.020387
| 61>   H                    : 6.531283             -8.582992            -8.153111
| 62>   H                    : 4.948744             -9.385095            -9.563094
| 63>   H                    : 4.603484             -7.606381            -9.326096
| 64>   H                    : 5.413240             -8.249904            -10.710803
| 65>   C                      7.717335             -11.016342           -6.648886
| 66>   O                      6.948106             -9.839205            -6.598699
| 67>   H                      5.965727             -10.006760           -6.507486
| 68>   H                      7.595240             -11.582867           -7.607231
| 69>   H                      8.831074             -10.817666           -6.589294
| 70>   H                      7.444850             -11.642226           -5.774066
| 71> *
| 72>
| 73>                          ****END OF INPUT****
 Total Charge           Charge          ....    0
 Multiplicity           Mult            ....    1
 Number of Electrons    NEL             ....   36
Dispersion correction           -0.001712867
FINAL SINGLE POINT ENERGY      -231.470354181945
Dispersion correction           -0.000266190
FINAL SINGLE POINT ENERGY      -115.733317914673

CARTESIAN COORDINATES (ANGSTROEM)
---------------------------------
  C      5.359301   -8.372943   -9.649824
  O      6.654829   -8.198654   -9.020387
  H      6.531283   -8.582992   -8.153111
  H      4.948744   -9.385095   -9.563094
  H      4.603484   -7.606381   -9.326096
  H      5.413240   -8.249904  -10.710803
  C      7.717335  -11.016342   -6.648886
  O      6.948106   -9.839205   -6.598699
  H      5.965727  -10.006760   -6.507486
  H      7.595240  -11.582867   -7.607231
  H      8.831074  -10.817666   -6.589294
  H      7.444850  -11.642226   -5.774066

 Multiplicity           Mult            ....    1
 Number of Electrons    NEL             ....   18
 Basis Dimension        Dim             ....  172

ORBITAL ENERGIES
----------------

  NO   OCC          E(Eh)            E(eV)
   0   2.0000     -19.233312      -523.3650
   1   2.0000     -10.321678      -280.8671
   2   2.0000      -1.128833       -30.7171
   3   2.0000      -0.788182       -21.4475
   4   2.0000      -0.605520       -16.4770
   5   2.0000      -0.542732       -14.7685
   6   2.0000      -0.525935       -14.3114
   7   2.0000      -0.420206       -11.4344
   8   2.0000      -0.372029       -10.1234
   9   0.0000       0.087607         2.3839
  10   0.0000       0.124384         3.3847
  11   0.0000       0.146750         3.9933
  12   0.0000       0.189203         5.1485
  13   0.0000       0.190280         5.1778

MULLIKEN ATOMIC CHARGES
-----------------------
   0 C :   -0.001669
   1 O :    0.001781
   2 H :   -0.012567
   3 H :   -0.001267
   4 H :    0.000050
   5 H :   -0.000315
   6 C :   -0.164542
   7 O :   -0.479198
   8 H :    0.325484
   9 H :    0.103530
  10 H :    0.123020
  11 H :    0.105691
Sum of atomic charges:   -0.0000000

LOEWDIN ATOMIC CHARGES
----------------------
   0 C :   -0.002464
   1 O :   -0.005606
   2 H :   -0.037162
   3 H :   -0.000626
   4 H :   -0.000027
   5 H :   -0.000051
   6 C :   -0.402729
   7 O :   -0.058278
   8 H :    0.194973
   9 H :    0.097129
  10 H :    0.115883
  11 H :    0.098959

  Mayer bond orders larger than 0.1
B(  6-C ,  7-O ) :   0.9873 B(  6-C ,  9-H ) :   0.9702 B(  6-C , 10-H ) :   0.9695
B(  6-C , 11-H ) :   0.9776 B(  7-O ,  8-H ) :   0.8816

Dispersion correction           -0.000264530
FINAL SINGLE POINT ENERGY      -115.732046099505

DIPOLE MOMENT
-------------
                                X             Y             Z
Electronic contribution:     -0.89469       1.60734       0.05880
Nuclear contribution   :      0.58941      -2.18398       0.00261
                        -----------------------------------------
Total Dipole Moment    :     -0.30527      -0.57664       0.06142
                        -----------------------------------------
Magnitude (a.u.)       :      0.65535
Magnitude (Debye)      :      1.66576

Rotational constants in cm-1:     4.178114     0.818637     0.793131
Rotational constants in MHz : 125256.691972 24542.114233 23777.463068

                             ****ORCA TERMINATED NORMALLY****
TOTAL RUN TIME: 0 days 0 hours 1 minutes 8 seconds 597 msec
