                         Program Version 4.1.2  - RELEASE  -
|  1> #Run DFT-D3 single point of the dimer
|  2> ! wB97X-D3 def2-TZVP TIGHTSCF CHELPG PMODEL PAL8
|  3>
|  4> %base "3-151_DFT_AB"
|  5>
|  6> %scf
|  7> MaxIter 1000
|  8> end
|  9>
| 10> * xyz 0 1
| 11>   C                      6.745725             9.675620             6.100346
| 12>   O                      6.065059             8.799649             5.211877
| 13>   H                      5.292187             9.106264             4.782544
| 14>   H                      7.817412             9.817642             5.772021
| 15>   H                      6.263485             10.669242            6.151953
| 16>   H                      6.794358             9.337570             7.126804
| 17>   C                      6.961410             9.704602             1.714039
| 18>   O                      8.358167             9.401272             1.510518
| 19>   H                      8.623425             8.688723             2.111202
| 20>   H                      6.662464             9.864520             2.777961
| 21>   H                      6.721852             10.551406            1.037147
| 22>   H                      6.332232             8.859719             1.529934
| 23> *
| 24>
| 25> #Run DFT-D3 single point of the molecule with dimer basis set
| 26> $new_job
| 27> %base "3-151_DFT_A"
| 28> ! wB97X-D3 def2-TZVP TIGHTSCF CHELPG PMODEL
| 29>
| 30> %scf
| 31> MaxIter 1000
| 32> end
| 33>
| 34> * xyz 0 1
| 35>   C                      6.745725             9.675620             6.100346
| 36>   O                      6.065059             8.799649             5.211877
| 37>   H                      5.292187             9.106264             4.782544
| 38>   H                      7.817412             9.817642             5.772021
| 39>   H                      6.263485             10.669242            6.151953
| 40>   H                      6.794358             9.337570             7.126804
| 41>   C                    : 6.961410             9.704602             1.714039
| 42>   O                    : 8.358167             9.401272             1.510518
| 43>   H                    : 8.623425             8.688723             2.111202
| 44>   H                    : 6.662464             9.864520             2.777961
| 45>   H                    : 6.721852             10.551406            1.037147
| 46>   H                    : 6.332232             8.859719             1.529934
| 47> *
| 48>
| 49> #Run DFT-D3 single point of the particle with dimer basis set
| 50> $new_job
| 51> %base "3-151_DFT_B"
| 52> ! wB97X-D3 def2-TZVP TIGHTSCF CHELPG PMODEL
| 53>
| 54> %scf
| 55> MaxIter 1000
| 56> end
| 57>
| 58> * xyz 0 1
| 59>   C                    : 6.745725             9.675620             6.100346
| 60>   O                    : 6.065059             8.799649             5.211877
| 61>   H                    : 5.292187             9.106264             4.782544
| 62>   H                    : 7.817412             9.817642             5.772021
| 63>   H                    : 6.263485             10.669242            6.151953
| 64>   H                    : 6.794358             9.337570             7.126804
| 65>   C                      6.961410             9.704602             1.714039
| 66>   O                      8.358167             9.401272             1.510518
| 67>   H                      8.623425             8.688723             2.111202
| 68>   H                      6.662464             9.864520             2.777961
| 69>   H                      6.721852             10.551406            1.037147
| 70>   H                      6.332232             8.859719             1.529934
| 71> *
| 72>
| 73>                          ****END OF INPUT****
 Total Charge           Charge          ....    0
 Multiplicity           Mult            ....    1
 Number of Electrons    NEL             ....   36
Dispersion correction           -0.001616711
FINAL SINGLE POINT ENERGY      -231.464872928511
Dispersion correction           -0.000278855
FINAL SINGLE POINT ENERGY      -115.731597072446

CARTESIAN COORDINATES (ANGSTROEM)
---------------------------------
  C      6.745725    9.675620    6.100346
  O      6.065059    8.799649    5.211877
  H      5.292187    9.106264    4.782544
  H      7.817412    9.817642    5.772021
  H      6.263485   10.669242    6.151953
  H      6.794358    9.337570    7.126804
  C      6.961410    9.704602    1.714039
  O      8.358167    9.401272    1.510518
  H      8.623425    8.688723    2.111202
  H      6.662464    9.864520    2.777961
  H      6.721852   10.551406    1.037147
  H      6.332232    8.859719    1.529934

 Multiplicity           Mult            ....    1
 Number of Electrons    NEL             ....   18
 Basis Dimension        Dim             ....  172

ORBITAL ENERGIES
----------------

  NO   OCC          E(Eh)            E(eV)
   0   2.0000     -19.231446      -523.3142
   1   2.0000     -10.317317      -280.7485
   2   2.0000      -1.125042       -30.6139
   3   2.0000      -0.796467       -21.6730
   4   2.0000      -0.614165       -16.7123
   5   2.0000      -0.523363       -14.2414
   6   2.0000      -0.521848       -14.2002
   7   2.0000      -0.443561       -12.0699
   8   2.0000      -0.370396       -10.0790
   9   0.0000       0.076839         2.0909
  10   0.0000       0.119370         3.2482
  11   0.0000       0.141458         3.8493
  12   0.0000       0.177843         4.8394
  13   0.0000       0.187637         5.1059

MULLIKEN ATOMIC CHARGES
-----------------------
   0 C :    0.001265
   1 O :    0.000191
   2 H :   -0.001149
   3 H :    0.000086
   4 H :   -0.000327
   5 H :    0.000079
   6 C :   -0.165193
   7 O :   -0.479146
   8 H :    0.311943
   9 H :    0.095117
  10 H :    0.128787
  11 H :    0.108347
Sum of atomic charges:    0.0000000

LOEWDIN ATOMIC CHARGES
----------------------
   0 C :   -0.002205
   1 O :   -0.002568
   2 H :   -0.002693
   3 H :   -0.000245
   4 H :   -0.000154
   5 H :   -0.000028
   6 C :   -0.368418
   7 O :   -0.100848
   8 H :    0.169774
   9 H :    0.101306
  10 H :    0.115883
  11 H :    0.090196

  Mayer bond orders larger than 0.1
B(  6-C ,  7-O ) :   0.9943 B(  6-C ,  9-H ) :   0.9696 B(  6-C , 10-H ) :   0.9742
B(  6-C , 11-H ) :   0.9735 B(  7-O ,  8-H ) :   0.8993

Dispersion correction           -0.000260927
FINAL SINGLE POINT ENERGY      -115.731372422852

DIPOLE MOMENT
-------------
                                X             Y             Z
Electronic contribution:      1.78772      -0.21723      -0.41157
Nuclear contribution   :     -2.20168      -0.13389       0.87171
                        -----------------------------------------
Total Dipole Moment    :     -0.41397      -0.35113       0.46014
                        -----------------------------------------
Magnitude (a.u.)       :      0.71161
Magnitude (Debye)      :      1.80877

Rotational constants in cm-1:     4.275639     0.808389     0.762150
Rotational constants in MHz : 128180.440470 24234.890682 22848.672955

                             ****ORCA TERMINATED NORMALLY****
TOTAL RUN TIME: 0 days 0 hours 6 minutes 22 seconds 578 msec
