                         Program Version 4.1.2  - RELEASE  -
|  1> #Run DFT-D3 single point of the dimer
|  2> ! wB97X-D3 def2-TZVP TIGHTSCF CHELPG PMODEL PAL8
|  3>
|  4> %base "2-57_DFT_AB"
|  5>
|  6> %scf
|  7> MaxIter 1000
|  8> end
|  9>
| 10> * xyz 0 1
| 11>   C                      0.999467             -9.027304            -3.912011
| 12>   O                      2.186414             -9.130388            -3.186209
| 13>   H                      2.083546             -9.885682            -2.567494
| 14>   H                      0.950091             -9.809537            -4.582821
| 15>   H                      0.089306             -9.087572            -3.267712
| 16>   H                      0.963477             -8.154280            -4.573107
| 17>   C                      -2.222377            -9.165229            -5.734418
| 18>   O                      -1.041588            -9.092182            -6.516666
| 19>   H                      -0.308865            -9.269490            -5.964832
| 20>   H                      -2.538768            -10.195934           -5.512925
| 21>   H                      -2.087220            -8.802993            -4.707319
| 22>   H                      -3.014672            -8.630073            -6.223898
| 23> *
| 24>
| 25> #Run DFT-D3 single point of the molecule with dimer basis set
| 26> $new_job
| 27> %base "2-57_DFT_A"
| 28> ! wB97X-D3 def2-TZVP TIGHTSCF CHELPG PMODEL
| 29>
| 30> %scf
| 31> MaxIter 1000
| 32> end
| 33>
| 34> * xyz 0 1
| 35>   C                      0.999467             -9.027304            -3.912011
| 36>   O                      2.186414             -9.130388            -3.186209
| 37>   H                      2.083546             -9.885682            -2.567494
| 38>   H                      0.950091             -9.809537            -4.582821
| 39>   H                      0.089306             -9.087572            -3.267712
| 40>   H                      0.963477             -8.154280            -4.573107
| 41>   C                    : -2.222377            -9.165229            -5.734418
| 42>   O                    : -1.041588            -9.092182            -6.516666
| 43>   H                    : -0.308865            -9.269490            -5.964832
| 44>   H                    : -2.538768            -10.195934           -5.512925
| 45>   H                    : -2.087220            -8.802993            -4.707319
| 46>   H                    : -3.014672            -8.630073            -6.223898
| 47> *
| 48>
| 49> #Run DFT-D3 single point of the particle with dimer basis set
| 50> $new_job
| 51> %base "2-57_DFT_B"
| 52> ! wB97X-D3 def2-TZVP TIGHTSCF CHELPG PMODEL
| 53>
| 54> %scf
| 55> MaxIter 1000
| 56> end
| 57>
| 58> * xyz 0 1
| 59>   C                    : 0.999467             -9.027304            -3.912011
| 60>   O                    : 2.186414             -9.130388            -3.186209
| 61>   H                    : 2.083546             -9.885682            -2.567494
| 62>   H                    : 0.950091             -9.809537            -4.582821
| 63>   H                    : 0.089306             -9.087572            -3.267712
| 64>   H                    : 0.963477             -8.154280            -4.573107
| 65>   C                      -2.222377            -9.165229            -5.734418
| 66>   O                      -1.041588            -9.092182            -6.516666
| 67>   H                      -0.308865            -9.269490            -5.964832
| 68>   H                      -2.538768            -10.195934           -5.512925
| 69>   H                      -2.087220            -8.802993            -4.707319
| 70>   H                      -3.014672            -8.630073            -6.223898
| 71> *
| 72>
| 73>                          ****END OF INPUT****
 Total Charge           Charge          ....    0
 Multiplicity           Mult            ....    1
 Number of Electrons    NEL             ....   36
Dispersion correction           -0.001965288
FINAL SINGLE POINT ENERGY      -231.464976072188
Dispersion correction           -0.000223826
FINAL SINGLE POINT ENERGY      -115.730714098992

CARTESIAN COORDINATES (ANGSTROEM)
---------------------------------
  C      0.999467   -9.027304   -3.912011
  O      2.186414   -9.130388   -3.186209
  H      2.083546   -9.885682   -2.567494
  H      0.950091   -9.809537   -4.582821
  H      0.089306   -9.087572   -3.267712
  H      0.963477   -8.154280   -4.573107
  C     -2.222377   -9.165229   -5.734418
  O     -1.041588   -9.092182   -6.516666
  H     -0.308865   -9.269490   -5.964832
  H     -2.538768  -10.195934   -5.512925
  H     -2.087220   -8.802993   -4.707319
  H     -3.014672   -8.630073   -6.223898

 Multiplicity           Mult            ....    1
 Number of Electrons    NEL             ....   18
 Basis Dimension        Dim             ....  172

ORBITAL ENERGIES
----------------

  NO   OCC          E(Eh)            E(eV)
   0   2.0000     -19.230500      -523.2885
   1   2.0000     -10.313366      -280.6410
   2   2.0000      -1.141103       -31.0510
   3   2.0000      -0.800582       -21.7849
   4   2.0000      -0.620217       -16.8770
   5   2.0000      -0.535474       -14.5710
   6   2.0000      -0.527146       -14.3444
   7   2.0000      -0.442376       -12.0377
   8   2.0000      -0.372742       -10.1428
   9   0.0000       0.070205         1.9104
  10   0.0000       0.136197         3.7061
  11   0.0000       0.148792         4.0488
  12   0.0000       0.174923         4.7599
  13   0.0000       0.193289         5.2597

MULLIKEN ATOMIC CHARGES
-----------------------
   0 C :   -0.005239
   1 O :   -0.000145
   2 H :   -0.000026
   3 H :   -0.003632
   4 H :    0.000472
   5 H :   -0.001983
   6 C :   -0.162431
   7 O :   -0.461176
   8 H :    0.310239
   9 H :    0.096779
  10 H :    0.101607
  11 H :    0.125536
Sum of atomic charges:    0.0000000

LOEWDIN ATOMIC CHARGES
----------------------
   0 C :   -0.014066
   1 O :   -0.000056
   2 H :   -0.000019
   3 H :   -0.006072
   4 H :   -0.001965
   5 H :   -0.003937
   6 C :   -0.376033
   7 O :   -0.051400
   8 H :    0.156198
   9 H :    0.095541
  10 H :    0.097191
  11 H :    0.104618

  Mayer bond orders larger than 0.1
B(  6-C ,  7-O ) :   0.9917 B(  6-C ,  9-H ) :   0.9742 B(  6-C , 10-H ) :   0.9758
B(  6-C , 11-H ) :   0.9769 B(  7-O ,  8-H ) :   0.9154

Dispersion correction           -0.000245884
FINAL SINGLE POINT ENERGY      -115.734579005479

DIPOLE MOMENT
-------------
                                X             Y             Z
Electronic contribution:      1.43004       0.19532      -1.21826
Nuclear contribution   :     -1.43333      -0.33106       1.89332
                        -----------------------------------------
Total Dipole Moment    :     -0.00329      -0.13574       0.67505
                        -----------------------------------------
Magnitude (a.u.)       :      0.68857
Magnitude (Debye)      :      1.75021

Rotational constants in cm-1:     4.422513     0.827813     0.790950
Rotational constants in MHz : 132583.608900 24817.205586 23712.082154

                             ****ORCA TERMINATED NORMALLY****
TOTAL RUN TIME: 0 days 0 hours 5 minutes 51 seconds 174 msec
