                         Program Version 4.1.2  - RELEASE  -
|  1> #Run DFT-D3 single point of the dimer
|  2> ! wB97X-D3 def2-TZVP TIGHTSCF CHELPG PMODEL PAL8
|  3>
|  4> %base "22-135_DFT_AB"
|  5>
|  6> %scf
|  7> MaxIter 1000
|  8> end
|  9>
| 10> * xyz 0 1
| 11>   C                      -6.064627            7.188321             -11.432468
| 12>   O                      -5.788437            7.373492             -10.093867
| 13>   H                      -4.872446            7.602528             -10.077802
| 14>   H                      -7.156699            7.111076             -11.643021
| 15>   H                      -5.706428            8.024415             -11.995838
| 16>   H                      -5.650287            6.228816             -11.865128
| 17>   C                      -6.210408            7.186349             -6.347533
| 18>   O                      -6.337280            8.254765             -7.246706
| 19>   H                      -6.561061            7.790520             -8.089679
| 20>   H                      -6.987174            6.395478             -6.449828
| 21>   H                      -5.291814            6.642553             -6.432559
| 22>   H                      -6.203094            7.509204             -5.298534
| 23> *
| 24>
| 25> #Run DFT-D3 single point of the molecule with dimer basis set
| 26> $new_job
| 27> %base "22-135_DFT_A"
| 28> ! wB97X-D3 def2-TZVP TIGHTSCF CHELPG PMODEL
| 29>
| 30> %scf
| 31> MaxIter 1000
| 32> end
| 33>
| 34> * xyz 0 1
| 35>   C                      -6.064627            7.188321             -11.432468
| 36>   O                      -5.788437            7.373492             -10.093867
| 37>   H                      -4.872446            7.602528             -10.077802
| 38>   H                      -7.156699            7.111076             -11.643021
| 39>   H                      -5.706428            8.024415             -11.995838
| 40>   H                      -5.650287            6.228816             -11.865128
| 41>   C                    : -6.210408            7.186349             -6.347533
| 42>   O                    : -6.337280            8.254765             -7.246706
| 43>   H                    : -6.561061            7.790520             -8.089679
| 44>   H                    : -6.987174            6.395478             -6.449828
| 45>   H                    : -5.291814            6.642553             -6.432559
| 46>   H                    : -6.203094            7.509204             -5.298534
| 47> *
| 48>
| 49> #Run DFT-D3 single point of the particle with dimer basis set
| 50> $new_job
| 51> %base "22-135_DFT_B"
| 52> ! wB97X-D3 def2-TZVP TIGHTSCF CHELPG PMODEL
| 53>
| 54> %scf
| 55> MaxIter 1000
| 56> end
| 57>
| 58> * xyz 0 1
| 59>   C                    : -6.064627            7.188321             -11.432468
| 60>   O                    : -5.788437            7.373492             -10.093867
| 61>   H                    : -4.872446            7.602528             -10.077802
| 62>   H                    : -7.156699            7.111076             -11.643021
| 63>   H                    : -5.706428            8.024415             -11.995838
| 64>   H                    : -5.650287            6.228816             -11.865128
| 65>   C                      -6.210408            7.186349             -6.347533
| 66>   O                      -6.337280            8.254765             -7.246706
| 67>   H                      -6.561061            7.790520             -8.089679
| 68>   H                      -6.987174            6.395478             -6.449828
| 69>   H                      -5.291814            6.642553             -6.432559
| 70>   H                      -6.203094            7.509204             -5.298534
| 71> *
| 72>
| 73>                          ****END OF INPUT****
 Total Charge           Charge          ....    0
 Multiplicity           Mult            ....    1
 Number of Electrons    NEL             ....   36
Dispersion correction           -0.001396594
FINAL SINGLE POINT ENERGY      -231.473230546959
Dispersion correction           -0.000225241
FINAL SINGLE POINT ENERGY      -115.733452031873

CARTESIAN COORDINATES (ANGSTROEM)
---------------------------------
  C     -6.064627    7.188321  -11.432468
  O     -5.788437    7.373492  -10.093867
  H     -4.872446    7.602528  -10.077802
  H     -7.156699    7.111076  -11.643021
  H     -5.706428    8.024415  -11.995838
  H     -5.650287    6.228816  -11.865128
  C     -6.210408    7.186349   -6.347533
  O     -6.337280    8.254765   -7.246706
  H     -6.561061    7.790520   -8.089679
  H     -6.987174    6.395478   -6.449828
  H     -5.291814    6.642553   -6.432559
  H     -6.203094    7.509204   -5.298534

 Multiplicity           Mult            ....    1
 Number of Electrons    NEL             ....   18
 Basis Dimension        Dim             ....  172

ORBITAL ENERGIES
----------------

  NO   OCC          E(Eh)            E(eV)
   0   2.0000     -19.239810      -523.5418
   1   2.0000     -10.311806      -280.5985
   2   2.0000      -1.141216       -31.0541
   3   2.0000      -0.793452       -21.5909
   4   2.0000      -0.613315       -16.6891
   5   2.0000      -0.538099       -14.6424
   6   2.0000      -0.529850       -14.4180
   7   2.0000      -0.440853       -11.9962
   8   2.0000      -0.374262       -10.1842
   9   0.0000       0.073035         1.9874
  10   0.0000       0.121163         3.2970
  11   0.0000       0.150607         4.0982
  12   0.0000       0.166053         4.5185
  13   0.0000       0.196773         5.3545

MULLIKEN ATOMIC CHARGES
-----------------------
   0 C :   -0.001235
   1 O :   -0.003322
   2 H :   -0.001760
   3 H :    0.000032
   4 H :    0.000033
   5 H :    0.000010
   6 C :   -0.185926
   7 O :   -0.450839
   8 H :    0.319313
   9 H :    0.101464
  10 H :    0.103366
  11 H :    0.118863
Sum of atomic charges:    0.0000000

LOEWDIN ATOMIC CHARGES
----------------------
   0 C :   -0.001002
   1 O :   -0.012437
   2 H :   -0.002277
   3 H :   -0.000050
   4 H :   -0.000026
   5 H :   -0.000022
   6 C :   -0.409101
   7 O :   -0.065685
   8 H :    0.196039
   9 H :    0.097374
  10 H :    0.088508
  11 H :    0.108679

  Mayer bond orders larger than 0.1
B(  6-C ,  7-O ) :   1.0136 B(  6-C ,  9-H ) :   0.9819 B(  6-C , 10-H ) :   0.9701
B(  6-C , 11-H ) :   0.9749 B(  7-O ,  8-H ) :   0.8965

Dispersion correction           -0.000238040
FINAL SINGLE POINT ENERGY      -115.732914443460

DIPOLE MOMENT
-------------
                                X             Y             Z
Electronic contribution:     -0.15098       1.64484      -1.11794
Nuclear contribution   :      0.07162      -2.32819       0.95651
                        -----------------------------------------
Total Dipole Moment    :     -0.07936      -0.68335      -0.16143
                        -----------------------------------------
Magnitude (a.u.)       :      0.70662
Magnitude (Debye)      :      1.79610

Rotational constants in cm-1:     4.340040     0.840685     0.799951
Rotational constants in MHz : 130111.130409 25203.113677 23981.939040

                             ****ORCA TERMINATED NORMALLY****
TOTAL RUN TIME: 0 days 0 hours 1 minutes 6 seconds 400 msec
