                         Program Version 4.1.2  - RELEASE  -
|  1> #Run DFT-D3 single point of the dimer
|  2> ! wB97X-D3 def2-TZVP TIGHTSCF CHELPG PMODEL PAL8
|  3>
|  4> %base "21-200_DFT_AB"
|  5>
|  6> %scf
|  7> MaxIter 1000
|  8> end
|  9>
| 10> * xyz 0 1
| 11>   C                      8.293805             2.118872             1.061510
| 12>   O                      8.846455             2.243214             -0.200931
| 13>   H                      8.816435             1.397123             -0.646495
| 14>   H                      7.966596             3.069867             1.516631
| 15>   H                      7.468484             1.394760             1.108079
| 16>   H                      9.059722             1.647796             1.741693
| 17>   C                      7.172818             -0.603873            -0.970742
| 18>   O                      8.116785             -0.080905            -1.887271
| 19>   H                      7.675799             0.293743             -2.663364
| 20>   H                      6.370550             0.113535             -0.950695
| 21>   H                      6.835261             -1.662762            -1.272122
| 22>   H                      7.668848             -0.633000            0.010413
| 23> *
| 24>
| 25> #Run DFT-D3 single point of the molecule with dimer basis set
| 26> $new_job
| 27> %base "21-200_DFT_A"
| 28> ! wB97X-D3 def2-TZVP TIGHTSCF CHELPG PMODEL
| 29>
| 30> %scf
| 31> MaxIter 1000
| 32> end
| 33>
| 34> * xyz 0 1
| 35>   C                      8.293805             2.118872             1.061510
| 36>   O                      8.846455             2.243214             -0.200931
| 37>   H                      8.816435             1.397123             -0.646495
| 38>   H                      7.966596             3.069867             1.516631
| 39>   H                      7.468484             1.394760             1.108079
| 40>   H                      9.059722             1.647796             1.741693
| 41>   C                    : 7.172818             -0.603873            -0.970742
| 42>   O                    : 8.116785             -0.080905            -1.887271
| 43>   H                    : 7.675799             0.293743             -2.663364
| 44>   H                    : 6.370550             0.113535             -0.950695
| 45>   H                    : 6.835261             -1.662762            -1.272122
| 46>   H                    : 7.668848             -0.633000            0.010413
| 47> *
| 48>
| 49> #Run DFT-D3 single point of the particle with dimer basis set
| 50> $new_job
| 51> %base "21-200_DFT_B"
| 52> ! wB97X-D3 def2-TZVP TIGHTSCF CHELPG PMODEL
| 53>
| 54> %scf
| 55> MaxIter 1000
| 56> end
| 57>
| 58> * xyz 0 1
| 59>   C                    : 8.293805             2.118872             1.061510
| 60>   O                    : 8.846455             2.243214             -0.200931
| 61>   H                    : 8.816435             1.397123             -0.646495
| 62>   H                    : 7.966596             3.069867             1.516631
| 63>   H                    : 7.468484             1.394760             1.108079
| 64>   H                    : 9.059722             1.647796             1.741693
| 65>   C                      7.172818             -0.603873            -0.970742
| 66>   O                      8.116785             -0.080905            -1.887271
| 67>   H                      7.675799             0.293743             -2.663364
| 68>   H                      6.370550             0.113535             -0.950695
| 69>   H                      6.835261             -1.662762            -1.272122
| 70>   H                      7.668848             -0.633000            0.010413
| 71> *
| 72>
| 73>                          ****END OF INPUT****
 Total Charge           Charge          ....    0
 Multiplicity           Mult            ....    1
 Number of Electrons    NEL             ....   36
Dispersion correction           -0.002222414
FINAL SINGLE POINT ENERGY      -231.474381626195
Dispersion correction           -0.000235899
FINAL SINGLE POINT ENERGY      -115.733795360518

CARTESIAN COORDINATES (ANGSTROEM)
---------------------------------
  C      8.293805    2.118872    1.061510
  O      8.846455    2.243214   -0.200931
  H      8.816435    1.397123   -0.646495
  H      7.966596    3.069867    1.516631
  H      7.468484    1.394760    1.108079
  H      9.059722    1.647796    1.741693
  C      7.172818   -0.603873   -0.970742
  O      8.116785   -0.080905   -1.887271
  H      7.675799    0.293743   -2.663364
  H      6.370550    0.113535   -0.950695
  H      6.835261   -1.662762   -1.272122
  H      7.668848   -0.633000    0.010413

 Multiplicity           Mult            ....    1
 Number of Electrons    NEL             ....   18
 Basis Dimension        Dim             ....  172

ORBITAL ENERGIES
----------------

  NO   OCC          E(Eh)            E(eV)
   0   2.0000     -19.227171      -523.1979
   1   2.0000     -10.318814      -280.7892
   2   2.0000      -1.132088       -30.8057
   3   2.0000      -0.791184       -21.5292
   4   2.0000      -0.606624       -16.5071
   5   2.0000      -0.542274       -14.7560
   6   2.0000      -0.528253       -14.3745
   7   2.0000      -0.427091       -11.6217
   8   2.0000      -0.371410       -10.1066
   9   0.0000       0.092241         2.5100
  10   0.0000       0.120441         3.2774
  11   0.0000       0.156499         4.2586
  12   0.0000       0.180110         4.9010
  13   0.0000       0.194159         5.2833

MULLIKEN ATOMIC CHARGES
-----------------------
   0 C :    0.001935
   1 O :   -0.002954
   2 H :   -0.004301
   3 H :   -0.000085
   4 H :   -0.004079
   5 H :   -0.000428
   6 C :   -0.145092
   7 O :   -0.486535
   8 H :    0.316093
   9 H :    0.103841
  10 H :    0.099672
  11 H :    0.121933
Sum of atomic charges:   -0.0000000

LOEWDIN ATOMIC CHARGES
----------------------
   0 C :   -0.005930
   1 O :   -0.005255
   2 H :   -0.033831
   3 H :   -0.000022
   4 H :   -0.005381
   5 H :   -0.000178
   6 C :   -0.374885
   7 O :   -0.058847
   8 H :    0.170875
   9 H :    0.094468
  10 H :    0.104722
  11 H :    0.114264

  Mayer bond orders larger than 0.1
B(  6-C ,  7-O ) :   0.9777 B(  6-C ,  9-H ) :   0.9895 B(  6-C , 10-H ) :   0.9622
B(  6-C , 11-H ) :   0.9774 B(  7-O ,  8-H ) :   0.8948

Dispersion correction           -0.000241163
FINAL SINGLE POINT ENERGY      -115.733354866802

DIPOLE MOMENT
-------------
                                X             Y             Z
Electronic contribution:      1.21952       0.59851      -1.01752
Nuclear contribution   :     -1.87721      -0.54409       0.89683
                        -----------------------------------------
Total Dipole Moment    :     -0.65770       0.05442      -0.12069
                        -----------------------------------------
Magnitude (a.u.)       :      0.67089
Magnitude (Debye)      :      1.70526

Rotational constants in cm-1:     4.110024     0.830286     0.807830
Rotational constants in MHz : 123215.408518 24891.361496 24218.121502

                             ****ORCA TERMINATED NORMALLY****
TOTAL RUN TIME: 0 days 0 hours 1 minutes 5 seconds 897 msec
