                         Program Version 4.1.2  - RELEASE  -
|  1> #Run DFT-D3 single point of the dimer
|  2> ! wB97X-D3 def2-TZVP TIGHTSCF CHELPG PMODEL PAL8
|  3>
|  4> %base "4-155_DFT_AB"
|  5>
|  6> %scf
|  7> MaxIter 1000
|  8> end
|  9>
| 10> * xyz 0 1
| 11>   C                      7.470692             6.028601             6.508345
| 12>   O                      7.339370             6.917307             7.588808
| 13>   H                      7.231223             7.717244             7.138052
| 14>   H                      7.922001             5.088984             6.804653
| 15>   H                      6.594084             5.881988             5.978503
| 16>   H                      8.218591             6.480001             5.812974
| 17>   C                      8.255847             5.488541             10.299540
| 18>   O                      9.442645             6.034434             9.838156
| 19>   H                      9.223365             6.371996             8.952072
| 20>   H                      7.598278             6.351766             10.589711
| 21>   H                      7.655956             4.927146             9.615797
| 22>   H                      8.317550             4.875409             11.204083
| 23> *
| 24>
| 25> #Run DFT-D3 single point of the molecule with dimer basis set
| 26> $new_job
| 27> %base "4-155_DFT_A"
| 28> ! wB97X-D3 def2-TZVP TIGHTSCF CHELPG PMODEL
| 29>
| 30> %scf
| 31> MaxIter 1000
| 32> end
| 33>
| 34> * xyz 0 1
| 35>   C                      7.470692             6.028601             6.508345
| 36>   O                      7.339370             6.917307             7.588808
| 37>   H                      7.231223             7.717244             7.138052
| 38>   H                      7.922001             5.088984             6.804653
| 39>   H                      6.594084             5.881988             5.978503
| 40>   H                      8.218591             6.480001             5.812974
| 41>   C                    : 8.255847             5.488541             10.299540
| 42>   O                    : 9.442645             6.034434             9.838156
| 43>   H                    : 9.223365             6.371996             8.952072
| 44>   H                    : 7.598278             6.351766             10.589711
| 45>   H                    : 7.655956             4.927146             9.615797
| 46>   H                    : 8.317550             4.875409             11.204083
| 47> *
| 48>
| 49> #Run DFT-D3 single point of the particle with dimer basis set
| 50> $new_job
| 51> %base "4-155_DFT_B"
| 52> ! wB97X-D3 def2-TZVP TIGHTSCF CHELPG PMODEL
| 53>
| 54> %scf
| 55> MaxIter 1000
| 56> end
| 57>
| 58> * xyz 0 1
| 59>   C                    : 7.470692             6.028601             6.508345
| 60>   O                    : 7.339370             6.917307             7.588808
| 61>   H                    : 7.231223             7.717244             7.138052
| 62>   H                    : 7.922001             5.088984             6.804653
| 63>   H                    : 6.594084             5.881988             5.978503
| 64>   H                    : 8.218591             6.480001             5.812974
| 65>   C                      8.255847             5.488541             10.299540
| 66>   O                      9.442645             6.034434             9.838156
| 67>   H                      9.223365             6.371996             8.952072
| 68>   H                      7.598278             6.351766             10.589711
| 69>   H                      7.655956             4.927146             9.615797
| 70>   H                      8.317550             4.875409             11.204083
| 71> *
| 72>
| 73>                          ****END OF INPUT****
 Total Charge           Charge          ....    0
 Multiplicity           Mult            ....    1
 Number of Electrons    NEL             ....   36
Dispersion correction           -0.002136097
FINAL SINGLE POINT ENERGY      -231.466514246457
Dispersion correction           -0.000201177
FINAL SINGLE POINT ENERGY      -115.729749613412

CARTESIAN COORDINATES (ANGSTROEM)
---------------------------------
  C      7.470692    6.028601    6.508345
  O      7.339370    6.917307    7.588808
  H      7.231223    7.717244    7.138052
  H      7.922001    5.088984    6.804653
  H      6.594084    5.881988    5.978503
  H      8.218591    6.480001    5.812974
  C      8.255847    5.488541   10.299540
  O      9.442645    6.034434    9.838156
  H      9.223365    6.371996    8.952072
  H      7.598278    6.351766   10.589711
  H      7.655956    4.927146    9.615797
  H      8.317550    4.875409   11.204083

 Multiplicity           Mult            ....    1
 Number of Electrons    NEL             ....   18
 Basis Dimension        Dim             ....  172

ORBITAL ENERGIES
----------------

  NO   OCC          E(Eh)            E(eV)
   0   2.0000     -19.236212      -523.4439
   1   2.0000     -10.310751      -280.5698
   2   2.0000      -1.147637       -31.2288
   3   2.0000      -0.793592       -21.5947
   4   2.0000      -0.619382       -16.8542
   5   2.0000      -0.539724       -14.6866
   6   2.0000      -0.532802       -14.4983
   7   2.0000      -0.438496       -11.9321
   8   2.0000      -0.368970       -10.0402
   9   0.0000       0.066476         1.8089
  10   0.0000       0.137654         3.7458
  11   0.0000       0.147367         4.0101
  12   0.0000       0.156708         4.2642
  13   0.0000       0.192635         5.2419

MULLIKEN ATOMIC CHARGES
-----------------------
   0 C :   -0.002271
   1 O :   -0.000204
   2 H :   -0.000078
   3 H :    0.000064
   4 H :    0.000021
   5 H :    0.000170
   6 C :   -0.189851
   7 O :   -0.456470
   8 H :    0.319914
   9 H :    0.095888
  10 H :    0.107634
  11 H :    0.125184
Sum of atomic charges:    0.0000000

LOEWDIN ATOMIC CHARGES
----------------------
   0 C :   -0.004587
   1 O :   -0.006668
   2 H :   -0.000363
   3 H :   -0.001081
   4 H :   -0.000060
   5 H :   -0.000082
   6 C :   -0.416152
   7 O :   -0.052467
   8 H :    0.184936
   9 H :    0.100007
  10 H :    0.088458
  11 H :    0.108058

  Mayer bond orders larger than 0.1
B(  6-C ,  7-O ) :   1.0018 B(  6-C ,  9-H ) :   0.9914 B(  6-C , 10-H ) :   0.9701
B(  6-C , 11-H ) :   0.9700 B(  7-O ,  8-H ) :   0.9003

Dispersion correction           -0.000227837
FINAL SINGLE POINT ENERGY      -115.730559141912

DIPOLE MOMENT
-------------
                                X             Y             Z
Electronic contribution:      1.82906       0.53945      -0.56249
Nuclear contribution   :     -2.40208      -0.54987       0.17547
                        -----------------------------------------
Total Dipole Moment    :     -0.57302      -0.01042      -0.38701
                        -----------------------------------------
Magnitude (a.u.)       :      0.69155
Magnitude (Debye)      :      1.75778

Rotational constants in cm-1:     4.387757     0.852497     0.818814
Rotational constants in MHz : 131541.652807 25557.223386 24547.436133

                             ****ORCA TERMINATED NORMALLY****
TOTAL RUN TIME: 0 days 0 hours 1 minutes 36 seconds 459 msec
