                         Program Version 4.1.2  - RELEASE  -
|  1> #Run DFT-D3 single point of the dimer
|  2> ! wB97X-D3 def2-TZVP TIGHTSCF CHELPG PMODEL PAL8
|  3>
|  4> %base "10-75_DFT_AB"
|  5>
|  6> %scf
|  7> MaxIter 1000
|  8> end
|  9>
| 10> * xyz 0 1
| 11>   C                      4.546624             -10.081734           -0.355543
| 12>   O                      3.316980             -9.471916            -0.450149
| 13>   H                      3.133284             -8.853097            0.272998
| 14>   H                      5.079215             -10.102797           -1.305874
| 15>   H                      5.187251             -9.604669            0.363695
| 16>   H                      4.466684             -11.200598           -0.094542
| 17>   C                      2.675618             -6.203368            1.633675
| 18>   O                      2.444537             -7.647593            1.736509
| 19>   H                      2.723204             -7.991222            2.578155
| 20>   H                      3.587809             -5.803961            2.130303
| 21>   H                      2.623426             -5.896592            0.648112
| 22>   H                      1.901644             -5.689782            2.197919
| 23> *
| 24>
| 25> #Run DFT-D3 single point of the molecule with dimer basis set
| 26> $new_job
| 27> %base "10-75_DFT_A"
| 28> ! wB97X-D3 def2-TZVP TIGHTSCF CHELPG PMODEL
| 29>
| 30> %scf
| 31> MaxIter 1000
| 32> end
| 33>
| 34> * xyz 0 1
| 35>   C                      4.546624             -10.081734           -0.355543
| 36>   O                      3.316980             -9.471916            -0.450149
| 37>   H                      3.133284             -8.853097            0.272998
| 38>   H                      5.079215             -10.102797           -1.305874
| 39>   H                      5.187251             -9.604669            0.363695
| 40>   H                      4.466684             -11.200598           -0.094542
| 41>   C                    : 2.675618             -6.203368            1.633675
| 42>   O                    : 2.444537             -7.647593            1.736509
| 43>   H                    : 2.723204             -7.991222            2.578155
| 44>   H                    : 3.587809             -5.803961            2.130303
| 45>   H                    : 2.623426             -5.896592            0.648112
| 46>   H                    : 1.901644             -5.689782            2.197919
| 47> *
| 48>
| 49> #Run DFT-D3 single point of the particle with dimer basis set
| 50> $new_job
| 51> %base "10-75_DFT_B"
| 52> ! wB97X-D3 def2-TZVP TIGHTSCF CHELPG PMODEL
| 53>
| 54> %scf
| 55> MaxIter 1000
| 56> end
| 57>
| 58> * xyz 0 1
| 59>   C                    : 4.546624             -10.081734           -0.355543
| 60>   O                    : 3.316980             -9.471916            -0.450149
| 61>   H                    : 3.133284             -8.853097            0.272998
| 62>   H                    : 5.079215             -10.102797           -1.305874
| 63>   H                    : 5.187251             -9.604669            0.363695
| 64>   H                    : 4.466684             -11.200598           -0.094542
| 65>   C                      2.675618             -6.203368            1.633675
| 66>   O                      2.444537             -7.647593            1.736509
| 67>   H                      2.723204             -7.991222            2.578155
| 68>   H                      3.587809             -5.803961            2.130303
| 69>   H                      2.623426             -5.896592            0.648112
| 70>   H                      1.901644             -5.689782            2.197919
| 71> *
| 72>
| 73>                          ****END OF INPUT****
 Total Charge           Charge          ....    0
 Multiplicity           Mult            ....    1
 Number of Electrons    NEL             ....   36
Dispersion correction           -0.001591161
FINAL SINGLE POINT ENERGY      -231.471327986600
Dispersion correction           -0.000254254
FINAL SINGLE POINT ENERGY      -115.732344439234

CARTESIAN COORDINATES (ANGSTROEM)
---------------------------------
  C      4.546624  -10.081734   -0.355543
  O      3.316980   -9.471916   -0.450149
  H      3.133284   -8.853097    0.272998
  H      5.079215  -10.102797   -1.305874
  H      5.187251   -9.604669    0.363695
  H      4.466684  -11.200598   -0.094542
  C      2.675618   -6.203368    1.633675
  O      2.444537   -7.647593    1.736509
  H      2.723204   -7.991222    2.578155
  H      3.587809   -5.803961    2.130303
  H      2.623426   -5.896592    0.648112
  H      1.901644   -5.689782    2.197919

 Multiplicity           Mult            ....    1
 Number of Electrons    NEL             ....   18
 Basis Dimension        Dim             ....  172

ORBITAL ENERGIES
----------------

  NO   OCC          E(Eh)            E(eV)
   0   2.0000     -19.229460      -523.2602
   1   2.0000     -10.313660      -280.6490
   2   2.0000      -1.120977       -30.5033
   3   2.0000      -0.806295       -21.9404
   4   2.0000      -0.607581       -16.5331
   5   2.0000      -0.537522       -14.6267
   6   2.0000      -0.521477       -14.1901
   7   2.0000      -0.440584       -11.9889
   8   2.0000      -0.372834       -10.1453
   9   0.0000       0.096863         2.6358
  10   0.0000       0.124378         3.3845
  11   0.0000       0.149297         4.0626
  12   0.0000       0.186451         5.0736
  13   0.0000       0.202292         5.5046

MULLIKEN ATOMIC CHARGES
-----------------------
   0 C :    0.000648
   1 O :   -0.001451
   2 H :   -0.006750
   3 H :   -0.000232
   4 H :   -0.002185
   5 H :   -0.000054
   6 C :   -0.166478
   7 O :   -0.484623
   8 H :    0.313992
   9 H :    0.105142
  10 H :    0.134569
  11 H :    0.107422
Sum of atomic charges:    0.0000000

LOEWDIN ATOMIC CHARGES
----------------------
   0 C :   -0.001807
   1 O :   -0.004213
   2 H :   -0.038820
   3 H :   -0.000032
   4 H :   -0.000705
   5 H :   -0.000017
   6 C :   -0.337277
   7 O :   -0.069287
   8 H :    0.157957
   9 H :    0.101356
  10 H :    0.094742
  11 H :    0.098103

  Mayer bond orders larger than 0.1
B(  6-C ,  7-O ) :   0.9835 B(  6-C ,  9-H ) :   0.9713 B(  6-C , 10-H ) :   0.9764
B(  6-C , 11-H ) :   0.9766 B(  7-O ,  8-H ) :   0.8983

Dispersion correction           -0.000275861
FINAL SINGLE POINT ENERGY      -115.730102412838

DIPOLE MOMENT
-------------
                                X             Y             Z
Electronic contribution:     -0.27537      -1.80396      -0.13804
Nuclear contribution   :      0.54080       2.22983       0.64395
                        -----------------------------------------
Total Dipole Moment    :      0.26543       0.42587       0.50591
                        -----------------------------------------
Magnitude (a.u.)       :      0.71257
Magnitude (Debye)      :      1.81121

Rotational constants in cm-1:     4.516177     0.780199     0.749518
Rotational constants in MHz : 135391.592909 23389.781830 22469.987316

                             ****ORCA TERMINATED NORMALLY****
TOTAL RUN TIME: 0 days 0 hours 1 minutes 4 seconds 830 msec
