                         Program Version 4.1.2  - RELEASE  -
|  1> #Run DFT-D3 single point of the dimer
|  2> ! wB97X-D3 def2-TZVP TIGHTSCF CHELPG PMODEL PAL8
|  3>
|  4> %base "3-35_DFT_AB"
|  5>
|  6> %scf
|  7> MaxIter 1000
|  8> end
|  9>
| 10> * xyz 0 1
| 11>   C                      -4.983724            -1.861540            -7.037725
| 12>   O                      -5.308556            -0.500746            -6.993364
| 13>   H                      -5.230599            -0.272961            -7.890385
| 14>   H                      -4.141318            -2.148880            -7.659056
| 15>   H                      -4.764248            -2.337265            -6.067641
| 16>   H                      -5.873911            -2.396272            -7.501663
| 17>   C                      -8.821736            -2.244339            -2.772224
| 18>   O                      -7.682576            -2.300097            -3.539446
| 19>   H                      -7.004635            -2.703530            -2.993560
| 20>   H                      -8.519743            -2.124403            -1.693724
| 21>   H                      -9.474472            -1.386204            -3.000536
| 22>   H                      -9.400907            -3.212048            -2.883486
| 23> *
| 24>
| 25> #Run DFT-D3 single point of the molecule with dimer basis set
| 26> $new_job
| 27> %base "3-35_DFT_A"
| 28> ! wB97X-D3 def2-TZVP TIGHTSCF CHELPG PMODEL
| 29>
| 30> %scf
| 31> MaxIter 1000
| 32> end
| 33>
| 34> * xyz 0 1
| 35>   C                      -4.983724            -1.861540            -7.037725
| 36>   O                      -5.308556            -0.500746            -6.993364
| 37>   H                      -5.230599            -0.272961            -7.890385
| 38>   H                      -4.141318            -2.148880            -7.659056
| 39>   H                      -4.764248            -2.337265            -6.067641
| 40>   H                      -5.873911            -2.396272            -7.501663
| 41>   C                    : -8.821736            -2.244339            -2.772224
| 42>   O                    : -7.682576            -2.300097            -3.539446
| 43>   H                    : -7.004635            -2.703530            -2.993560
| 44>   H                    : -8.519743            -2.124403            -1.693724
| 45>   H                    : -9.474472            -1.386204            -3.000536
| 46>   H                    : -9.400907            -3.212048            -2.883486
| 47> *
| 48>
| 49> #Run DFT-D3 single point of the particle with dimer basis set
| 50> $new_job
| 51> %base "3-35_DFT_B"
| 52> ! wB97X-D3 def2-TZVP TIGHTSCF CHELPG PMODEL
| 53>
| 54> %scf
| 55> MaxIter 1000
| 56> end
| 57>
| 58> * xyz 0 1
| 59>   C                    : -4.983724            -1.861540            -7.037725
| 60>   O                    : -5.308556            -0.500746            -6.993364
| 61>   H                    : -5.230599            -0.272961            -7.890385
| 62>   H                    : -4.141318            -2.148880            -7.659056
| 63>   H                    : -4.764248            -2.337265            -6.067641
| 64>   H                    : -5.873911            -2.396272            -7.501663
| 65>   C                      -8.821736            -2.244339            -2.772224
| 66>   O                      -7.682576            -2.300097            -3.539446
| 67>   H                      -7.004635            -2.703530            -2.993560
| 68>   H                      -8.519743            -2.124403            -1.693724
| 69>   H                      -9.474472            -1.386204            -3.000536
| 70>   H                      -9.400907            -3.212048            -2.883486
| 71> *
| 72>
| 73>                          ****END OF INPUT****
 Total Charge           Charge          ....    0
 Multiplicity           Mult            ....    1
 Number of Electrons    NEL             ....   36
Dispersion correction           -0.000754713
FINAL SINGLE POINT ENERGY      -231.461558115183
Dispersion correction           -0.000226256
FINAL SINGLE POINT ENERGY      -115.729577443341

CARTESIAN COORDINATES (ANGSTROEM)
---------------------------------
  C     -4.983724   -1.861540   -7.037725
  O     -5.308556   -0.500746   -6.993364
  H     -5.230599   -0.272961   -7.890385
  H     -4.141318   -2.148880   -7.659056
  H     -4.764248   -2.337265   -6.067641
  H     -5.873911   -2.396272   -7.501663
  C     -8.821736   -2.244339   -2.772224
  O     -7.682576   -2.300097   -3.539446
  H     -7.004635   -2.703530   -2.993560
  H     -8.519743   -2.124403   -1.693724
  H     -9.474472   -1.386204   -3.000536
  H     -9.400907   -3.212048   -2.883486

 Multiplicity           Mult            ....    1
 Number of Electrons    NEL             ....   18
 Basis Dimension        Dim             ....  172

ORBITAL ENERGIES
----------------

  NO   OCC          E(Eh)            E(eV)
   0   2.0000     -19.230454      -523.2872
   1   2.0000     -10.318612      -280.7837
   2   2.0000      -1.151332       -31.3293
   3   2.0000      -0.786839       -21.4110
   4   2.0000      -0.616519       -16.7763
   5   2.0000      -0.545033       -14.8311
   6   2.0000      -0.534050       -14.5322
   7   2.0000      -0.427370       -11.6293
   8   2.0000      -0.370482       -10.0813
   9   0.0000       0.092593         2.5196
  10   0.0000       0.112273         3.0551
  11   0.0000       0.152896         4.1605
  12   0.0000       0.176280         4.7968
  13   0.0000       0.194009         5.2792

MULLIKEN ATOMIC CHARGES
-----------------------
   0 C :   -0.000907
   1 O :    0.000127
   2 H :    0.000008
   3 H :   -0.000070
   4 H :   -0.000466
   5 H :   -0.000001
   6 C :   -0.169748
   7 O :   -0.459134
   8 H :    0.320255
   9 H :    0.095186
  10 H :    0.118645
  11 H :    0.096104
Sum of atomic charges:    0.0000000

LOEWDIN ATOMIC CHARGES
----------------------
   0 C :   -0.000721
   1 O :   -0.000025
   2 H :   -0.000002
   3 H :   -0.000019
   4 H :   -0.000283
   5 H :   -0.000074
   6 C :   -0.425366
   7 O :   -0.051364
   8 H :    0.174879
   9 H :    0.098582
  10 H :    0.105496
  11 H :    0.098897

  Mayer bond orders larger than 0.1
B(  6-C ,  7-O ) :   1.0030 B(  6-C ,  9-H ) :   0.9880 B(  6-C , 10-H ) :   0.9692
B(  6-C , 11-H ) :   0.9730 B(  7-O ,  8-H ) :   0.8962

Dispersion correction           -0.000226704
FINAL SINGLE POINT ENERGY      -115.732488620160

DIPOLE MOMENT
-------------
                                X             Y             Z
Electronic contribution:      1.43127       0.05525      -1.21826
Nuclear contribution   :     -1.39891      -0.26382       1.85617
                        -----------------------------------------
Total Dipole Moment    :      0.03236      -0.20857       0.63790
                        -----------------------------------------
Magnitude (a.u.)       :      0.67191
Magnitude (Debye)      :      1.70787

Rotational constants in cm-1:     4.116941     0.865631     0.838191
Rotational constants in MHz : 123422.773465 25950.957485 25128.348056

                             ****ORCA TERMINATED NORMALLY****
TOTAL RUN TIME: 0 days 0 hours 6 minutes 23 seconds 845 msec
