                         Program Version 4.1.2  - RELEASE  -
|  1> #Run DFT-D3 single point of the dimer
|  2> ! wB97X-D3 def2-TZVP TIGHTSCF  CHELPG PAL8
|  3>
|  4> %base "101_charges"
|  5>
|  6> %scf
|  7> MaxIter 1000
|  8> end
|  9> %output
| 10>   Print[ P_Mayer ] 1
| 11>   Print[ P_NatPop ] 1
| 12>   Print[ P_Hirshfeld ] 1
| 13>   Print[ P_Mulliken ] 1
| 14>   Print [ P_Loewdin ] 1
| 15> end
| 16>
| 17> * xyz 0 1
| 18>   C                      6.136890             4.513762             6.511239
| 19>   O                      6.341691             4.452216             5.096472
| 20>   H                      7.227315             4.174487             5.012936
| 21>   H                      6.621024             3.648944             7.024267
| 22>   H                      6.603303             5.385847             6.873901
| 23>   H                      5.124384             4.700633             6.804220
| 24> *
| 25>
| 26>                          ****END OF INPUT****

CARTESIAN COORDINATES (ANGSTROEM)
---------------------------------
  C      6.136890    4.513762    6.511239
  O      6.341691    4.452216    5.096472
  H      7.227315    4.174487    5.012936
  H      6.621024    3.648944    7.024267
  H      6.603303    5.385847    6.873901
  H      5.124384    4.700633    6.804220

 Total Charge           Charge          ....    0
 Multiplicity           Mult            ....    1
 Number of Electrons    NEL             ....   18
 Basis Dimension        Dim             ....   86

ORBITAL ENERGIES
----------------

  NO   OCC          E(Eh)            E(eV)
   0   2.0000     -19.227263      -523.2004
   1   2.0000     -10.310262      -280.5565
   2   2.0000      -1.139049       -30.9951
   3   2.0000      -0.801762       -21.8170
   4   2.0000      -0.609481       -16.5848
   5   2.0000      -0.544167       -14.8075
   6   2.0000      -0.529025       -14.3955
   7   2.0000      -0.441929       -12.0255
   8   2.0000      -0.371994       -10.1225
   9   0.0000       0.116878         3.1804
  10   0.0000       0.156789         4.2664
  11   0.0000       0.200334         5.4514
  12   0.0000       0.210637         5.7317
  13   0.0000       0.225347         6.1320

MULLIKEN ATOMIC CHARGES
-----------------------
   0 C :   -0.171962
   1 O :   -0.465652
   2 H :    0.307901
   3 H :    0.102818
   4 H :    0.106346
   5 H :    0.120549
Sum of atomic charges:    0.0000000

LOEWDIN ATOMIC CHARGES
----------------------
   0 C :   -0.368576
   1 O :   -0.076061
   2 H :    0.151100
   3 H :    0.101758
   4 H :    0.087848
   5 H :    0.103931

  Mayer bond orders larger than 0.1
B(  0-C ,  1-O ) :   0.9936 B(  0-C ,  3-H ) :   0.9816 B(  0-C ,  4-H ) :   0.9808
B(  0-C ,  5-H ) :   0.9736 B(  1-O ,  2-H ) :   0.9093

Dispersion correction           -0.000223583
FINAL SINGLE POINT ENERGY      -115.729613692575

DIPOLE MOMENT
-------------
                                X             Y             Z
Electronic contribution:      0.01746      -0.11046      -1.83921
Nuclear contribution   :      0.46075      -0.00409       2.37030
                        -----------------------------------------
Total Dipole Moment    :      0.47821      -0.11456       0.53108
                        -----------------------------------------
Magnitude (a.u.)       :      0.72378
Magnitude (Debye)      :      1.83971

Rotational constants in cm-1:     4.420994     0.827922     0.788406
Rotational constants in MHz : 132538.057792 24820.489018 23635.829766

                             ****ORCA TERMINATED NORMALLY****
TOTAL RUN TIME: 0 days 0 hours 0 minutes 43 seconds 170 msec
