                         Program Version 4.1.2  - RELEASE  -
|  1> #Run DFT-D3 single point of the dimer
|  2> ! wB97X-D3 def2-TZVP TIGHTSCF CHELPG PMODEL PAL8
|  3>
|  4> %base "18-193_DFT_AB"
|  5>
|  6> %scf
|  7> MaxIter 1000
|  8> end
|  9>
| 10> * xyz 0 1
| 11>   C                      -3.298790            -3.261726            -5.806009
| 12>   O                      -2.323678            -3.800694            -6.630534
| 13>   H                      -2.343861            -3.387255            -7.476994
| 14>   H                      -2.987311            -2.325919            -5.315744
| 15>   H                      -4.237736            -3.025110            -6.254356
| 16>   H                      -3.616633            -3.976953            -5.027807
| 17>   C                      -0.754769            -1.422631            -9.306047
| 18>   O                      -1.310124            -2.712683            -9.086233
| 19>   H                      -1.951903            -2.836514            -9.786444
| 20>   H                      -0.309444            -0.936969            -8.370109
| 21>   H                      0.081290             -1.454435            -10.056730
| 22>   H                      -1.496361            -0.747542            -9.587582
| 23> *
| 24>
| 25> #Run DFT-D3 single point of the molecule with dimer basis set
| 26> $new_job
| 27> %base "18-193_DFT_A"
| 28> ! wB97X-D3 def2-TZVP TIGHTSCF CHELPG PMODEL
| 29>
| 30> %scf
| 31> MaxIter 1000
| 32> end
| 33>
| 34> * xyz 0 1
| 35>   C                      -3.298790            -3.261726            -5.806009
| 36>   O                      -2.323678            -3.800694            -6.630534
| 37>   H                      -2.343861            -3.387255            -7.476994
| 38>   H                      -2.987311            -2.325919            -5.315744
| 39>   H                      -4.237736            -3.025110            -6.254356
| 40>   H                      -3.616633            -3.976953            -5.027807
| 41>   C                    : -0.754769            -1.422631            -9.306047
| 42>   O                    : -1.310124            -2.712683            -9.086233
| 43>   H                    : -1.951903            -2.836514            -9.786444
| 44>   H                    : -0.309444            -0.936969            -8.370109
| 45>   H                    : 0.081290             -1.454435            -10.056730
| 46>   H                    : -1.496361            -0.747542            -9.587582
| 47> *
| 48>
| 49> #Run DFT-D3 single point of the particle with dimer basis set
| 50> $new_job
| 51> %base "18-193_DFT_B"
| 52> ! wB97X-D3 def2-TZVP TIGHTSCF CHELPG PMODEL
| 53>
| 54> %scf
| 55> MaxIter 1000
| 56> end
| 57>
| 58> * xyz 0 1
| 59>   C                    : -3.298790            -3.261726            -5.806009
| 60>   O                    : -2.323678            -3.800694            -6.630534
| 61>   H                    : -2.343861            -3.387255            -7.476994
| 62>   H                    : -2.987311            -2.325919            -5.315744
| 63>   H                    : -4.237736            -3.025110            -6.254356
| 64>   H                    : -3.616633            -3.976953            -5.027807
| 65>   C                      -0.754769            -1.422631            -9.306047
| 66>   O                      -1.310124            -2.712683            -9.086233
| 67>   H                      -1.951903            -2.836514            -9.786444
| 68>   H                      -0.309444            -0.936969            -8.370109
| 69>   H                      0.081290             -1.454435            -10.056730
| 70>   H                      -1.496361            -0.747542            -9.587582
| 71> *
| 72>
| 73>                          ****END OF INPUT****
 Total Charge           Charge          ....    0
 Multiplicity           Mult            ....    1
 Number of Electrons    NEL             ....   36
Dispersion correction           -0.001501599
FINAL SINGLE POINT ENERGY      -231.470295877461
Dispersion correction           -0.000249632
FINAL SINGLE POINT ENERGY      -115.733973331340

CARTESIAN COORDINATES (ANGSTROEM)
---------------------------------
  C     -3.298790   -3.261726   -5.806009
  O     -2.323678   -3.800694   -6.630534
  H     -2.343861   -3.387255   -7.476994
  H     -2.987311   -2.325919   -5.315744
  H     -4.237736   -3.025110   -6.254356
  H     -3.616633   -3.976953   -5.027807
  C     -0.754769   -1.422631   -9.306047
  O     -1.310124   -2.712683   -9.086233
  H     -1.951903   -2.836514   -9.786444
  H     -0.309444   -0.936969   -8.370109
  H      0.081290   -1.454435  -10.056730
  H     -1.496361   -0.747542   -9.587582

 Multiplicity           Mult            ....    1
 Number of Electrons    NEL             ....   18
 Basis Dimension        Dim             ....  172

ORBITAL ENERGIES
----------------

  NO   OCC          E(Eh)            E(eV)
   0   2.0000     -19.233263      -523.3637
   1   2.0000     -10.317318      -280.7485
   2   2.0000      -1.137720       -30.9589
   3   2.0000      -0.794407       -21.6169
   4   2.0000      -0.612002       -16.6534
   5   2.0000      -0.543781       -14.7970
   6   2.0000      -0.524093       -14.2613
   7   2.0000      -0.432793       -11.7769
   8   2.0000      -0.376538       -10.2461
   9   0.0000       0.095185         2.5901
  10   0.0000       0.121753         3.3131
  11   0.0000       0.148763         4.0481
  12   0.0000       0.189032         5.1438
  13   0.0000       0.201102         5.4723

MULLIKEN ATOMIC CHARGES
-----------------------
   0 C :    0.001261
   1 O :    0.003441
   2 H :   -0.019340
   3 H :   -0.000055
   4 H :   -0.000246
   5 H :   -0.000168
   6 C :   -0.172292
   7 O :   -0.460010
   8 H :    0.316652
   9 H :    0.114431
  10 H :    0.100700
  11 H :    0.115627
Sum of atomic charges:    0.0000000

LOEWDIN ATOMIC CHARGES
----------------------
   0 C :   -0.001284
   1 O :   -0.006400
   2 H :   -0.038172
   3 H :   -0.000038
   4 H :   -0.000084
   5 H :   -0.000040
   6 C :   -0.384592
   7 O :   -0.042428
   8 H :    0.170808
   9 H :    0.116740
  10 H :    0.101339
  11 H :    0.084151

  Mayer bond orders larger than 0.1
B(  6-C ,  7-O ) :   0.9899 B(  6-C ,  9-H ) :   0.9752 B(  6-C , 10-H ) :   0.9707
B(  6-C , 11-H ) :   0.9797 B(  7-O ,  8-H ) :   0.8975

Dispersion correction           -0.000247902
FINAL SINGLE POINT ENERGY      -115.731375563203

DIPOLE MOMENT
-------------
                                X             Y             Z
Electronic contribution:     -0.70922      -1.71526       0.35268
Nuclear contribution   :      0.49770       2.17417      -0.88293
                        -----------------------------------------
Total Dipole Moment    :     -0.21152       0.45891      -0.53025
                        -----------------------------------------
Magnitude (a.u.)       :      0.73246
Magnitude (Debye)      :      1.86176

Rotational constants in cm-1:     4.297112     0.815090     0.792929
Rotational constants in MHz : 128824.186725 24435.776324 23771.426682

                             ****ORCA TERMINATED NORMALLY****
TOTAL RUN TIME: 0 days 0 hours 1 minutes 4 seconds 634 msec
