                         Program Version 4.1.2  - RELEASE  -
|  1> #Run DFT-D3 single point of the dimer
|  2> ! wB97X-D3 def2-TZVP TIGHTSCF CHELPG PMODEL PAL8
|  3>
|  4> %base "14-63_DFT_AB"
|  5>
|  6> %scf
|  7> MaxIter 1000
|  8> end
|  9>
| 10> * xyz 0 1
| 11>   C                      -0.584460            9.833385             -7.370606
| 12>   O                      0.262817             9.973202             -6.259486
| 13>   H                      -0.083268            10.436978            -5.479950
| 14>   H                      -1.227082            10.668618            -7.422794
| 15>   H                      0.023229             9.743565             -8.282138
| 16>   H                      -1.232432            8.935795             -7.342917
| 17>   C                      3.447000             11.325444            -7.464187
| 18>   O                      4.667945             11.339857            -8.145046
| 19>   H                      4.958023             10.445464            -8.080650
| 20>   H                      2.953880             10.359799            -7.670713
| 21>   H                      3.497918             11.321321            -6.360221
| 22>   H                      2.742022             12.057489            -7.841956
| 23> *
| 24>
| 25> #Run DFT-D3 single point of the molecule with dimer basis set
| 26> $new_job
| 27> %base "14-63_DFT_A"
| 28> ! wB97X-D3 def2-TZVP TIGHTSCF CHELPG PMODEL
| 29>
| 30> %scf
| 31> MaxIter 1000
| 32> end
| 33>
| 34> * xyz 0 1
| 35>   C                      -0.584460            9.833385             -7.370606
| 36>   O                      0.262817             9.973202             -6.259486
| 37>   H                      -0.083268            10.436978            -5.479950
| 38>   H                      -1.227082            10.668618            -7.422794
| 39>   H                      0.023229             9.743565             -8.282138
| 40>   H                      -1.232432            8.935795             -7.342917
| 41>   C                    : 3.447000             11.325444            -7.464187
| 42>   O                    : 4.667945             11.339857            -8.145046
| 43>   H                    : 4.958023             10.445464            -8.080650
| 44>   H                    : 2.953880             10.359799            -7.670713
| 45>   H                    : 3.497918             11.321321            -6.360221
| 46>   H                    : 2.742022             12.057489            -7.841956
| 47> *
| 48>
| 49> #Run DFT-D3 single point of the particle with dimer basis set
| 50> $new_job
| 51> %base "14-63_DFT_B"
| 52> ! wB97X-D3 def2-TZVP TIGHTSCF CHELPG PMODEL
| 53>
| 54> %scf
| 55> MaxIter 1000
| 56> end
| 57>
| 58> * xyz 0 1
| 59>   C                    : -0.584460            9.833385             -7.370606
| 60>   O                    : 0.262817             9.973202             -6.259486
| 61>   H                    : -0.083268            10.436978            -5.479950
| 62>   H                    : -1.227082            10.668618            -7.422794
| 63>   H                    : 0.023229             9.743565             -8.282138
| 64>   H                    : -1.232432            8.935795             -7.342917
| 65>   C                      3.447000             11.325444            -7.464187
| 66>   O                      4.667945             11.339857            -8.145046
| 67>   H                      4.958023             10.445464            -8.080650
| 68>   H                      2.953880             10.359799            -7.670713
| 69>   H                      3.497918             11.321321            -6.360221
| 70>   H                      2.742022             12.057489            -7.841956
| 71> *
| 72>
| 73>                          ****END OF INPUT****
 Total Charge           Charge          ....    0
 Multiplicity           Mult            ....    1
 Number of Electrons    NEL             ....   36
Dispersion correction           -0.001476166
FINAL SINGLE POINT ENERGY      -231.466474643918
Dispersion correction           -0.000256089
FINAL SINGLE POINT ENERGY      -115.732793719798

CARTESIAN COORDINATES (ANGSTROEM)
---------------------------------
  C     -0.584460    9.833385   -7.370606
  O      0.262817    9.973202   -6.259486
  H     -0.083268   10.436978   -5.479950
  H     -1.227082   10.668618   -7.422794
  H      0.023229    9.743565   -8.282138
  H     -1.232432    8.935795   -7.342917
  C      3.447000   11.325444   -7.464187
  O      4.667945   11.339857   -8.145046
  H      4.958023   10.445464   -8.080650
  H      2.953880   10.359799   -7.670713
  H      3.497918   11.321321   -6.360221
  H      2.742022   12.057489   -7.841956

 Multiplicity           Mult            ....    1
 Number of Electrons    NEL             ....   18
 Basis Dimension        Dim             ....  172

ORBITAL ENERGIES
----------------

  NO   OCC          E(Eh)            E(eV)
   0   2.0000     -19.232175      -523.3341
   1   2.0000     -10.313785      -280.6523
   2   2.0000      -1.149965       -31.2921
   3   2.0000      -0.794540       -21.6205
   4   2.0000      -0.619412       -16.8551
   5   2.0000      -0.543333       -14.7848
   6   2.0000      -0.530145       -14.4260
   7   2.0000      -0.436664       -11.8822
   8   2.0000      -0.374591       -10.1931
   9   0.0000       0.079829         2.1723
  10   0.0000       0.115217         3.1352
  11   0.0000       0.148141         4.0311
  12   0.0000       0.163512         4.4494
  13   0.0000       0.184110         5.0099

MULLIKEN ATOMIC CHARGES
-----------------------
   0 C :   -0.000498
   1 O :    0.000064
   2 H :   -0.000035
   3 H :    0.000027
   4 H :   -0.000659
   5 H :   -0.000031
   6 C :   -0.179139
   7 O :   -0.456704
   8 H :    0.316055
   9 H :    0.097021
  10 H :    0.099522
  11 H :    0.124377
Sum of atomic charges:    0.0000000

LOEWDIN ATOMIC CHARGES
----------------------
   0 C :   -0.001473
   1 O :   -0.001046
   2 H :   -0.000085
   3 H :   -0.000020
   4 H :   -0.000959
   5 H :   -0.000014
   6 C :   -0.404827
   7 O :   -0.053781
   8 H :    0.163762
   9 H :    0.097321
  10 H :    0.095488
  11 H :    0.105636

  Mayer bond orders larger than 0.1
B(  6-C ,  7-O ) :   1.0082 B(  6-C ,  9-H ) :   0.9937 B(  6-C , 10-H ) :   0.9628
B(  6-C , 11-H ) :   0.9727 B(  7-O ,  8-H ) :   0.9040

Dispersion correction           -0.000226841
FINAL SINGLE POINT ENERGY      -115.731734349891

DIPOLE MOMENT
-------------
                                X             Y             Z
Electronic contribution:      1.69214       0.35121      -0.92026
Nuclear contribution   :     -1.98051      -0.94303       1.19140
                        -----------------------------------------
Total Dipole Moment    :     -0.28837      -0.59182       0.27114
                        -----------------------------------------
Magnitude (a.u.)       :      0.71199
Magnitude (Debye)      :      1.80973

Rotational constants in cm-1:     4.341793     0.847149     0.815700
Rotational constants in MHz : 130163.677047 25396.885481 24454.070569

                             ****ORCA TERMINATED NORMALLY****
TOTAL RUN TIME: 0 days 0 hours 0 minutes 55 seconds 512 msec
