                         Program Version 4.1.2  - RELEASE  -
|  1> #Run DFT-D3 single point of the dimer
|  2> ! wB97X-D3 def2-TZVP TIGHTSCF CHELPG PMODEL PAL8
|  3>
|  4> %base "1-134_DFT_AB"
|  5>
|  6> %scf
|  7> MaxIter 1000
|  8> end
|  9>
| 10> * xyz 0 1
| 11>   C                      -5.907909            -7.270383            -9.411896
| 12>   O                      -6.939199            -7.776413            -10.164808
| 13>   H                      -6.849810            -8.745502            -10.180810
| 14>   H                      -5.949273            -7.445977            -8.375448
| 15>   H                      -4.982129            -7.743169            -9.713157
| 16>   H                      -5.813734            -6.172566            -9.550983
| 17>   C                      -7.665506            -6.396937            -7.930349
| 18>   O                      -8.961169            -5.979547            -7.596647
| 19>   H                      -9.583311            -6.603687            -7.974383
| 20>   H                      -7.340900            -6.289345            -8.998492
| 21>   H                      -6.951267            -5.729065            -7.459180
| 22>   H                      -7.461937            -7.477222            -7.675546
| 23> *
| 24>
| 25> #Run DFT-D3 single point of the molecule with dimer basis set
| 26> $new_job
| 27> %base "1-134_DFT_A"
| 28> ! wB97X-D3 def2-TZVP TIGHTSCF CHELPG PMODEL
| 29>
| 30> %scf
| 31> MaxIter 1000
| 32> end
| 33>
| 34> * xyz 0 1
| 35>   C                      -5.907909            -7.270383            -9.411896
| 36>   O                      -6.939199            -7.776413            -10.164808
| 37>   H                      -6.849810            -8.745502            -10.180810
| 38>   H                      -5.949273            -7.445977            -8.375448
| 39>   H                      -4.982129            -7.743169            -9.713157
| 40>   H                      -5.813734            -6.172566            -9.550983
| 41>   C                    : -7.665506            -6.396937            -7.930349
| 42>   O                    : -8.961169            -5.979547            -7.596647
| 43>   H                    : -9.583311            -6.603687            -7.974383
| 44>   H                    : -7.340900            -6.289345            -8.998492
| 45>   H                    : -6.951267            -5.729065            -7.459180
| 46>   H                    : -7.461937            -7.477222            -7.675546
| 47> *
| 48>
| 49> #Run DFT-D3 single point of the particle with dimer basis set
| 50> $new_job
| 51> %base "1-134_DFT_B"
| 52> ! wB97X-D3 def2-TZVP TIGHTSCF CHELPG PMODEL
| 53>
| 54> %scf
| 55> MaxIter 1000
| 56> end
| 57>
| 58> * xyz 0 1
| 59>   C                    : -5.907909            -7.270383            -9.411896
| 60>   O                    : -6.939199            -7.776413            -10.164808
| 61>   H                    : -6.849810            -8.745502            -10.180810
| 62>   H                    : -5.949273            -7.445977            -8.375448
| 63>   H                    : -4.982129            -7.743169            -9.713157
| 64>   H                    : -5.813734            -6.172566            -9.550983
| 65>   C                      -7.665506            -6.396937            -7.930349
| 66>   O                      -8.961169            -5.979547            -7.596647
| 67>   H                      -9.583311            -6.603687            -7.974383
| 68>   H                      -7.340900            -6.289345            -8.998492
| 69>   H                      -6.951267            -5.729065            -7.459180
| 70>   H                      -7.461937            -7.477222            -7.675546
| 71> *
| 72>
| 73>                          ****END OF INPUT****
 Total Charge           Charge          ....    0
 Multiplicity           Mult            ....    1
 Number of Electrons    NEL             ....   36
Dispersion correction           -0.002008021
FINAL SINGLE POINT ENERGY      -231.426894032017
Dispersion correction           -0.000219184
FINAL SINGLE POINT ENERGY      -115.733126625881

CARTESIAN COORDINATES (ANGSTROEM)
---------------------------------
  C     -5.907909   -7.270383   -9.411896
  O     -6.939199   -7.776413  -10.164808
  H     -6.849810   -8.745502  -10.180810
  H     -5.949273   -7.445977   -8.375448
  H     -4.982129   -7.743169   -9.713157
  H     -5.813734   -6.172566   -9.550983
  C     -7.665506   -6.396937   -7.930349
  O     -8.961169   -5.979547   -7.596647
  H     -9.583311   -6.603687   -7.974383
  H     -7.340900   -6.289345   -8.998492
  H     -6.951267   -5.729065   -7.459180
  H     -7.461937   -7.477222   -7.675546

 Multiplicity           Mult            ....    1
 Number of Electrons    NEL             ....   18
 Basis Dimension        Dim             ....  172

ORBITAL ENERGIES
----------------

  NO   OCC          E(Eh)            E(eV)
   0   2.0000     -19.236230      -523.4444
   1   2.0000     -10.317640      -280.7573
   2   2.0000      -1.143281       -31.1103
   3   2.0000      -0.794248       -21.6126
   4   2.0000      -0.616489       -16.7755
   5   2.0000      -0.541264       -14.7285
   6   2.0000      -0.521850       -14.2003
   7   2.0000      -0.436369       -11.8742
   8   2.0000      -0.373567       -10.1653
   9   0.0000       0.088514         2.4086
  10   0.0000       0.115905         3.1539
  11   0.0000       0.159792         4.3482
  12   0.0000       0.179475         4.8838
  13   0.0000       0.185724         5.0538

MULLIKEN ATOMIC CHARGES
-----------------------
   0 C :   -0.022210
   1 O :    0.001545
   2 H :   -0.000161
   3 H :   -0.005258
   4 H :   -0.002678
   5 H :    0.001436
   6 C :   -0.150406
   7 O :   -0.458868
   8 H :    0.315103
   9 H :    0.107368
  10 H :    0.120534
  11 H :    0.093593
Sum of atomic charges:    0.0000000

LOEWDIN ATOMIC CHARGES
----------------------
   0 C :   -0.124349
   1 O :   -0.027796
   2 H :   -0.001833
   3 H :   -0.030124
   4 H :   -0.001314
   5 H :   -0.018636
   6 C :   -0.330284
   7 O :   -0.052749
   8 H :    0.170530
   9 H :    0.172074
  10 H :    0.116682
  11 H :    0.127800

  Mayer bond orders larger than 0.1
B(  6-C ,  7-O ) :   1.0181 B(  6-C ,  9-H ) :   0.9521 B(  6-C , 10-H ) :   0.9686
B(  6-C , 11-H ) :   0.9711 B(  7-O ,  8-H ) :   0.8986

Dispersion correction           -0.000263736
FINAL SINGLE POINT ENERGY      -115.733940798397

DIPOLE MOMENT
-------------
                                X             Y             Z
Electronic contribution:     -1.77918       0.67415       0.58106
Nuclear contribution   :      1.86460      -1.19832      -0.93937
                        -----------------------------------------
Total Dipole Moment    :      0.08542      -0.52416      -0.35831
                        -----------------------------------------
Magnitude (a.u.)       :      0.64065
Magnitude (Debye)      :      1.62839

Rotational constants in cm-1:     4.317184     0.831108     0.797510
Rotational constants in MHz : 129425.929254 24915.992696 23908.758692

                             ****ORCA TERMINATED NORMALLY****
TOTAL RUN TIME: 0 days 0 hours 5 minutes 51 seconds 478 msec
