                         Program Version 4.1.2  - RELEASE  -
|  1> #Run DFT-D3 single point of the dimer
|  2> ! wB97X-D3 def2-TZVP TIGHTSCF CHELPG PMODEL PAL8
|  3>
|  4> %base "9-191_DFT_AB"
|  5>
|  6> %scf
|  7> MaxIter 1000
|  8> end
|  9>
| 10> * xyz 0 1
| 11>   C                      -5.822313            0.855547             3.318697
| 12>   O                      -5.400111            0.443276             4.555475
| 13>   H                      -6.043504            -0.212960            4.935816
| 14>   H                      -5.987072            0.054597             2.640367
| 15>   H                      -6.826729            1.497216             3.257010
| 16>   H                      -5.089060            1.332691             2.752819
| 17>   C                      -6.947420            -2.638629            6.020418
| 18>   O                      -5.855976            -2.041525            5.479451
| 19>   H                      -5.253015            -2.692802            5.068501
| 20>   H                      -6.845005            -3.713180            5.835701
| 21>   H                      -7.038232            -2.528567            7.063693
| 22>   H                      -7.817227            -2.309417            5.550734
| 23> *
| 24>
| 25> #Run DFT-D3 single point of the molecule with dimer basis set
| 26> $new_job
| 27> %base "9-191_DFT_A"
| 28> ! wB97X-D3 def2-TZVP TIGHTSCF CHELPG PMODEL
| 29>
| 30> %scf
| 31> MaxIter 1000
| 32> end
| 33>
| 34> * xyz 0 1
| 35>   C                      -5.822313            0.855547             3.318697
| 36>   O                      -5.400111            0.443276             4.555475
| 37>   H                      -6.043504            -0.212960            4.935816
| 38>   H                      -5.987072            0.054597             2.640367
| 39>   H                      -6.826729            1.497216             3.257010
| 40>   H                      -5.089060            1.332691             2.752819
| 41>   C                    : -6.947420            -2.638629            6.020418
| 42>   O                    : -5.855976            -2.041525            5.479451
| 43>   H                    : -5.253015            -2.692802            5.068501
| 44>   H                    : -6.845005            -3.713180            5.835701
| 45>   H                    : -7.038232            -2.528567            7.063693
| 46>   H                    : -7.817227            -2.309417            5.550734
| 47> *
| 48>
| 49> #Run DFT-D3 single point of the particle with dimer basis set
| 50> $new_job
| 51> %base "9-191_DFT_B"
| 52> ! wB97X-D3 def2-TZVP TIGHTSCF CHELPG PMODEL
| 53>
| 54> %scf
| 55> MaxIter 1000
| 56> end
| 57>
| 58> * xyz 0 1
| 59>   C                    : -5.822313            0.855547             3.318697
| 60>   O                    : -5.400111            0.443276             4.555475
| 61>   H                    : -6.043504            -0.212960            4.935816
| 62>   H                    : -5.987072            0.054597             2.640367
| 63>   H                    : -6.826729            1.497216             3.257010
| 64>   H                    : -5.089060            1.332691             2.752819
| 65>   C                      -6.947420            -2.638629            6.020418
| 66>   O                      -5.855976            -2.041525            5.479451
| 67>   H                      -5.253015            -2.692802            5.068501
| 68>   H                      -6.845005            -3.713180            5.835701
| 69>   H                      -7.038232            -2.528567            7.063693
| 70>   H                      -7.817227            -2.309417            5.550734
| 71> *
| 72>
| 73>                          ****END OF INPUT****
 Total Charge           Charge          ....    0
 Multiplicity           Mult            ....    1
 Number of Electrons    NEL             ....   36
Dispersion correction           -0.001634767
FINAL SINGLE POINT ENERGY      -231.455679503806
Dispersion correction           -0.000261775
FINAL SINGLE POINT ENERGY      -115.723381634541

CARTESIAN COORDINATES (ANGSTROEM)
---------------------------------
  C     -5.822313    0.855547    3.318697
  O     -5.400111    0.443276    4.555475
  H     -6.043504   -0.212960    4.935816
  H     -5.987072    0.054597    2.640367
  H     -6.826729    1.497216    3.257010
  H     -5.089060    1.332691    2.752819
  C     -6.947420   -2.638629    6.020418
  O     -5.855976   -2.041525    5.479451
  H     -5.253015   -2.692802    5.068501
  H     -6.845005   -3.713180    5.835701
  H     -7.038232   -2.528567    7.063693
  H     -7.817227   -2.309417    5.550734

 Multiplicity           Mult            ....    1
 Number of Electrons    NEL             ....   18
 Basis Dimension        Dim             ....  172

ORBITAL ENERGIES
----------------

  NO   OCC          E(Eh)            E(eV)
   0   2.0000     -19.227322      -523.2020
   1   2.0000     -10.297521      -280.2098
   2   2.0000      -1.148843       -31.2616
   3   2.0000      -0.799289       -21.7498
   4   2.0000      -0.621116       -16.9014
   5   2.0000      -0.555984       -15.1291
   6   2.0000      -0.542235       -14.7550
   7   2.0000      -0.418359       -11.3841
   8   2.0000      -0.371998       -10.1226
   9   0.0000       0.095568         2.6005
  10   0.0000       0.118525         3.2252
  11   0.0000       0.158354         4.3090
  12   0.0000       0.191868         5.2210
  13   0.0000       0.204506         5.5649

MULLIKEN ATOMIC CHARGES
-----------------------
   0 C :   -0.001676
   1 O :    0.005788
   2 H :   -0.011960
   3 H :   -0.001412
   4 H :   -0.000144
   5 H :   -0.000082
   6 C :   -0.135535
   7 O :   -0.478223
   8 H :    0.324016
   9 H :    0.089210
  10 H :    0.103708
  11 H :    0.106310
Sum of atomic charges:    0.0000000

LOEWDIN ATOMIC CHARGES
----------------------
   0 C :   -0.003186
   1 O :   -0.012579
   2 H :   -0.041612
   3 H :   -0.000790
   4 H :   -0.000031
   5 H :   -0.000045
   6 C :   -0.409918
   7 O :    0.001501
   8 H :    0.185932
   9 H :    0.100457
  10 H :    0.090507
  11 H :    0.089764

  Mayer bond orders larger than 0.1
B(  6-C ,  7-O ) :   1.0022 B(  6-C ,  9-H ) :   0.9935 B(  6-C , 10-H ) :   0.9741
B(  6-C , 11-H ) :   0.9822 B(  7-O ,  8-H ) :   0.8902

Dispersion correction           -0.000214957
FINAL SINGLE POINT ENERGY      -115.728358546528

DIPOLE MOMENT
-------------
                                X             Y             Z
Electronic contribution:      1.33448       1.00450      -0.61275
Nuclear contribution   :     -1.35164      -1.67953       0.54814
                        -----------------------------------------
Total Dipole Moment    :     -0.01717      -0.67503      -0.06460
                        -----------------------------------------
Magnitude (a.u.)       :      0.67833
Magnitude (Debye)      :      1.72417

Rotational constants in cm-1:     4.513284     0.893794     0.858537
Rotational constants in MHz : 135304.858990 26795.284461 25738.300734

                             ****ORCA TERMINATED NORMALLY****
TOTAL RUN TIME: 0 days 0 hours 0 minutes 46 seconds 260 msec
