                         Program Version 4.1.2  - RELEASE  -
|  1> #Run DFT-D3 single point of the dimer
|  2> ! wB97X-D3 def2-TZVP TIGHTSCF CHELPG PMODEL PAL8
|  3>
|  4> %base "10-39_DFT_AB"
|  5>
|  6> %scf
|  7> MaxIter 1000
|  8> end
|  9>
| 10> * xyz 0 1
| 11>   C                      2.311494             -9.830904            -8.216563
| 12>   O                      3.558891             -10.484770           -8.480704
| 13>   H                      3.941405             -10.762820           -7.664795
| 14>   H                      2.383091             -9.009173            -7.449427
| 15>   H                      1.831679             -9.423599            -9.122781
| 16>   H                      1.578314             -10.570983           -7.892508
| 17>   C                      1.237218             -10.571253           -4.731252
| 18>   O                      2.090663             -11.620678           -4.301068
| 19>   H                      1.684505             -12.049990           -3.539937
| 20>   H                      1.738121             -9.896252            -5.432714
| 21>   H                      0.298399             -10.936982           -5.241484
| 22>   H                      0.890046             -9.963813            -3.901905
| 23> *
| 24>
| 25> #Run DFT-D3 single point of the molecule with dimer basis set
| 26> $new_job
| 27> %base "10-39_DFT_A"
| 28> ! wB97X-D3 def2-TZVP TIGHTSCF CHELPG PMODEL
| 29>
| 30> %scf
| 31> MaxIter 1000
| 32> end
| 33>
| 34> * xyz 0 1
| 35>   C                      2.311494             -9.830904            -8.216563
| 36>   O                      3.558891             -10.484770           -8.480704
| 37>   H                      3.941405             -10.762820           -7.664795
| 38>   H                      2.383091             -9.009173            -7.449427
| 39>   H                      1.831679             -9.423599            -9.122781
| 40>   H                      1.578314             -10.570983           -7.892508
| 41>   C                    : 1.237218             -10.571253           -4.731252
| 42>   O                    : 2.090663             -11.620678           -4.301068
| 43>   H                    : 1.684505             -12.049990           -3.539937
| 44>   H                    : 1.738121             -9.896252            -5.432714
| 45>   H                    : 0.298399             -10.936982           -5.241484
| 46>   H                    : 0.890046             -9.963813            -3.901905
| 47> *
| 48>
| 49> #Run DFT-D3 single point of the particle with dimer basis set
| 50> $new_job
| 51> %base "10-39_DFT_B"
| 52> ! wB97X-D3 def2-TZVP TIGHTSCF CHELPG PMODEL
| 53>
| 54> %scf
| 55> MaxIter 1000
| 56> end
| 57>
| 58> * xyz 0 1
| 59>   C                    : 2.311494             -9.830904            -8.216563
| 60>   O                    : 3.558891             -10.484770           -8.480704
| 61>   H                    : 3.941405             -10.762820           -7.664795
| 62>   H                    : 2.383091             -9.009173            -7.449427
| 63>   H                    : 1.831679             -9.423599            -9.122781
| 64>   H                    : 1.578314             -10.570983           -7.892508
| 65>   C                      1.237218             -10.571253           -4.731252
| 66>   O                      2.090663             -11.620678           -4.301068
| 67>   H                      1.684505             -12.049990           -3.539937
| 68>   H                      1.738121             -9.896252            -5.432714
| 69>   H                      0.298399             -10.936982           -5.241484
| 70>   H                      0.890046             -9.963813            -3.901905
| 71> *
| 72>
| 73>                          ****END OF INPUT****
 Total Charge           Charge          ....    0
 Multiplicity           Mult            ....    1
 Number of Electrons    NEL             ....   36
Dispersion correction           -0.001700840
FINAL SINGLE POINT ENERGY      -231.470638293084
Dispersion correction           -0.000260748
FINAL SINGLE POINT ENERGY      -115.733858804036

CARTESIAN COORDINATES (ANGSTROEM)
---------------------------------
  C      2.311494   -9.830904   -8.216563
  O      3.558891  -10.484770   -8.480704
  H      3.941405  -10.762820   -7.664795
  H      2.383091   -9.009173   -7.449427
  H      1.831679   -9.423599   -9.122781
  H      1.578314  -10.570983   -7.892508
  C      1.237218  -10.571253   -4.731252
  O      2.090663  -11.620678   -4.301068
  H      1.684505  -12.049990   -3.539937
  H      1.738121   -9.896252   -5.432714
  H      0.298399  -10.936982   -5.241484
  H      0.890046   -9.963813   -3.901905

 Multiplicity           Mult            ....    1
 Number of Electrons    NEL             ....   18
 Basis Dimension        Dim             ....  172

ORBITAL ENERGIES
----------------

  NO   OCC          E(Eh)            E(eV)
   0   2.0000     -19.232550      -523.3443
   1   2.0000     -10.316887      -280.7368
   2   2.0000      -1.134572       -30.8733
   3   2.0000      -0.794672       -21.6241
   4   2.0000      -0.611693       -16.6450
   5   2.0000      -0.533719       -14.5232
   6   2.0000      -0.529323       -14.4036
   7   2.0000      -0.435358       -11.8467
   8   2.0000      -0.373334       -10.1589
   9   0.0000       0.090713         2.4684
  10   0.0000       0.118310         3.2194
  11   0.0000       0.152512         4.1501
  12   0.0000       0.172585         4.6963
  13   0.0000       0.187203         5.0940

MULLIKEN ATOMIC CHARGES
-----------------------
   0 C :    0.001943
   1 O :   -0.000197
   2 H :   -0.000183
   3 H :   -0.000867
   4 H :    0.000215
   5 H :   -0.000109
   6 C :   -0.170772
   7 O :   -0.472665
   8 H :    0.316314
   9 H :    0.122260
  10 H :    0.094133
  11 H :    0.109927
Sum of atomic charges:   -0.0000000

LOEWDIN ATOMIC CHARGES
----------------------
   0 C :   -0.007502
   1 O :   -0.000016
   2 H :   -0.000182
   3 H :   -0.004252
   4 H :   -0.000033
   5 H :   -0.002256
   6 C :   -0.382807
   7 O :   -0.080179
   8 H :    0.171446
   9 H :    0.113137
  10 H :    0.099980
  11 H :    0.092663

  Mayer bond orders larger than 0.1
B(  6-C ,  7-O ) :   1.0084 B(  6-C ,  9-H ) :   0.9732 B(  6-C , 10-H ) :   0.9734
B(  6-C , 11-H ) :   0.9766 B(  7-O ,  8-H ) :   0.8975

Dispersion correction           -0.000254987
FINAL SINGLE POINT ENERGY      -115.735714048346

DIPOLE MOMENT
-------------
                                X             Y             Z
Electronic contribution:      1.28516      -1.33700       0.46898
Nuclear contribution   :     -1.86973       1.49795      -0.13981
                        -----------------------------------------
Total Dipole Moment    :     -0.58457       0.16095       0.32917
                        -----------------------------------------
Magnitude (a.u.)       :      0.68991
Magnitude (Debye)      :      1.75362

Rotational constants in cm-1:     4.312742     0.817094     0.787912
Rotational constants in MHz : 129292.737916 24495.859909 23620.998965

                             ****ORCA TERMINATED NORMALLY****
TOTAL RUN TIME: 0 days 0 hours 1 minutes 4 seconds 188 msec
