                         Program Version 4.1.2  - RELEASE  -
|  1> #Run DFT-D3 single point of the dimer
|  2> ! wB97X-D3 def2-TZVP TIGHTSCF CHELPG PMODEL PAL8
|  3>
|  4> %base "12-121_DFT_AB"
|  5>
|  6> %scf
|  7> MaxIter 1000
|  8> end
|  9>
| 10> * xyz 0 1
| 11>   C                      5.041484             0.838788             -10.238675
| 12>   O                      5.819036             1.876236             -9.692237
| 13>   H                      5.582143             1.881685             -8.727786
| 14>   H                      4.053513             1.244202             -10.335477
| 15>   H                      5.368006             0.435696             -11.233262
| 16>   H                      4.956666             -0.013747            -9.578438
| 17>   C                      6.459684             2.625476             -5.733349
| 18>   O                      5.669296             1.772671             -6.552629
| 19>   H                      4.759688             1.963351             -6.356221
| 20>   H                      6.406761             2.293092             -4.689490
| 21>   H                      7.541756             2.639299             -5.944496
| 22>   H                      6.294017             3.691201             -5.920072
| 23> *
| 24>
| 25> #Run DFT-D3 single point of the molecule with dimer basis set
| 26> $new_job
| 27> %base "12-121_DFT_A"
| 28> ! wB97X-D3 def2-TZVP TIGHTSCF CHELPG PMODEL
| 29>
| 30> %scf
| 31> MaxIter 1000
| 32> end
| 33>
| 34> * xyz 0 1
| 35>   C                      5.041484             0.838788             -10.238675
| 36>   O                      5.819036             1.876236             -9.692237
| 37>   H                      5.582143             1.881685             -8.727786
| 38>   H                      4.053513             1.244202             -10.335477
| 39>   H                      5.368006             0.435696             -11.233262
| 40>   H                      4.956666             -0.013747            -9.578438
| 41>   C                    : 6.459684             2.625476             -5.733349
| 42>   O                    : 5.669296             1.772671             -6.552629
| 43>   H                    : 4.759688             1.963351             -6.356221
| 44>   H                    : 6.406761             2.293092             -4.689490
| 45>   H                    : 7.541756             2.639299             -5.944496
| 46>   H                    : 6.294017             3.691201             -5.920072
| 47> *
| 48>
| 49> #Run DFT-D3 single point of the particle with dimer basis set
| 50> $new_job
| 51> %base "12-121_DFT_B"
| 52> ! wB97X-D3 def2-TZVP TIGHTSCF CHELPG PMODEL
| 53>
| 54> %scf
| 55> MaxIter 1000
| 56> end
| 57>
| 58> * xyz 0 1
| 59>   C                    : 5.041484             0.838788             -10.238675
| 60>   O                    : 5.819036             1.876236             -9.692237
| 61>   H                    : 5.582143             1.881685             -8.727786
| 62>   H                    : 4.053513             1.244202             -10.335477
| 63>   H                    : 5.368006             0.435696             -11.233262
| 64>   H                    : 4.956666             -0.013747            -9.578438
| 65>   C                      6.459684             2.625476             -5.733349
| 66>   O                      5.669296             1.772671             -6.552629
| 67>   H                      4.759688             1.963351             -6.356221
| 68>   H                      6.406761             2.293092             -4.689490
| 69>   H                      7.541756             2.639299             -5.944496
| 70>   H                      6.294017             3.691201             -5.920072
| 71> *
| 72>
| 73>                          ****END OF INPUT****
 Total Charge           Charge          ....    0
 Multiplicity           Mult            ....    1
 Number of Electrons    NEL             ....   36
Dispersion correction           -0.001475157
FINAL SINGLE POINT ENERGY      -231.468304459876
Dispersion correction           -0.000223153
FINAL SINGLE POINT ENERGY      -115.730724481838

CARTESIAN COORDINATES (ANGSTROEM)
---------------------------------
  C      5.041484    0.838788  -10.238675
  O      5.819036    1.876236   -9.692237
  H      5.582143    1.881685   -8.727786
  H      4.053513    1.244202  -10.335477
  H      5.368006    0.435696  -11.233262
  H      4.956666   -0.013747   -9.578438
  C      6.459684    2.625476   -5.733349
  O      5.669296    1.772671   -6.552629
  H      4.759688    1.963351   -6.356221
  H      6.406761    2.293092   -4.689490
  H      7.541756    2.639299   -5.944496
  H      6.294017    3.691201   -5.920072

 Multiplicity           Mult            ....    1
 Number of Electrons    NEL             ....   18
 Basis Dimension        Dim             ....  172

ORBITAL ENERGIES
----------------

  NO   OCC          E(Eh)            E(eV)
   0   2.0000     -19.232738      -523.3494
   1   2.0000     -10.315156      -280.6897
   2   2.0000      -1.137577       -30.9550
   3   2.0000      -0.798924       -21.7398
   4   2.0000      -0.607297       -16.5254
   5   2.0000      -0.553065       -15.0497
   6   2.0000      -0.525328       -14.2949
   7   2.0000      -0.422590       -11.4992
   8   2.0000      -0.379898       -10.3375
   9   0.0000       0.097459         2.6520
  10   0.0000       0.124695         3.3931
  11   0.0000       0.148979         4.0539
  12   0.0000       0.192269         5.2319
  13   0.0000       0.200525         5.4566

MULLIKEN ATOMIC CHARGES
-----------------------
   0 C :    0.002541
   1 O :    0.000528
   2 H :   -0.014604
   3 H :   -0.000256
   4 H :   -0.000040
   5 H :   -0.001334
   6 C :   -0.186400
   7 O :   -0.461804
   8 H :    0.318380
   9 H :    0.112296
  10 H :    0.121423
  11 H :    0.109271
Sum of atomic charges:    0.0000000

LOEWDIN ATOMIC CHARGES
----------------------
   0 C :   -0.001309
   1 O :   -0.002615
   2 H :   -0.029428
   3 H :   -0.000033
   4 H :   -0.000012
   5 H :   -0.000472
   6 C :   -0.392026
   7 O :   -0.049281
   8 H :    0.165477
   9 H :    0.100015
  10 H :    0.111667
  11 H :    0.098017

  Mayer bond orders larger than 0.1
B(  6-C ,  7-O ) :   0.9918 B(  6-C ,  9-H ) :   0.9744 B(  6-C , 10-H ) :   0.9729
B(  6-C , 11-H ) :   0.9751 B(  7-O ,  8-H ) :   0.8974

Dispersion correction           -0.000256012
FINAL SINGLE POINT ENERGY      -115.730514186190

DIPOLE MOMENT
-------------
                                X             Y             Z
Electronic contribution:     -1.01695      -1.19161      -1.09780
Nuclear contribution   :      0.78950       1.66135       1.54803
                        -----------------------------------------
Total Dipole Moment    :     -0.22745       0.46974       0.45023
                        -----------------------------------------
Magnitude (a.u.)       :      0.68927
Magnitude (Debye)      :      1.75198

Rotational constants in cm-1:     4.430392     0.804251     0.793688
Rotational constants in MHz : 132819.815343 24110.839558 23794.162293

                             ****ORCA TERMINATED NORMALLY****
TOTAL RUN TIME: 0 days 0 hours 1 minutes 12 seconds 156 msec
