                         Program Version 4.1.2  - RELEASE  -
|  1> #Run DFT-D3 single point of the dimer
|  2> ! wB97X-D3 def2-TZVP TIGHTSCF CHELPG PMODEL PAL8
|  3>
|  4> %base "20-213_DFT_AB"
|  5>
|  6> %scf
|  7> MaxIter 1000
|  8> end
|  9>
| 10> * xyz 0 1
| 11>   C                      1.972360             -3.242380            -2.291110
| 12>   O                      0.886188             -3.726054            -3.031860
| 13>   H                      0.164085             -3.641322            -2.396645
| 14>   H                      1.793747             -2.285866            -1.788684
| 15>   H                      2.331288             -3.957920            -1.507135
| 16>   H                      2.874275             -3.131901            -2.845409
| 17>   C                      0.979808             -5.107879            -6.735443
| 18>   O                      0.630532             -4.020765            -5.868321
| 19>   H                      0.928151             -4.133343            -4.936331
| 20>   H                      0.237377             -5.078983            -7.547852
| 21>   H                      1.914179             -4.983240            -7.216080
| 22>   H                      1.019916             -6.060295            -6.132887
| 23> *
| 24>
| 25> #Run DFT-D3 single point of the molecule with dimer basis set
| 26> $new_job
| 27> %base "20-213_DFT_A"
| 28> ! wB97X-D3 def2-TZVP TIGHTSCF CHELPG PMODEL
| 29>
| 30> %scf
| 31> MaxIter 1000
| 32> end
| 33>
| 34> * xyz 0 1
| 35>   C                      1.972360             -3.242380            -2.291110
| 36>   O                      0.886188             -3.726054            -3.031860
| 37>   H                      0.164085             -3.641322            -2.396645
| 38>   H                      1.793747             -2.285866            -1.788684
| 39>   H                      2.331288             -3.957920            -1.507135
| 40>   H                      2.874275             -3.131901            -2.845409
| 41>   C                    : 0.979808             -5.107879            -6.735443
| 42>   O                    : 0.630532             -4.020765            -5.868321
| 43>   H                    : 0.928151             -4.133343            -4.936331
| 44>   H                    : 0.237377             -5.078983            -7.547852
| 45>   H                    : 1.914179             -4.983240            -7.216080
| 46>   H                    : 1.019916             -6.060295            -6.132887
| 47> *
| 48>
| 49> #Run DFT-D3 single point of the particle with dimer basis set
| 50> $new_job
| 51> %base "20-213_DFT_B"
| 52> ! wB97X-D3 def2-TZVP TIGHTSCF CHELPG PMODEL
| 53>
| 54> %scf
| 55> MaxIter 1000
| 56> end
| 57>
| 58> * xyz 0 1
| 59>   C                    : 1.972360             -3.242380            -2.291110
| 60>   O                    : 0.886188             -3.726054            -3.031860
| 61>   H                    : 0.164085             -3.641322            -2.396645
| 62>   H                    : 1.793747             -2.285866            -1.788684
| 63>   H                    : 2.331288             -3.957920            -1.507135
| 64>   H                    : 2.874275             -3.131901            -2.845409
| 65>   C                      0.979808             -5.107879            -6.735443
| 66>   O                      0.630532             -4.020765            -5.868321
| 67>   H                      0.928151             -4.133343            -4.936331
| 68>   H                      0.237377             -5.078983            -7.547852
| 69>   H                      1.914179             -4.983240            -7.216080
| 70>   H                      1.019916             -6.060295            -6.132887
| 71> *
| 72>
| 73>                          ****END OF INPUT****
 Total Charge           Charge          ....    0
 Multiplicity           Mult            ....    1
 Number of Electrons    NEL             ....   36
Dispersion correction           -0.001423152
FINAL SINGLE POINT ENERGY      -231.470884039820
Dispersion correction           -0.000236821
FINAL SINGLE POINT ENERGY      -115.732522899346

CARTESIAN COORDINATES (ANGSTROEM)
---------------------------------
  C      1.972360   -3.242380   -2.291110
  O      0.886188   -3.726054   -3.031860
  H      0.164085   -3.641322   -2.396645
  H      1.793747   -2.285866   -1.788684
  H      2.331288   -3.957920   -1.507135
  H      2.874275   -3.131901   -2.845409
  C      0.979808   -5.107879   -6.735443
  O      0.630532   -4.020765   -5.868321
  H      0.928151   -4.133343   -4.936331
  H      0.237377   -5.078983   -7.547852
  H      1.914179   -4.983240   -7.216080
  H      1.019916   -6.060295   -6.132887

 Multiplicity           Mult            ....    1
 Number of Electrons    NEL             ....   18
 Basis Dimension        Dim             ....  172

ORBITAL ENERGIES
----------------

  NO   OCC          E(Eh)            E(eV)
   0   2.0000     -19.227608      -523.2098
   1   2.0000     -10.316147      -280.7166
   2   2.0000      -1.120572       -30.4923
   3   2.0000      -0.796145       -21.6642
   4   2.0000      -0.604848       -16.4587
   5   2.0000      -0.539372       -14.6771
   6   2.0000      -0.524355       -14.2684
   7   2.0000      -0.427331       -11.6283
   8   2.0000      -0.370392       -10.0789
   9   0.0000       0.071696         1.9509
  10   0.0000       0.126361         3.4385
  11   0.0000       0.151236         4.1153
  12   0.0000       0.168247         4.5782
  13   0.0000       0.195570         5.3217

MULLIKEN ATOMIC CHARGES
-----------------------
   0 C :   -0.000381
   1 O :   -0.000462
   2 H :   -0.000195
   3 H :   -0.000069
   4 H :    0.000013
   5 H :   -0.000565
   6 C :   -0.144173
   7 O :   -0.491455
   8 H :    0.311516
   9 H :    0.119012
  10 H :    0.107417
  11 H :    0.099341
Sum of atomic charges:    0.0000000

LOEWDIN ATOMIC CHARGES
----------------------
   0 C :   -0.003243
   1 O :   -0.019317
   2 H :   -0.001005
   3 H :   -0.000066
   4 H :   -0.000044
   5 H :   -0.000519
   6 C :   -0.365070
   7 O :   -0.099453
   8 H :    0.188712
   9 H :    0.110249
  10 H :    0.086128
  11 H :    0.103628

  Mayer bond orders larger than 0.1
B(  6-C ,  7-O ) :   0.9931 B(  6-C ,  9-H ) :   0.9759 B(  6-C , 10-H ) :   0.9706
B(  6-C , 11-H ) :   0.9832 B(  7-O ,  8-H ) :   0.8976

Dispersion correction           -0.000260882
FINAL SINGLE POINT ENERGY      -115.731559940781

DIPOLE MOMENT
-------------
                                X             Y             Z
Electronic contribution:     -0.45073       1.36383       0.93041
Nuclear contribution   :      0.79974      -1.88498      -0.70968
                        -----------------------------------------
Total Dipole Moment    :      0.34901      -0.52115       0.22073
                        -----------------------------------------
Magnitude (a.u.)       :      0.66493
Magnitude (Debye)      :      1.69011

Rotational constants in cm-1:     4.254428     0.816288     0.774867
Rotational constants in MHz : 127544.553321 24471.693196 23229.938271

                             ****ORCA TERMINATED NORMALLY****
TOTAL RUN TIME: 0 days 0 hours 1 minutes 4 seconds 760 msec
