                         Program Version 4.1.2  - RELEASE  -
|  1> #Run DFT-D3 single point of the dimer
|  2> ! wB97X-D3 def2-TZVP TIGHTSCF  CHELPG PAL8
|  3>
|  4> %base "154_charges"
|  5>
|  6> %scf
|  7> MaxIter 1000
|  8> end
|  9> %output
| 10>   Print[ P_Mayer ] 1
| 11>   Print[ P_NatPop ] 1
| 12>   Print[ P_Hirshfeld ] 1
| 13>   Print[ P_Mulliken ] 1
| 14>   Print [ P_Loewdin ] 1
| 15> end
| 16>
| 17> * xyz 0 1
| 18>   C                      -10.205816           -6.375469            1.365165
| 19>   O                      -10.628494           -5.082935            0.853284
| 20>   H                      -10.789218           -5.226579            -0.071007
| 21>   H                      -10.901433           -7.165144            1.118339
| 22>   H                      -9.202702            -6.719821            1.089578
| 23>   H                      -10.100374           -6.365363            2.437959
| 24> *
| 25>
| 26>                          ****END OF INPUT****

CARTESIAN COORDINATES (ANGSTROEM)
---------------------------------
  C    -10.205816   -6.375469    1.365165
  O    -10.628494   -5.082935    0.853284
  H    -10.789218   -5.226579   -0.071007
  H    -10.901433   -7.165144    1.118339
  H     -9.202702   -6.719821    1.089578
  H    -10.100374   -6.365363    2.437959

 Total Charge           Charge          ....    0
 Multiplicity           Mult            ....    1
 Number of Electrons    NEL             ....   18
 Basis Dimension        Dim             ....   86

ORBITAL ENERGIES
----------------

  NO   OCC          E(Eh)            E(eV)
   0   2.0000     -19.234145      -523.3877
   1   2.0000     -10.313832      -280.6536
   2   2.0000      -1.130298       -30.7570
   3   2.0000      -0.802381       -21.8339
   4   2.0000      -0.606531       -16.5046
   5   2.0000      -0.540755       -14.7147
   6   2.0000      -0.520539       -14.1646
   7   2.0000      -0.440769       -11.9939
   8   2.0000      -0.378749       -10.3063
   9   0.0000       0.118103         3.2137
  10   0.0000       0.148960         4.0534
  11   0.0000       0.204528         5.5655
  12   0.0000       0.207132         5.6363
  13   0.0000       0.222803         6.0628

MULLIKEN ATOMIC CHARGES
-----------------------
   0 C :   -0.181628
   1 O :   -0.468784
   2 H :    0.313017
   3 H :    0.113205
   4 H :    0.100206
   5 H :    0.123984
Sum of atomic charges:    0.0000000

LOEWDIN ATOMIC CHARGES
----------------------
   0 C :   -0.363957
   1 O :   -0.092857
   2 H :    0.160711
   3 H :    0.094542
   4 H :    0.095398
   5 H :    0.106162

  Mayer bond orders larger than 0.1
B(  0-C ,  1-O ) :   1.0068 B(  0-C ,  3-H ) :   0.9772 B(  0-C ,  4-H ) :   0.9691
B(  0-C ,  5-H ) :   0.9764 B(  1-O ,  2-H ) :   0.9043

Dispersion correction           -0.000267444
FINAL SINGLE POINT ENERGY      -115.732674807436

DIPOLE MOMENT
-------------
                                X             Y             Z
Electronic contribution:     -0.57605       1.76598      -0.58135
Nuclear contribution   :      0.64915      -2.39188       0.22932
                        -----------------------------------------
Total Dipole Moment    :      0.07311      -0.62590      -0.35204
                        -----------------------------------------
Magnitude (a.u.)       :      0.72182
Magnitude (Debye)      :      1.83472

Rotational constants in cm-1:     4.499680     0.787693     0.761837
Rotational constants in MHz : 134897.015478 23614.447094 22839.301707

                             ****ORCA TERMINATED NORMALLY****
TOTAL RUN TIME: 0 days 0 hours 0 minutes 41 seconds 83 msec
