                         Program Version 4.1.2  - RELEASE  -
|  1> #Run DFT-D3 single point of the dimer
|  2> ! wB97X-D3 def2-TZVP TIGHTSCF CHELPG PMODEL PAL8
|  3>
|  4> %base "10-57_DFT_AB"
|  5>
|  6> %scf
|  7> MaxIter 1000
|  8> end
|  9>
| 10> * xyz 0 1
| 11>   C                      -11.310636           -6.749428            -0.716338
| 12>   O                      -10.161018           -6.596171            0.174576
| 13>   H                      -10.318668           -6.843313            1.117006
| 14>   H                      -11.063202           -6.918290            -1.771602
| 15>   H                      -11.690728           -7.749996            -0.577357
| 16>   H                      -12.139721           -6.115864            -0.581882
| 17>   C                      -9.728342            -10.945972           0.598949
| 18>   O                      -9.788501            -10.579924           1.967654
| 19>   H                      -9.245930            -11.151646           2.469019
| 20>   H                      -10.703401           -11.012628           0.111094
| 21>   H                      -9.181283            -10.224568           -0.037611
| 22>   H                      -9.093684            -11.862189           0.466489
| 23> *
| 24>
| 25> #Run DFT-D3 single point of the molecule with dimer basis set
| 26> $new_job
| 27> %base "10-57_DFT_A"
| 28> ! wB97X-D3 def2-TZVP TIGHTSCF CHELPG PMODEL
| 29>
| 30> %scf
| 31> MaxIter 1000
| 32> end
| 33>
| 34> * xyz 0 1
| 35>   C                      -11.310636           -6.749428            -0.716338
| 36>   O                      -10.161018           -6.596171            0.174576
| 37>   H                      -10.318668           -6.843313            1.117006
| 38>   H                      -11.063202           -6.918290            -1.771602
| 39>   H                      -11.690728           -7.749996            -0.577357
| 40>   H                      -12.139721           -6.115864            -0.581882
| 41>   C                    : -9.728342            -10.945972           0.598949
| 42>   O                    : -9.788501            -10.579924           1.967654
| 43>   H                    : -9.245930            -11.151646           2.469019
| 44>   H                    : -10.703401           -11.012628           0.111094
| 45>   H                    : -9.181283            -10.224568           -0.037611
| 46>   H                    : -9.093684            -11.862189           0.466489
| 47> *
| 48>
| 49> #Run DFT-D3 single point of the particle with dimer basis set
| 50> $new_job
| 51> %base "10-57_DFT_B"
| 52> ! wB97X-D3 def2-TZVP TIGHTSCF CHELPG PMODEL
| 53>
| 54> %scf
| 55> MaxIter 1000
| 56> end
| 57>
| 58> * xyz 0 1
| 59>   C                    : -11.310636           -6.749428            -0.716338
| 60>   O                    : -10.161018           -6.596171            0.174576
| 61>   H                    : -10.318668           -6.843313            1.117006
| 62>   H                    : -11.063202           -6.918290            -1.771602
| 63>   H                    : -11.690728           -7.749996            -0.577357
| 64>   H                    : -12.139721           -6.115864            -0.581882
| 65>   C                      -9.728342            -10.945972           0.598949
| 66>   O                      -9.788501            -10.579924           1.967654
| 67>   H                      -9.245930            -11.151646           2.469019
| 68>   H                      -10.703401           -11.012628           0.111094
| 69>   H                      -9.181283            -10.224568           -0.037611
| 70>   H                      -9.093684            -11.862189           0.466489
| 71> *
| 72>
| 73>                          ****END OF INPUT****
 Total Charge           Charge          ....    0
 Multiplicity           Mult            ....    1
 Number of Electrons    NEL             ....   36
Dispersion correction           -0.001237139
FINAL SINGLE POINT ENERGY      -231.454294083811
Dispersion correction           -0.000286331
FINAL SINGLE POINT ENERGY      -115.721138015945

CARTESIAN COORDINATES (ANGSTROEM)
---------------------------------
  C    -11.310636   -6.749428   -0.716338
  O    -10.161018   -6.596171    0.174576
  H    -10.318668   -6.843313    1.117006
  H    -11.063202   -6.918290   -1.771602
  H    -11.690728   -7.749996   -0.577357
  H    -12.139721   -6.115864   -0.581882
  C     -9.728342  -10.945972    0.598949
  O     -9.788501  -10.579924    1.967654
  H     -9.245930  -11.151646    2.469019
  H    -10.703401  -11.012628    0.111094
  H     -9.181283  -10.224568   -0.037611
  H     -9.093684  -11.862189    0.466489

 Multiplicity           Mult            ....    1
 Number of Electrons    NEL             ....   18
 Basis Dimension        Dim             ....  172

ORBITAL ENERGIES
----------------

  NO   OCC          E(Eh)            E(eV)
   0   2.0000     -19.229739      -523.2678
   1   2.0000     -10.319152      -280.7984
   2   2.0000      -1.140376       -31.0312
   3   2.0000      -0.797637       -21.7048
   4   2.0000      -0.616136       -16.7659
   5   2.0000      -0.539174       -14.6717
   6   2.0000      -0.526899       -14.3376
   7   2.0000      -0.432748       -11.7757
   8   2.0000      -0.372854       -10.1459
   9   0.0000       0.087651         2.3851
  10   0.0000       0.118350         3.2205
  11   0.0000       0.149877         4.0784
  12   0.0000       0.169557         4.6139
  13   0.0000       0.189008         5.1432

MULLIKEN ATOMIC CHARGES
-----------------------
   0 C :    0.000045
   1 O :    0.000086
   2 H :   -0.000588
   3 H :   -0.000107
   4 H :    0.000241
   5 H :    0.000013
   6 C :   -0.175005
   7 O :   -0.467128
   8 H :    0.314677
   9 H :    0.118564
  10 H :    0.103721
  11 H :    0.105482
Sum of atomic charges:    0.0000000

LOEWDIN ATOMIC CHARGES
----------------------
   0 C :   -0.000249
   1 O :   -0.000061
   2 H :   -0.000384
   3 H :   -0.000032
   4 H :   -0.000135
   5 H :   -0.000003
   6 C :   -0.388264
   7 O :   -0.066504
   8 H :    0.152855
   9 H :    0.101874
  10 H :    0.097994
  11 H :    0.102909

  Mayer bond orders larger than 0.1
B(  6-C ,  7-O ) :   1.0108 B(  6-C ,  9-H ) :   0.9736 B(  6-C , 10-H ) :   0.9715
B(  6-C , 11-H ) :   0.9858 B(  7-O ,  8-H ) :   0.9038

Dispersion correction           -0.000263192
FINAL SINGLE POINT ENERGY      -115.731440545799

DIPOLE MOMENT
-------------
                                X             Y             Z
Electronic contribution:     -0.28372       0.54051       1.83531
Nuclear contribution   :      0.67708      -1.06608      -2.05190
                        -----------------------------------------
Total Dipole Moment    :      0.39336      -0.52557      -0.21660
                        -----------------------------------------
Magnitude (a.u.)       :      0.69128
Magnitude (Debye)      :      1.75709

Rotational constants in cm-1:     4.381148     0.820415     0.783650
Rotational constants in MHz : 131343.524645 24595.436765 23493.236444

                             ****ORCA TERMINATED NORMALLY****
TOTAL RUN TIME: 0 days 0 hours 1 minutes 4 seconds 912 msec
