                         Program Version 4.1.2  - RELEASE  -
|  1> #Run DFT-D3 single point of the dimer
|  2> ! wB97X-D3 def2-TZVP TIGHTSCF CHELPG PMODEL PAL8
|  3>
|  4> %base "8-195_DFT_AB"
|  5>
|  6> %scf
|  7> MaxIter 1000
|  8> end
|  9>
| 10> * xyz 0 1
| 11>   C                      -1.523092            -3.085054            -4.626806
| 12>   O                      -0.408437            -2.272487            -4.951602
| 13>   H                      -0.333065            -2.187968            -5.897498
| 14>   H                      -1.220030            -4.200989            -4.574410
| 15>   H                      -1.929081            -2.720365            -3.656074
| 16>   H                      -2.337389            -2.885458            -5.353517
| 17>   C                      0.454296             1.063015             -5.066884
| 18>   O                      0.027373             1.018387             -6.371034
| 19>   H                      -0.179703            0.128811             -6.695658
| 20>   H                      1.451245             0.704450             -4.844679
| 21>   H                      0.373348             2.132470             -4.849588
| 22>   H                      -0.201784            0.501082             -4.370031
| 23> *
| 24>
| 25> #Run DFT-D3 single point of the molecule with dimer basis set
| 26> $new_job
| 27> %base "8-195_DFT_A"
| 28> ! wB97X-D3 def2-TZVP TIGHTSCF CHELPG PMODEL
| 29>
| 30> %scf
| 31> MaxIter 1000
| 32> end
| 33>
| 34> * xyz 0 1
| 35>   C                      -1.523092            -3.085054            -4.626806
| 36>   O                      -0.408437            -2.272487            -4.951602
| 37>   H                      -0.333065            -2.187968            -5.897498
| 38>   H                      -1.220030            -4.200989            -4.574410
| 39>   H                      -1.929081            -2.720365            -3.656074
| 40>   H                      -2.337389            -2.885458            -5.353517
| 41>   C                    : 0.454296             1.063015             -5.066884
| 42>   O                    : 0.027373             1.018387             -6.371034
| 43>   H                    : -0.179703            0.128811             -6.695658
| 44>   H                    : 1.451245             0.704450             -4.844679
| 45>   H                    : 0.373348             2.132470             -4.849588
| 46>   H                    : -0.201784            0.501082             -4.370031
| 47> *
| 48>
| 49> #Run DFT-D3 single point of the particle with dimer basis set
| 50> $new_job
| 51> %base "8-195_DFT_B"
| 52> ! wB97X-D3 def2-TZVP TIGHTSCF CHELPG PMODEL
| 53>
| 54> %scf
| 55> MaxIter 1000
| 56> end
| 57>
| 58> * xyz 0 1
| 59>   C                    : -1.523092            -3.085054            -4.626806
| 60>   O                    : -0.408437            -2.272487            -4.951602
| 61>   H                    : -0.333065            -2.187968            -5.897498
| 62>   H                    : -1.220030            -4.200989            -4.574410
| 63>   H                    : -1.929081            -2.720365            -3.656074
| 64>   H                    : -2.337389            -2.885458            -5.353517
| 65>   C                      0.454296             1.063015             -5.066884
| 66>   O                      0.027373             1.018387             -6.371034
| 67>   H                      -0.179703            0.128811             -6.695658
| 68>   H                      1.451245             0.704450             -4.844679
| 69>   H                      0.373348             2.132470             -4.849588
| 70>   H                      -0.201784            0.501082             -4.370031
| 71> *
| 72>
| 73>                          ****END OF INPUT****
 Total Charge           Charge          ....    0
 Multiplicity           Mult            ....    1
 Number of Electrons    NEL             ....   36
Dispersion correction           -0.001767732
FINAL SINGLE POINT ENERGY      -231.466935566581
Dispersion correction           -0.000255312
FINAL SINGLE POINT ENERGY      -115.733332020375

CARTESIAN COORDINATES (ANGSTROEM)
---------------------------------
  C     -1.523092   -3.085054   -4.626806
  O     -0.408437   -2.272487   -4.951602
  H     -0.333065   -2.187968   -5.897498
  H     -1.220030   -4.200989   -4.574410
  H     -1.929081   -2.720365   -3.656074
  H     -2.337389   -2.885458   -5.353517
  C      0.454296    1.063015   -5.066884
  O      0.027373    1.018387   -6.371034
  H     -0.179703    0.128811   -6.695658
  H      1.451245    0.704450   -4.844679
  H      0.373348    2.132470   -4.849588
  H     -0.201784    0.501082   -4.370031

 Multiplicity           Mult            ....    1
 Number of Electrons    NEL             ....   18
 Basis Dimension        Dim             ....  172

ORBITAL ENERGIES
----------------

  NO   OCC          E(Eh)            E(eV)
   0   2.0000     -19.230359      -523.2847
   1   2.0000     -10.309669      -280.5403
   2   2.0000      -1.144709       -31.1491
   3   2.0000      -0.796196       -21.6656
   4   2.0000      -0.623881       -16.9767
   5   2.0000      -0.540035       -14.6951
   6   2.0000      -0.528485       -14.3808
   7   2.0000      -0.426382       -11.6025
   8   2.0000      -0.371506       -10.1092
   9   0.0000       0.071103         1.9348
  10   0.0000       0.123005         3.3471
  11   0.0000       0.149725         4.0742
  12   0.0000       0.178854         4.8669
  13   0.0000       0.192723         5.2443

MULLIKEN ATOMIC CHARGES
-----------------------
   0 C :    0.000659
   1 O :    0.000090
   2 H :   -0.001781
   3 H :   -0.000002
   4 H :   -0.000264
   5 H :   -0.000079
   6 C :   -0.133372
   7 O :   -0.480314
   8 H :    0.316641
   9 H :    0.091482
  10 H :    0.119686
  11 H :    0.087254
Sum of atomic charges:    0.0000000

LOEWDIN ATOMIC CHARGES
----------------------
   0 C :   -0.000448
   1 O :   -0.002402
   2 H :   -0.002872
   3 H :   -0.000006
   4 H :   -0.000124
   5 H :   -0.000016
   6 C :   -0.415873
   7 O :   -0.047408
   8 H :    0.172911
   9 H :    0.088508
  10 H :    0.113810
  11 H :    0.093920

  Mayer bond orders larger than 0.1
B(  6-C ,  7-O ) :   0.9998 B(  6-C ,  9-H ) :   0.9674 B(  6-C , 10-H ) :   0.9787
B(  6-C , 11-H ) :   0.9784 B(  7-O ,  8-H ) :   0.8950

Dispersion correction           -0.000250281
FINAL SINGLE POINT ENERGY      -115.733333103880

DIPOLE MOMENT
-------------
                                X             Y             Z
Electronic contribution:     -0.47180       0.00275      -1.75503
Nuclear contribution   :      0.49018      -0.56034       2.03041
                        -----------------------------------------
Total Dipole Moment    :      0.01838      -0.55759       0.27538
                        -----------------------------------------
Magnitude (a.u.)       :      0.62216
Magnitude (Debye)      :      1.58140

Rotational constants in cm-1:     4.379855     0.865513     0.830252
Rotational constants in MHz : 131304.758920 25947.430697 24890.326569

                             ****ORCA TERMINATED NORMALLY****
TOTAL RUN TIME: 0 days 0 hours 0 minutes 43 seconds 824 msec
