                         Program Version 4.1.2  - RELEASE  -
|  1> #Run DFT-D3 single point of the dimer
|  2> ! wB97X-D3 def2-TZVP TIGHTSCF CHELPG PMODEL PAL8
|  3>
|  4> %base "3-67_DFT_AB"
|  5>
|  6> %scf
|  7> MaxIter 1000
|  8> end
|  9>
| 10> * xyz 0 1
| 11>   C                      -8.550756            3.122368             3.230009
| 12>   O                      -8.562572            2.964860             1.793958
| 13>   H                      -8.190921            3.761981             1.375839
| 14>   H                      -9.274297            2.452273             3.762807
| 15>   H                      -7.574168            2.767367             3.602449
| 16>   H                      -8.847867            4.108928             3.617314
| 17>   C                      -9.392765            -0.768489            1.418927
| 18>   O                      -10.623573           -0.821616            2.124947
| 19>   H                      -10.380854           -0.719384            3.083658
| 20>   H                      -9.581745            -1.070340            0.382746
| 21>   H                      -8.940759            0.271909             1.384870
| 22>   H                      -8.746655            -1.488014            1.879901
| 23> *
| 24>
| 25> #Run DFT-D3 single point of the molecule with dimer basis set
| 26> $new_job
| 27> %base "3-67_DFT_A"
| 28> ! wB97X-D3 def2-TZVP TIGHTSCF CHELPG PMODEL
| 29>
| 30> %scf
| 31> MaxIter 1000
| 32> end
| 33>
| 34> * xyz 0 1
| 35>   C                      -8.550756            3.122368             3.230009
| 36>   O                      -8.562572            2.964860             1.793958
| 37>   H                      -8.190921            3.761981             1.375839
| 38>   H                      -9.274297            2.452273             3.762807
| 39>   H                      -7.574168            2.767367             3.602449
| 40>   H                      -8.847867            4.108928             3.617314
| 41>   C                    : -9.392765            -0.768489            1.418927
| 42>   O                    : -10.623573           -0.821616            2.124947
| 43>   H                    : -10.380854           -0.719384            3.083658
| 44>   H                    : -9.581745            -1.070340            0.382746
| 45>   H                    : -8.940759            0.271909             1.384870
| 46>   H                    : -8.746655            -1.488014            1.879901
| 47> *
| 48>
| 49> #Run DFT-D3 single point of the particle with dimer basis set
| 50> $new_job
| 51> %base "3-67_DFT_B"
| 52> ! wB97X-D3 def2-TZVP TIGHTSCF CHELPG PMODEL
| 53>
| 54> %scf
| 55> MaxIter 1000
| 56> end
| 57>
| 58> * xyz 0 1
| 59>   C                    : -8.550756            3.122368             3.230009
| 60>   O                    : -8.562572            2.964860             1.793958
| 61>   H                    : -8.190921            3.761981             1.375839
| 62>   H                    : -9.274297            2.452273             3.762807
| 63>   H                    : -7.574168            2.767367             3.602449
| 64>   H                    : -8.847867            4.108928             3.617314
| 65>   C                      -9.392765            -0.768489            1.418927
| 66>   O                      -10.623573           -0.821616            2.124947
| 67>   H                      -10.380854           -0.719384            3.083658
| 68>   H                      -9.581745            -1.070340            0.382746
| 69>   H                      -8.940759            0.271909             1.384870
| 70>   H                      -8.746655            -1.488014            1.879901
| 71> *
| 72>
| 73>                          ****END OF INPUT****
 Total Charge           Charge          ....    0
 Multiplicity           Mult            ....    1
 Number of Electrons    NEL             ....   36
Dispersion correction           -0.001476302
FINAL SINGLE POINT ENERGY      -231.466475126171
Dispersion correction           -0.000281362
FINAL SINGLE POINT ENERGY      -115.731391109384

CARTESIAN COORDINATES (ANGSTROEM)
---------------------------------
  C     -8.550756    3.122368    3.230009
  O     -8.562572    2.964860    1.793958
  H     -8.190921    3.761981    1.375839
  H     -9.274297    2.452273    3.762807
  H     -7.574168    2.767367    3.602449
  H     -8.847867    4.108928    3.617314
  C     -9.392765   -0.768489    1.418927
  O    -10.623573   -0.821616    2.124947
  H    -10.380854   -0.719384    3.083658
  H     -9.581745   -1.070340    0.382746
  H     -8.940759    0.271909    1.384870
  H     -8.746655   -1.488014    1.879901

 Multiplicity           Mult            ....    1
 Number of Electrons    NEL             ....   18
 Basis Dimension        Dim             ....  172

ORBITAL ENERGIES
----------------

  NO   OCC          E(Eh)            E(eV)
   0   2.0000     -19.232120      -523.3326
   1   2.0000     -10.314977      -280.6848
   2   2.0000      -1.129618       -30.7385
   3   2.0000      -0.788925       -21.4677
   4   2.0000      -0.602851       -16.4044
   5   2.0000      -0.545008       -14.8304
   6   2.0000      -0.523795       -14.2532
   7   2.0000      -0.433076       -11.7846
   8   2.0000      -0.372582       -10.1385
   9   0.0000       0.077328         2.1042
  10   0.0000       0.115837         3.1521
  11   0.0000       0.149018         4.0550
  12   0.0000       0.169869         4.6224
  13   0.0000       0.187205         5.0941

MULLIKEN ATOMIC CHARGES
-----------------------
   0 C :    0.001139
   1 O :    0.000510
   2 H :   -0.000049
   3 H :   -0.000824
   4 H :   -0.000250
   5 H :    0.000023
   6 C :   -0.165701
   7 O :   -0.472706
   8 H :    0.315572
   9 H :    0.119632
  10 H :    0.092985
  11 H :    0.109669
Sum of atomic charges:   -0.0000000

LOEWDIN ATOMIC CHARGES
----------------------
   0 C :   -0.001577
   1 O :   -0.002894
   2 H :   -0.000184
   3 H :   -0.000509
   4 H :   -0.000118
   5 H :   -0.000021
   6 C :   -0.386945
   7 O :   -0.097848
   8 H :    0.187853
   9 H :    0.108438
  10 H :    0.102330
  11 H :    0.091476

  Mayer bond orders larger than 0.1
B(  6-C ,  7-O ) :   1.0012 B(  6-C ,  9-H ) :   0.9741 B(  6-C , 10-H ) :   0.9655
B(  6-C , 11-H ) :   0.9868 B(  7-O ,  8-H ) :   0.8969

Dispersion correction           -0.000234509
FINAL SINGLE POINT ENERGY      -115.733666073081

DIPOLE MOMENT
-------------
                                X             Y             Z
Electronic contribution:     -1.60920      -0.10223       0.75584
Nuclear contribution   :      2.23243       0.15500      -0.45258
                        -----------------------------------------
Total Dipole Moment    :      0.62323       0.05277       0.30327
                        -----------------------------------------
Magnitude (a.u.)       :      0.69511
Magnitude (Debye)      :      1.76683

Rotational constants in cm-1:     4.118145     0.829621     0.802042
Rotational constants in MHz : 123458.895201 24871.421182 24044.611756

                             ****ORCA TERMINATED NORMALLY****
TOTAL RUN TIME: 0 days 0 hours 6 minutes 11 seconds 443 msec
