                         Program Version 4.1.2  - RELEASE  -
|  1> #Run DFT-D3 single point of the dimer
|  2> ! wB97X-D3 def2-TZVP TIGHTSCF CHELPG PMODEL PAL8
|  3>
|  4> %base "1-140_DFT_AB"
|  5>
|  6> %scf
|  7> MaxIter 1000
|  8> end
|  9>
| 10> * xyz 0 1
| 11>   C                      9.665836             -0.217064            10.196093
| 12>   O                      9.826703             -1.470879            10.780633
| 13>   H                      10.759762            -1.664107            10.755609
| 14>   H                      8.702707             0.283325             10.335303
| 15>   H                      10.272908            0.494257             10.775739
| 16>   H                      9.978906             -0.181398            9.110003
| 17>   C                      10.352026            -5.935327            9.632944
| 18>   O                      10.792105            -5.202303            8.473814
| 19>   H                      10.497764            -4.299344            8.530602
| 20>   H                      9.256438             -5.809035            9.783985
| 21>   H                      10.656892            -6.945172            9.567578
| 22>   H                      10.798841            -5.568398            10.508787
| 23> *
| 24>
| 25> #Run DFT-D3 single point of the molecule with dimer basis set
| 26> $new_job
| 27> %base "1-140_DFT_A"
| 28> ! wB97X-D3 def2-TZVP TIGHTSCF CHELPG PMODEL
| 29>
| 30> %scf
| 31> MaxIter 1000
| 32> end
| 33>
| 34> * xyz 0 1
| 35>   C                      9.665836             -0.217064            10.196093
| 36>   O                      9.826703             -1.470879            10.780633
| 37>   H                      10.759762            -1.664107            10.755609
| 38>   H                      8.702707             0.283325             10.335303
| 39>   H                      10.272908            0.494257             10.775739
| 40>   H                      9.978906             -0.181398            9.110003
| 41>   C                    : 10.352026            -5.935327            9.632944
| 42>   O                    : 10.792105            -5.202303            8.473814
| 43>   H                    : 10.497764            -4.299344            8.530602
| 44>   H                    : 9.256438             -5.809035            9.783985
| 45>   H                    : 10.656892            -6.945172            9.567578
| 46>   H                    : 10.798841            -5.568398            10.508787
| 47> *
| 48>
| 49> #Run DFT-D3 single point of the particle with dimer basis set
| 50> $new_job
| 51> %base "1-140_DFT_B"
| 52> ! wB97X-D3 def2-TZVP TIGHTSCF CHELPG PMODEL
| 53>
| 54> %scf
| 55> MaxIter 1000
| 56> end
| 57>
| 58> * xyz 0 1
| 59>   C                    : 9.665836             -0.217064            10.196093
| 60>   O                    : 9.826703             -1.470879            10.780633
| 61>   H                    : 10.759762            -1.664107            10.755609
| 62>   H                    : 8.702707             0.283325             10.335303
| 63>   H                    : 10.272908            0.494257             10.775739
| 64>   H                    : 9.978906             -0.181398            9.110003
| 65>   C                      10.352026            -5.935327            9.632944
| 66>   O                      10.792105            -5.202303            8.473814
| 67>   H                      10.497764            -4.299344            8.530602
| 68>   H                      9.256438             -5.809035            9.783985
| 69>   H                      10.656892            -6.945172            9.567578
| 70>   H                      10.798841            -5.568398            10.508787
| 71> *
| 72>
| 73>                          ****END OF INPUT****
 Total Charge           Charge          ....    0
 Multiplicity           Mult            ....    1
 Number of Electrons    NEL             ....   36
Dispersion correction           -0.000906339
FINAL SINGLE POINT ENERGY      -231.464724407898
Dispersion correction           -0.000234701
FINAL SINGLE POINT ENERGY      -115.730148544778

CARTESIAN COORDINATES (ANGSTROEM)
---------------------------------
  C      9.665836   -0.217064   10.196093
  O      9.826703   -1.470879   10.780633
  H     10.759762   -1.664107   10.755609
  H      8.702707    0.283325   10.335303
  H     10.272908    0.494257   10.775739
  H      9.978906   -0.181398    9.110003
  C     10.352026   -5.935327    9.632944
  O     10.792105   -5.202303    8.473814
  H     10.497764   -4.299344    8.530602
  H      9.256438   -5.809035    9.783985
  H     10.656892   -6.945172    9.567578
  H     10.798841   -5.568398   10.508787

 Multiplicity           Mult            ....    1
 Number of Electrons    NEL             ....   18
 Basis Dimension        Dim             ....  172

ORBITAL ENERGIES
----------------

  NO   OCC          E(Eh)            E(eV)
   0   2.0000     -19.226631      -523.1832
   1   2.0000     -10.308834      -280.5176
   2   2.0000      -1.127431       -30.6789
   3   2.0000      -0.803779       -21.8719
   4   2.0000      -0.608565       -16.5599
   5   2.0000      -0.539637       -14.6843
   6   2.0000      -0.529042       -14.3960
   7   2.0000      -0.436574       -11.8798
   8   2.0000      -0.372595       -10.1388
   9   0.0000       0.073652         2.0042
  10   0.0000       0.116168         3.1611
  11   0.0000       0.153968         4.1897
  12   0.0000       0.169279         4.6063
  13   0.0000       0.191338         5.2066

MULLIKEN ATOMIC CHARGES
-----------------------
   0 C :    0.000059
   1 O :   -0.000042
   2 H :   -0.000282
   3 H :    0.000003
   4 H :   -0.000001
   5 H :   -0.000031
   6 C :   -0.158524
   7 O :   -0.487072
   8 H :    0.312789
   9 H :    0.102112
  10 H :    0.126093
  11 H :    0.104895
Sum of atomic charges:    0.0000000

LOEWDIN ATOMIC CHARGES
----------------------
   0 C :   -0.000049
   1 O :   -0.000123
   2 H :   -0.000254
   3 H :   -0.000000
   4 H :   -0.000000
   5 H :   -0.000014
   6 C :   -0.354000
   7 O :   -0.093415
   8 H :    0.159208
   9 H :    0.100769
  10 H :    0.102158
  11 H :    0.085720

  Mayer bond orders larger than 0.1
B(  6-C ,  7-O ) :   0.9924 B(  6-C ,  9-H ) :   0.9797 B(  6-C , 10-H ) :   0.9740
B(  6-C , 11-H ) :   0.9763 B(  7-O ,  8-H ) :   0.9016

Dispersion correction           -0.000241717
FINAL SINGLE POINT ENERGY      -115.733170400389

DIPOLE MOMENT
-------------
                                X             Y             Z
Electronic contribution:      0.63166       0.71848      -1.50264
Nuclear contribution   :     -0.98378      -0.45061       2.04794
                        -----------------------------------------
Total Dipole Moment    :     -0.35212       0.26788       0.54530
                        -----------------------------------------
Magnitude (a.u.)       :      0.70221
Magnitude (Debye)      :      1.78487

Rotational constants in cm-1:     4.455624     0.811680     0.778471
Rotational constants in MHz : 133576.259490 24333.553100 23337.987293

                             ****ORCA TERMINATED NORMALLY****
TOTAL RUN TIME: 0 days 0 hours 5 minutes 38 seconds 393 msec
