                         Program Version 4.1.2  - RELEASE  -
|  1> #Run DFT-D3 single point of the dimer
|  2> ! wB97X-D3 def2-TZVP TIGHTSCF CHELPG PMODEL PAL8
|  3>
|  4> %base "3-19_DFT_AB"
|  5>
|  6> %scf
|  7> MaxIter 1000
|  8> end
|  9>
| 10> * xyz 0 1
| 11>   C                      0.141561             6.247437             4.342902
| 12>   O                      -0.671210            6.055133             5.470995
| 13>   H                      -0.143852            5.652897             6.120910
| 14>   H                      0.997028             6.871239             4.544806
| 15>   H                      0.411989             5.326716             3.898990
| 16>   H                      -0.387381            6.739469             3.540981
| 17>   C                      0.205448             6.648930             0.121573
| 18>   O                      -0.437787            7.268762             1.203860
| 19>   H                      -1.281744            6.849464             1.359909
| 20>   H                      0.394311             5.525155             0.224941
| 21>   H                      -0.373423            6.787249             -0.786354
| 22>   H                      1.217645             6.999208             -0.119760
| 23> *
| 24>
| 25> #Run DFT-D3 single point of the molecule with dimer basis set
| 26> $new_job
| 27> %base "3-19_DFT_A"
| 28> ! wB97X-D3 def2-TZVP TIGHTSCF CHELPG PMODEL
| 29>
| 30> %scf
| 31> MaxIter 1000
| 32> end
| 33>
| 34> * xyz 0 1
| 35>   C                      0.141561             6.247437             4.342902
| 36>   O                      -0.671210            6.055133             5.470995
| 37>   H                      -0.143852            5.652897             6.120910
| 38>   H                      0.997028             6.871239             4.544806
| 39>   H                      0.411989             5.326716             3.898990
| 40>   H                      -0.387381            6.739469             3.540981
| 41>   C                    : 0.205448             6.648930             0.121573
| 42>   O                    : -0.437787            7.268762             1.203860
| 43>   H                    : -1.281744            6.849464             1.359909
| 44>   H                    : 0.394311             5.525155             0.224941
| 45>   H                    : -0.373423            6.787249             -0.786354
| 46>   H                    : 1.217645             6.999208             -0.119760
| 47> *
| 48>
| 49> #Run DFT-D3 single point of the particle with dimer basis set
| 50> $new_job
| 51> %base "3-19_DFT_B"
| 52> ! wB97X-D3 def2-TZVP TIGHTSCF CHELPG PMODEL
| 53>
| 54> %scf
| 55> MaxIter 1000
| 56> end
| 57>
| 58> * xyz 0 1
| 59>   C                    : 0.141561             6.247437             4.342902
| 60>   O                    : -0.671210            6.055133             5.470995
| 61>   H                    : -0.143852            5.652897             6.120910
| 62>   H                    : 0.997028             6.871239             4.544806
| 63>   H                    : 0.411989             5.326716             3.898990
| 64>   H                    : -0.387381            6.739469             3.540981
| 65>   C                      0.205448             6.648930             0.121573
| 66>   O                      -0.437787            7.268762             1.203860
| 67>   H                      -1.281744            6.849464             1.359909
| 68>   H                      0.394311             5.525155             0.224941
| 69>   H                      -0.373423            6.787249             -0.786354
| 70>   H                      1.217645             6.999208             -0.119760
| 71> *
| 72>
| 73>                          ****END OF INPUT****
 Total Charge           Charge          ....    0
 Multiplicity           Mult            ....    1
 Number of Electrons    NEL             ....   36
Dispersion correction           -0.001540288
FINAL SINGLE POINT ENERGY      -231.467281546611
Dispersion correction           -0.000225441
FINAL SINGLE POINT ENERGY      -115.733633846231

CARTESIAN COORDINATES (ANGSTROEM)
---------------------------------
  C      0.141561    6.247437    4.342902
  O     -0.671210    6.055133    5.470995
  H     -0.143852    5.652897    6.120910
  H      0.997028    6.871239    4.544806
  H      0.411989    5.326716    3.898990
  H     -0.387381    6.739469    3.540981
  C      0.205448    6.648930    0.121573
  O     -0.437787    7.268762    1.203860
  H     -1.281744    6.849464    1.359909
  H      0.394311    5.525155    0.224941
  H     -0.373423    6.787249   -0.786354
  H      1.217645    6.999208   -0.119760

 Multiplicity           Mult            ....    1
 Number of Electrons    NEL             ....   18
 Basis Dimension        Dim             ....  172

ORBITAL ENERGIES
----------------

  NO   OCC          E(Eh)            E(eV)
   0   2.0000     -19.235086      -523.4133
   1   2.0000     -10.318332      -280.7761
   2   2.0000      -1.142317       -31.0840
   3   2.0000      -0.796380       -21.6706
   4   2.0000      -0.615851       -16.7581
   5   2.0000      -0.542908       -14.7733
   6   2.0000      -0.528521       -14.3818
   7   2.0000      -0.428092       -11.6490
   8   2.0000      -0.375236       -10.2107
   9   0.0000       0.091400         2.4871
  10   0.0000       0.124070         3.3761
  11   0.0000       0.146354         3.9825
  12   0.0000       0.181910         4.9500
  13   0.0000       0.192796         5.2462

MULLIKEN ATOMIC CHARGES
-----------------------
   0 C :    0.008257
   1 O :   -0.000152
   2 H :   -0.000018
   3 H :   -0.002233
   4 H :   -0.001090
   5 H :   -0.018006
   6 C :   -0.171219
   7 O :   -0.462459
   8 H :    0.322903
   9 H :    0.096147
  10 H :    0.106810
  11 H :    0.121058
Sum of atomic charges:    0.0000000

LOEWDIN ATOMIC CHARGES
----------------------
   0 C :   -0.009386
   1 O :   -0.000037
   2 H :   -0.000022
   3 H :   -0.000416
   4 H :   -0.000626
   5 H :   -0.015946
   6 C :   -0.404374
   7 O :   -0.044225
   8 H :    0.171695
   9 H :    0.100907
  10 H :    0.093315
  11 H :    0.109115

  Mayer bond orders larger than 0.1
B(  6-C ,  7-O ) :   0.9991 B(  6-C ,  9-H ) :   0.9715 B(  6-C , 10-H ) :   0.9780
B(  6-C , 11-H ) :   0.9719 B(  7-O ,  8-H ) :   0.8914

Dispersion correction           -0.000261697
FINAL SINGLE POINT ENERGY      -115.732555815396

DIPOLE MOMENT
-------------
                                X             Y             Z
Electronic contribution:     -0.77155       1.02323       1.51303
Nuclear contribution   :      0.49151      -1.51310      -1.86221
                        -----------------------------------------
Total Dipole Moment    :     -0.28004      -0.48987      -0.34918
                        -----------------------------------------
Magnitude (a.u.)       :      0.66357
Magnitude (Debye)      :      1.68666

Rotational constants in cm-1:     4.420934     0.819231     0.796017
Rotational constants in MHz : 132536.268537 24559.915191 23863.975518

                             ****ORCA TERMINATED NORMALLY****
TOTAL RUN TIME: 0 days 0 hours 6 minutes 21 seconds 701 msec
