                         Program Version 4.1.2  - RELEASE  -
|  1> #Run DFT-D3 single point of the dimer
|  2> ! wB97X-D3 def2-TZVP TIGHTSCF CHELPG PMODEL PAL8
|  3>
|  4> %base "13-74_DFT_AB"
|  5>
|  6> %scf
|  7> MaxIter 1000
|  8> end
|  9>
| 10> * xyz 0 1
| 11>   C                      9.028161             -7.584521            4.100614
| 12>   O                      8.192791             -6.828802            5.014434
| 13>   H                      7.594326             -6.269406            4.519792
| 14>   H                      8.513725             -7.939866            3.227101
| 15>   H                      9.834166             -6.927564            3.751375
| 16>   H                      9.510038             -8.408056            4.560258
| 17>   C                      8.739010             -7.472333            0.384372
| 18>   O                      9.423691             -8.127046            -0.704583
| 19>   H                      10.321739            -8.330021            -0.494526
| 20>   H                      8.843660             -8.055029            1.293101
| 21>   H                      9.152455             -6.457081            0.466172
| 22>   H                      7.672785             -7.384907            0.144877
| 23> *
| 24>
| 25> #Run DFT-D3 single point of the molecule with dimer basis set
| 26> $new_job
| 27> %base "13-74_DFT_A"
| 28> ! wB97X-D3 def2-TZVP TIGHTSCF CHELPG PMODEL
| 29>
| 30> %scf
| 31> MaxIter 1000
| 32> end
| 33>
| 34> * xyz 0 1
| 35>   C                      9.028161             -7.584521            4.100614
| 36>   O                      8.192791             -6.828802            5.014434
| 37>   H                      7.594326             -6.269406            4.519792
| 38>   H                      8.513725             -7.939866            3.227101
| 39>   H                      9.834166             -6.927564            3.751375
| 40>   H                      9.510038             -8.408056            4.560258
| 41>   C                    : 8.739010             -7.472333            0.384372
| 42>   O                    : 9.423691             -8.127046            -0.704583
| 43>   H                    : 10.321739            -8.330021            -0.494526
| 44>   H                    : 8.843660             -8.055029            1.293101
| 45>   H                    : 9.152455             -6.457081            0.466172
| 46>   H                    : 7.672785             -7.384907            0.144877
| 47> *
| 48>
| 49> #Run DFT-D3 single point of the particle with dimer basis set
| 50> $new_job
| 51> %base "13-74_DFT_B"
| 52> ! wB97X-D3 def2-TZVP TIGHTSCF CHELPG PMODEL
| 53>
| 54> %scf
| 55> MaxIter 1000
| 56> end
| 57>
| 58> * xyz 0 1
| 59>   C                    : 9.028161             -7.584521            4.100614
| 60>   O                    : 8.192791             -6.828802            5.014434
| 61>   H                    : 7.594326             -6.269406            4.519792
| 62>   H                    : 8.513725             -7.939866            3.227101
| 63>   H                    : 9.834166             -6.927564            3.751375
| 64>   H                    : 9.510038             -8.408056            4.560258
| 65>   C                      8.739010             -7.472333            0.384372
| 66>   O                      9.423691             -8.127046            -0.704583
| 67>   H                      10.321739            -8.330021            -0.494526
| 68>   H                      8.843660             -8.055029            1.293101
| 69>   H                      9.152455             -6.457081            0.466172
| 70>   H                      7.672785             -7.384907            0.144877
| 71> *
| 72>
| 73>                          ****END OF INPUT****
 Total Charge           Charge          ....    0
 Multiplicity           Mult            ....    1
 Number of Electrons    NEL             ....   36
Dispersion correction           -0.001531704
FINAL SINGLE POINT ENERGY      -231.467770862722
Dispersion correction           -0.000256721
FINAL SINGLE POINT ENERGY      -115.733618174502

CARTESIAN COORDINATES (ANGSTROEM)
---------------------------------
  C      9.028161   -7.584521    4.100614
  O      8.192791   -6.828802    5.014434
  H      7.594326   -6.269406    4.519792
  H      8.513725   -7.939866    3.227101
  H      9.834166   -6.927564    3.751375
  H      9.510038   -8.408056    4.560258
  C      8.739010   -7.472333    0.384372
  O      9.423691   -8.127046   -0.704583
  H     10.321739   -8.330021   -0.494526
  H      8.843660   -8.055029    1.293101
  H      9.152455   -6.457081    0.466172
  H      7.672785   -7.384907    0.144877

 Multiplicity           Mult            ....    1
 Number of Electrons    NEL             ....   18
 Basis Dimension        Dim             ....  172

ORBITAL ENERGIES
----------------

  NO   OCC          E(Eh)            E(eV)
   0   2.0000     -19.223064      -523.0862
   1   2.0000     -10.316018      -280.7131
   2   2.0000      -1.125772       -30.6338
   3   2.0000      -0.798589       -21.7307
   4   2.0000      -0.603004       -16.4086
   5   2.0000      -0.544844       -14.8260
   6   2.0000      -0.526406       -14.3242
   7   2.0000      -0.427101       -11.6220
   8   2.0000      -0.373127       -10.1533
   9   0.0000       0.082586         2.2473
  10   0.0000       0.118452         3.2232
  11   0.0000       0.159693         4.3455
  12   0.0000       0.161770         4.4020
  13   0.0000       0.187534         5.1031

MULLIKEN ATOMIC CHARGES
-----------------------
   0 C :    0.002390
   1 O :   -0.000017
   2 H :   -0.000003
   3 H :   -0.007077
   4 H :   -0.000233
   5 H :   -0.000398
   6 C :   -0.150290
   7 O :   -0.494093
   8 H :    0.312167
   9 H :    0.108953
  10 H :    0.106152
  11 H :    0.122448
Sum of atomic charges:   -0.0000000

LOEWDIN ATOMIC CHARGES
----------------------
   0 C :   -0.007556
   1 O :   -0.000023
   2 H :   -0.000011
   3 H :   -0.012029
   4 H :   -0.000794
   5 H :   -0.000113
   6 C :   -0.350557
   7 O :   -0.095739
   8 H :    0.152595
   9 H :    0.103560
  10 H :    0.099660
  11 H :    0.111008

  Mayer bond orders larger than 0.1
B(  6-C ,  7-O ) :   0.9807 B(  6-C ,  9-H ) :   0.9819 B(  6-C , 10-H ) :   0.9767
B(  6-C , 11-H ) :   0.9677 B(  7-O ,  8-H ) :   0.9008

Dispersion correction           -0.000247410
FINAL SINGLE POINT ENERGY      -115.735199537315

DIPOLE MOMENT
-------------
                                X             Y             Z
Electronic contribution:      0.70743      -0.80318      -1.33085
Nuclear contribution   :     -0.42985       0.94513       1.92759
                        -----------------------------------------
Total Dipole Moment    :      0.27758       0.14196       0.59674
                        -----------------------------------------
Magnitude (a.u.)       :      0.67327
Magnitude (Debye)      :      1.71133

Rotational constants in cm-1:     4.298309     0.803147     0.781985
Rotational constants in MHz : 128860.064654 24077.742359 23443.313010

                             ****ORCA TERMINATED NORMALLY****
TOTAL RUN TIME: 0 days 0 hours 1 minutes 1 seconds 192 msec
