                         Program Version 4.1.2  - RELEASE  -
|  1> #Run DFT-D3 single point of the dimer
|  2> ! wB97X-D3 def2-TZVP TIGHTSCF CHELPG PMODEL PAL8
|  3>
|  4> %base "3-0_DFT_AB"
|  5>
|  6> %scf
|  7> MaxIter 1000
|  8> end
|  9>
| 10> * xyz 0 1
| 11>   C                      -7.942409            -2.379003            -9.459658
| 12>   O                      -7.867683            -3.795945            -9.391160
| 13>   H                      -8.719740            -4.186714            -9.465420
| 14>   H                      -7.748901            -1.924920            -8.467208
| 15>   H                      -7.233413            -1.909138            -10.170256
| 16>   H                      -8.967834            -2.145940            -9.738359
| 17>   C                      -4.983724            -1.861540            -7.037725
| 18>   O                      -5.308556            -0.500746            -6.993364
| 19>   H                      -5.230599            -0.272961            -7.890385
| 20>   H                      -4.141318            -2.148880            -7.659056
| 21>   H                      -4.764248            -2.337265            -6.067641
| 22>   H                      -5.873911            -2.396272            -7.501663
| 23> *
| 24>
| 25> #Run DFT-D3 single point of the molecule with dimer basis set
| 26> $new_job
| 27> %base "3-0_DFT_A"
| 28> ! wB97X-D3 def2-TZVP TIGHTSCF CHELPG PMODEL
| 29>
| 30> %scf
| 31> MaxIter 1000
| 32> end
| 33>
| 34> * xyz 0 1
| 35>   C                      -7.942409            -2.379003            -9.459658
| 36>   O                      -7.867683            -3.795945            -9.391160
| 37>   H                      -8.719740            -4.186714            -9.465420
| 38>   H                      -7.748901            -1.924920            -8.467208
| 39>   H                      -7.233413            -1.909138            -10.170256
| 40>   H                      -8.967834            -2.145940            -9.738359
| 41>   C                    : -4.983724            -1.861540            -7.037725
| 42>   O                    : -5.308556            -0.500746            -6.993364
| 43>   H                    : -5.230599            -0.272961            -7.890385
| 44>   H                    : -4.141318            -2.148880            -7.659056
| 45>   H                    : -4.764248            -2.337265            -6.067641
| 46>   H                    : -5.873911            -2.396272            -7.501663
| 47> *
| 48>
| 49> #Run DFT-D3 single point of the particle with dimer basis set
| 50> $new_job
| 51> %base "3-0_DFT_B"
| 52> ! wB97X-D3 def2-TZVP TIGHTSCF CHELPG PMODEL
| 53>
| 54> %scf
| 55> MaxIter 1000
| 56> end
| 57>
| 58> * xyz 0 1
| 59>   C                    : -7.942409            -2.379003            -9.459658
| 60>   O                    : -7.867683            -3.795945            -9.391160
| 61>   H                    : -8.719740            -4.186714            -9.465420
| 62>   H                    : -7.748901            -1.924920            -8.467208
| 63>   H                    : -7.233413            -1.909138            -10.170256
| 64>   H                    : -8.967834            -2.145940            -9.738359
| 65>   C                      -4.983724            -1.861540            -7.037725
| 66>   O                      -5.308556            -0.500746            -6.993364
| 67>   H                      -5.230599            -0.272961            -7.890385
| 68>   H                      -4.141318            -2.148880            -7.659056
| 69>   H                      -4.764248            -2.337265            -6.067641
| 70>   H                      -5.873911            -2.396272            -7.501663
| 71> *
| 72>
| 73>                          ****END OF INPUT****
 Total Charge           Charge          ....    0
 Multiplicity           Mult            ....    1
 Number of Electrons    NEL             ....   36
Dispersion correction           -0.001724532
FINAL SINGLE POINT ENERGY      -231.464198019699
Dispersion correction           -0.000250608
FINAL SINGLE POINT ENERGY      -115.733130097430

CARTESIAN COORDINATES (ANGSTROEM)
---------------------------------
  C     -7.942409   -2.379003   -9.459658
  O     -7.867683   -3.795945   -9.391160
  H     -8.719740   -4.186714   -9.465420
  H     -7.748901   -1.924920   -8.467208
  H     -7.233413   -1.909138  -10.170256
  H     -8.967834   -2.145940   -9.738359
  C     -4.983724   -1.861540   -7.037725
  O     -5.308556   -0.500746   -6.993364
  H     -5.230599   -0.272961   -7.890385
  H     -4.141318   -2.148880   -7.659056
  H     -4.764248   -2.337265   -6.067641
  H     -5.873911   -2.396272   -7.501663

 Multiplicity           Mult            ....    1
 Number of Electrons    NEL             ....   18
 Basis Dimension        Dim             ....  172

ORBITAL ENERGIES
----------------

  NO   OCC          E(Eh)            E(eV)
   0   2.0000     -19.233393      -523.3672
   1   2.0000     -10.317402      -280.7508
   2   2.0000      -1.155004       -31.4293
   3   2.0000      -0.793199       -21.5840
   4   2.0000      -0.619687       -16.8626
   5   2.0000      -0.542572       -14.7641
   6   2.0000      -0.528168       -14.3722
   7   2.0000      -0.442962       -12.0536
   8   2.0000      -0.372678       -10.1411
   9   0.0000       0.081276         2.2116
  10   0.0000       0.124178         3.3790
  11   0.0000       0.151787         4.1303
  12   0.0000       0.177373         4.8266
  13   0.0000       0.187833         5.1112

MULLIKEN ATOMIC CHARGES
-----------------------
   0 C :   -0.004634
   1 O :    0.000547
   2 H :    0.000096
   3 H :    0.005565
   4 H :   -0.000296
   5 H :    0.000424
   6 C :   -0.187216
   7 O :   -0.447024
   8 H :    0.311627
   9 H :    0.111759
  10 H :    0.122700
  11 H :    0.086453
Sum of atomic charges:    0.0000000

LOEWDIN ATOMIC CHARGES
----------------------
   0 C :   -0.008614
   1 O :   -0.000753
   2 H :   -0.000040
   3 H :   -0.005288
   4 H :   -0.000397
   5 H :   -0.000057
   6 C :   -0.403889
   7 O :   -0.045265
   8 H :    0.155880
   9 H :    0.092662
  10 H :    0.108947
  11 H :    0.106814

  Mayer bond orders larger than 0.1
B(  6-C ,  7-O ) :   1.0001 B(  6-C ,  9-H ) :   0.9761 B(  6-C , 10-H ) :   0.9737
B(  6-C , 11-H ) :   0.9833 B(  7-O ,  8-H ) :   0.9081

Dispersion correction           -0.000226256
FINAL SINGLE POINT ENERGY      -115.729844818151

DIPOLE MOMENT
-------------
                                X             Y             Z
Electronic contribution:     -0.34150       1.94832       0.30161
Nuclear contribution   :      0.54464      -2.30141      -0.87609
                        -----------------------------------------
Total Dipole Moment    :      0.20313      -0.35309      -0.57448
                        -----------------------------------------
Magnitude (a.u.)       :      0.70425
Magnitude (Debye)      :      1.79006

Rotational constants in cm-1:     4.324155     0.841870     0.812341
Rotational constants in MHz : 129634.899045 25238.632105 24353.376733

                             ****ORCA TERMINATED NORMALLY****
TOTAL RUN TIME: 0 days 0 hours 6 minutes 10 seconds 524 msec
