                         Program Version 4.1.2  - RELEASE  -
|  1> #Run DFT-D3 single point of the dimer
|  2> ! wB97X-D3 def2-TZVP TIGHTSCF CHELPG PMODEL PAL8
|  3>
|  4> %base "19-13_DFT_AB"
|  5>
|  6> %scf
|  7> MaxIter 1000
|  8> end
|  9>
| 10> * xyz 0 1
| 11>   C                      -7.667179            -9.209066            3.339312
| 12>   O                      -8.331323            -9.779651            4.428187
| 13>   H                      -8.630029            -10.674345           4.174091
| 14>   H                      -6.594837            -9.317972            3.473686
| 15>   H                      -7.952272            -9.648018            2.417688
| 16>   H                      -7.931544            -8.142269            3.023550
| 17>   C                      -8.825300            -5.163330            4.244927
| 18>   O                      -9.722351            -4.688179            3.283910
| 19>   H                      -10.008389           -5.516770            2.782620
| 20>   H                      -8.744327            -4.444332            4.987679
| 21>   H                      -9.137745            -6.055484            4.742008
| 22>   H                      -7.834679            -5.260936            3.862330
| 23> *
| 24>
| 25> #Run DFT-D3 single point of the molecule with dimer basis set
| 26> $new_job
| 27> %base "19-13_DFT_A"
| 28> ! wB97X-D3 def2-TZVP TIGHTSCF CHELPG PMODEL
| 29>
| 30> %scf
| 31> MaxIter 1000
| 32> end
| 33>
| 34> * xyz 0 1
| 35>   C                      -7.667179            -9.209066            3.339312
| 36>   O                      -8.331323            -9.779651            4.428187
| 37>   H                      -8.630029            -10.674345           4.174091
| 38>   H                      -6.594837            -9.317972            3.473686
| 39>   H                      -7.952272            -9.648018            2.417688
| 40>   H                      -7.931544            -8.142269            3.023550
| 41>   C                    : -8.825300            -5.163330            4.244927
| 42>   O                    : -9.722351            -4.688179            3.283910
| 43>   H                    : -10.008389           -5.516770            2.782620
| 44>   H                    : -8.744327            -4.444332            4.987679
| 45>   H                    : -9.137745            -6.055484            4.742008
| 46>   H                    : -7.834679            -5.260936            3.862330
| 47> *
| 48>
| 49> #Run DFT-D3 single point of the particle with dimer basis set
| 50> $new_job
| 51> %base "19-13_DFT_B"
| 52> ! wB97X-D3 def2-TZVP TIGHTSCF CHELPG PMODEL
| 53>
| 54> %scf
| 55> MaxIter 1000
| 56> end
| 57>
| 58> * xyz 0 1
| 59>   C                    : -7.667179            -9.209066            3.339312
| 60>   O                    : -8.331323            -9.779651            4.428187
| 61>   H                    : -8.630029            -10.674345           4.174091
| 62>   H                    : -6.594837            -9.317972            3.473686
| 63>   H                    : -7.952272            -9.648018            2.417688
| 64>   H                    : -7.931544            -8.142269            3.023550
| 65>   C                      -8.825300            -5.163330            4.244927
| 66>   O                      -9.722351            -4.688179            3.283910
| 67>   H                      -10.008389           -5.516770            2.782620
| 68>   H                      -8.744327            -4.444332            4.987679
| 69>   H                      -9.137745            -6.055484            4.742008
| 70>   H                      -7.834679            -5.260936            3.862330
| 71> *
| 72>
| 73>                          ****END OF INPUT****
 Total Charge           Charge          ....    0
 Multiplicity           Mult            ....    1
 Number of Electrons    NEL             ....   36
Dispersion correction           -0.001260382
FINAL SINGLE POINT ENERGY      -231.458138426517
Dispersion correction           -0.000250984
FINAL SINGLE POINT ENERGY      -115.726903354836

CARTESIAN COORDINATES (ANGSTROEM)
---------------------------------
  C     -7.667179   -9.209066    3.339312
  O     -8.331323   -9.779651    4.428187
  H     -8.630029  -10.674345    4.174091
  H     -6.594837   -9.317972    3.473686
  H     -7.952272   -9.648018    2.417688
  H     -7.931544   -8.142269    3.023550
  C     -8.825300   -5.163330    4.244927
  O     -9.722351   -4.688179    3.283910
  H    -10.008389   -5.516770    2.782620
  H     -8.744327   -4.444332    4.987679
  H     -9.137745   -6.055484    4.742008
  H     -7.834679   -5.260936    3.862330

 Multiplicity           Mult            ....    1
 Number of Electrons    NEL             ....   18
 Basis Dimension        Dim             ....  172

ORBITAL ENERGIES
----------------

  NO   OCC          E(Eh)            E(eV)
   0   2.0000     -19.234449      -523.3960
   1   2.0000     -10.297728      -280.2154
   2   2.0000      -1.134068       -30.8596
   3   2.0000      -0.799102       -21.7447
   4   2.0000      -0.608409       -16.5556
   5   2.0000      -0.548951       -14.9377
   6   2.0000      -0.529355       -14.4045
   7   2.0000      -0.436560       -11.8794
   8   2.0000      -0.373325       -10.1587
   9   0.0000       0.076425         2.0796
  10   0.0000       0.113389         3.0855
  11   0.0000       0.153595         4.1795
  12   0.0000       0.161663         4.3991
  13   0.0000       0.194253         5.2859

MULLIKEN ATOMIC CHARGES
-----------------------
   0 C :   -0.001644
   1 O :    0.000056
   2 H :   -0.000001
   3 H :    0.000125
   4 H :    0.000001
   5 H :    0.001693
   6 C :   -0.161306
   7 O :   -0.468945
   8 H :    0.315755
   9 H :    0.116562
  10 H :    0.100569
  11 H :    0.097135
Sum of atomic charges:   -0.0000000

LOEWDIN ATOMIC CHARGES
----------------------
   0 C :   -0.001050
   1 O :   -0.000055
   2 H :   -0.000004
   3 H :   -0.000011
   4 H :   -0.000008
   5 H :   -0.001207
   6 C :   -0.393525
   7 O :   -0.082353
   8 H :    0.199843
   9 H :    0.096047
  10 H :    0.091552
  11 H :    0.090771

  Mayer bond orders larger than 0.1
B(  6-C ,  7-O ) :   1.0107 B(  6-C ,  9-H ) :   0.9781 B(  6-C , 10-H ) :   0.9813
B(  6-C , 11-H ) :   0.9791 B(  7-O ,  8-H ) :   0.8970

Dispersion correction           -0.000223473
FINAL SINGLE POINT ENERGY      -115.730197193807

DIPOLE MOMENT
-------------
                                X             Y             Z
Electronic contribution:     -1.16021       0.72238      -1.20708
Nuclear contribution   :      1.32675      -1.39844       1.29766
                        -----------------------------------------
Total Dipole Moment    :      0.16654      -0.67606       0.09058
                        -----------------------------------------
Magnitude (a.u.)       :      0.70214
Magnitude (Debye)      :      1.78470

Rotational constants in cm-1:     4.438288     0.853633     0.822131
Rotational constants in MHz : 133056.531156 25591.266507 24646.861964

                             ****ORCA TERMINATED NORMALLY****
TOTAL RUN TIME: 0 days 0 hours 0 minutes 46 seconds 613 msec
