                         Program Version 4.1.2  - RELEASE  -
|  1> #Run DFT geometry optimization
|  2> ! wB97X-D3 def2-TZVP TIGHTSCF Grid5 FinalGrid6 Opt CHELPG PAL4
|  3>
|  4> %base "10_geo_opt"
|  5> %geom MaxIter 500
|  6> end
|  7>
|  8> %geom
|  9>   Constraints
| 10>     { A 5 0 1 C }
| 11>   end
| 12> end
| 13>
| 14>
| 15> * xyz 0 1
| 16>   C                    3.011308             -1.180897            0.598492
| 17>   O                    4.393930             -1.122515            0.876904
| 18>   H                    4.772196             -0.379022            0.412493
| 19>   H                    2.806434             -1.318965            -0.469350
| 20>   H                    2.611632             -2.040265            1.135898
| 21>   H                    2.488886             -0.282708            0.947284
| 22> *
| 23>
| 24>                          ****END OF INPUT****
 Total Charge           Charge          ....    0
 Multiplicity           Mult            ....    1
 Number of Electrons    NEL             ....   18
Dispersion correction           -0.000238602
FINAL SINGLE POINT ENERGY      -115.738034148933
Dispersion correction            ... done
Dispersion correction           -0.000238559
FINAL SINGLE POINT ENERGY      -115.738042065494
Dispersion correction            ... done
                    ***********************HURRAY********************

CARTESIAN COORDINATES (ANGSTROEM)
---------------------------------
  C      3.011126   -1.181232    0.598558
  O      4.393908   -1.124036    0.877407
  H      4.771720   -0.377546    0.411730
  H      2.807113   -1.318750   -0.469415
  H      2.611147   -2.040190    1.136191
  H      2.489371   -0.282617    0.947250

 Multiplicity           Mult            ....    1
 Number of Electrons    NEL             ....   18
 Basis Dimension        Dim             ....   86

ORBITAL ENERGIES
----------------

  NO   OCC          E(Eh)            E(eV)
   0   2.0000     -19.227852      -523.2164
   1   2.0000     -10.315119      -280.6887
   2   2.0000      -1.136629       -30.9292
   3   2.0000      -0.795285       -21.6408
   4   2.0000      -0.611338       -16.6353
   5   2.0000      -0.541990       -14.7483
   6   2.0000      -0.526444       -14.3253
   7   2.0000      -0.433635       -11.7998
   8   2.0000      -0.373462       -10.1624
   9   0.0000       0.116600         3.1729
  10   0.0000       0.156816         4.2672
  11   0.0000       0.202662         5.5147
  12   0.0000       0.204999         5.5783
  13   0.0000       0.226139         6.1536

MULLIKEN ATOMIC CHARGES
-----------------------
   0 C :   -0.150593
   1 O :   -0.478040
   2 H :    0.313013
   3 H :    0.098700
   4 H :    0.118273
   5 H :    0.098647
Sum of atomic charges:   -0.0000000

LOEWDIN ATOMIC CHARGES
----------------------
   0 C :   -0.384678
   1 O :   -0.076569
   2 H :    0.165722
   3 H :    0.093374
   4 H :    0.108631
   5 H :    0.093520

  Mayer bond orders larger than 0.1
B(  0-C ,  1-O ) :   0.9982 B(  0-C ,  3-H ) :   0.9753 B(  0-C ,  4-H ) :   0.9748
B(  0-C ,  5-H ) :   0.9762 B(  1-O ,  2-H ) :   0.9002

Dispersion correction           -0.000238425
FINAL SINGLE POINT ENERGY      -115.738042476425

DIPOLE MOMENT
-------------
                                X             Y             Z
Electronic contribution:      1.75048      -0.02759       0.42088
Nuclear contribution   :     -2.06043       0.47178      -0.82246
                        -----------------------------------------
Total Dipole Moment    :     -0.30995       0.44419      -0.40158
                        -----------------------------------------
Magnitude (a.u.)       :      0.67427
Magnitude (Debye)      :      1.71386

Rotational constants in cm-1:     4.288688     0.833980     0.805147
Rotational constants in MHz : 128571.627944 25002.088897 24137.697065

                             ****ORCA TERMINATED NORMALLY****
TOTAL RUN TIME: 0 days 0 hours 0 minutes 48 seconds 20 msec
