                         Program Version 4.1.2  - RELEASE  -
|  1> #Run DFT-D3 single point of the dimer
|  2> ! wB97X-D3 def2-TZVP TIGHTSCF CHELPG PMODEL PAL8
|  3>
|  4> %base "8-43_DFT_AB"
|  5>
|  6> %scf
|  7> MaxIter 1000
|  8> end
|  9>
| 10> * xyz 0 1
| 11>   C                      8.552612             -7.935893            10.071047
| 12>   O                      7.574977             -7.005132            9.555671
| 13>   H                      7.250363             -7.410425            8.741800
| 14>   H                      8.886957             -7.615184            11.078115
| 15>   H                      8.107898             -8.926959            10.312213
| 16>   H                      9.505592             -8.028052            9.544466
| 17>   C                      11.272091            -7.066084            6.267247
| 18>   O                      10.898826            -8.066207            7.160887
| 19>   H                      10.641213            -8.853591            6.664722
| 20>   H                      12.077260            -7.458743            5.579053
| 21>   H                      10.399957            -6.648643            5.725783
| 22>   H                      11.619419            -6.256369            6.893720
| 23> *
| 24>
| 25> #Run DFT-D3 single point of the molecule with dimer basis set
| 26> $new_job
| 27> %base "8-43_DFT_A"
| 28> ! wB97X-D3 def2-TZVP TIGHTSCF CHELPG PMODEL
| 29>
| 30> %scf
| 31> MaxIter 1000
| 32> end
| 33>
| 34> * xyz 0 1
| 35>   C                      8.552612             -7.935893            10.071047
| 36>   O                      7.574977             -7.005132            9.555671
| 37>   H                      7.250363             -7.410425            8.741800
| 38>   H                      8.886957             -7.615184            11.078115
| 39>   H                      8.107898             -8.926959            10.312213
| 40>   H                      9.505592             -8.028052            9.544466
| 41>   C                    : 11.272091            -7.066084            6.267247
| 42>   O                    : 10.898826            -8.066207            7.160887
| 43>   H                    : 10.641213            -8.853591            6.664722
| 44>   H                    : 12.077260            -7.458743            5.579053
| 45>   H                    : 10.399957            -6.648643            5.725783
| 46>   H                    : 11.619419            -6.256369            6.893720
| 47> *
| 48>
| 49> #Run DFT-D3 single point of the particle with dimer basis set
| 50> $new_job
| 51> %base "8-43_DFT_B"
| 52> ! wB97X-D3 def2-TZVP TIGHTSCF CHELPG PMODEL
| 53>
| 54> %scf
| 55> MaxIter 1000
| 56> end
| 57>
| 58> * xyz 0 1
| 59>   C                    : 8.552612             -7.935893            10.071047
| 60>   O                    : 7.574977             -7.005132            9.555671
| 61>   H                    : 7.250363             -7.410425            8.741800
| 62>   H                    : 8.886957             -7.615184            11.078115
| 63>   H                    : 8.107898             -8.926959            10.312213
| 64>   H                    : 9.505592             -8.028052            9.544466
| 65>   C                      11.272091            -7.066084            6.267247
| 66>   O                      10.898826            -8.066207            7.160887
| 67>   H                      10.641213            -8.853591            6.664722
| 68>   H                      12.077260            -7.458743            5.579053
| 69>   H                      10.399957            -6.648643            5.725783
| 70>   H                      11.619419            -6.256369            6.893720
| 71> *
| 72>
| 73>                          ****END OF INPUT****
 Total Charge           Charge          ....    0
 Multiplicity           Mult            ....    1
 Number of Electrons    NEL             ....   36
Dispersion correction           -0.001306632
FINAL SINGLE POINT ENERGY      -231.468994562359
Dispersion correction           -0.000277159
FINAL SINGLE POINT ENERGY      -115.732281150820

CARTESIAN COORDINATES (ANGSTROEM)
---------------------------------
  C      8.552612   -7.935893   10.071047
  O      7.574977   -7.005132    9.555671
  H      7.250363   -7.410425    8.741800
  H      8.886957   -7.615184   11.078115
  H      8.107898   -8.926959   10.312213
  H      9.505592   -8.028052    9.544466
  C     11.272091   -7.066084    6.267247
  O     10.898826   -8.066207    7.160887
  H     10.641213   -8.853591    6.664722
  H     12.077260   -7.458743    5.579053
  H     10.399957   -6.648643    5.725783
  H     11.619419   -6.256369    6.893720

 Multiplicity           Mult            ....    1
 Number of Electrons    NEL             ....   18
 Basis Dimension        Dim             ....  172

ORBITAL ENERGIES
----------------

  NO   OCC          E(Eh)            E(eV)
   0   2.0000     -19.229171      -523.2523
   1   2.0000     -10.314427      -280.6698
   2   2.0000      -1.141541       -31.0629
   3   2.0000      -0.791450       -21.5365
   4   2.0000      -0.610084       -16.6012
   5   2.0000      -0.547358       -14.8944
   6   2.0000      -0.527180       -14.3453
   7   2.0000      -0.429834       -11.6964
   8   2.0000      -0.371872       -10.1192
   9   0.0000       0.095002         2.5851
  10   0.0000       0.120924         3.2905
  11   0.0000       0.156571         4.2605
  12   0.0000       0.171876         4.6770
  13   0.0000       0.195460         5.3187

MULLIKEN ATOMIC CHARGES
-----------------------
   0 C :   -0.000916
   1 O :    0.000000
   2 H :   -0.000401
   3 H :   -0.000119
   4 H :    0.000032
   5 H :   -0.004811
   6 C :   -0.150677
   7 O :   -0.470161
   8 H :    0.313104
   9 H :    0.097233
  10 H :    0.096215
  11 H :    0.120500
Sum of atomic charges:    0.0000000

LOEWDIN ATOMIC CHARGES
----------------------
   0 C :   -0.003884
   1 O :   -0.000043
   2 H :   -0.000250
   3 H :   -0.000030
   4 H :   -0.000029
   5 H :   -0.007896
   6 C :   -0.404813
   7 O :   -0.058457
   8 H :    0.171514
   9 H :    0.101607
  10 H :    0.094924
  11 H :    0.107357

  Mayer bond orders larger than 0.1
B(  6-C ,  7-O ) :   0.9923 B(  6-C ,  9-H ) :   0.9744 B(  6-C , 10-H ) :   0.9714
B(  6-C , 11-H ) :   0.9766 B(  7-O ,  8-H ) :   0.8970

Dispersion correction           -0.000231616
FINAL SINGLE POINT ENERGY      -115.735087206774

DIPOLE MOMENT
-------------
                                X             Y             Z
Electronic contribution:     -0.42438      -1.19218       1.19438
Nuclear contribution   :      0.40935       1.08546      -1.83648
                        -----------------------------------------
Total Dipole Moment    :     -0.01503      -0.10672      -0.64209
                        -----------------------------------------
Magnitude (a.u.)       :      0.65107
Magnitude (Debye)      :      1.65489

Rotational constants in cm-1:     4.133788     0.856073     0.827649
Rotational constants in MHz : 123927.845176 25664.414949 24812.301295

                             ****ORCA TERMINATED NORMALLY****
TOTAL RUN TIME: 0 days 0 hours 0 minutes 45 seconds 497 msec
