                         Program Version 4.1.2  - RELEASE  -
|  1> #Run DFT-D3 single point of the dimer
|  2> ! wB97X-D3 def2-TZVP TIGHTSCF CHELPG PMODEL PAL8
|  3>
|  4> %base "10-3_DFT_AB"
|  5>
|  6> %scf
|  7> MaxIter 1000
|  8> end
|  9>
| 10> * xyz 0 1
| 11>   C                      -6.423069            5.566092             9.013381
| 12>   O                      -6.490406            6.939785             8.703720
| 13>   H                      -5.816488            7.100692             8.090013
| 14>   H                      -7.316964            5.205827             9.520099
| 15>   H                      -6.371598            4.942767             8.107187
| 16>   H                      -5.565183            5.306817             9.669080
| 17>   C                      -3.238889            4.918494             7.898113
| 18>   O                      -4.165077            3.808282             7.721132
| 19>   H                      -4.247115            3.385438             8.589834
| 20>   H                      -3.174638            5.307419             8.953087
| 21>   H                      -2.318098            4.611922             7.595619
| 22>   H                      -3.522041            5.704634             7.272271
| 23> *
| 24>
| 25> #Run DFT-D3 single point of the molecule with dimer basis set
| 26> $new_job
| 27> %base "10-3_DFT_A"
| 28> ! wB97X-D3 def2-TZVP TIGHTSCF CHELPG PMODEL
| 29>
| 30> %scf
| 31> MaxIter 1000
| 32> end
| 33>
| 34> * xyz 0 1
| 35>   C                      -6.423069            5.566092             9.013381
| 36>   O                      -6.490406            6.939785             8.703720
| 37>   H                      -5.816488            7.100692             8.090013
| 38>   H                      -7.316964            5.205827             9.520099
| 39>   H                      -6.371598            4.942767             8.107187
| 40>   H                      -5.565183            5.306817             9.669080
| 41>   C                    : -3.238889            4.918494             7.898113
| 42>   O                    : -4.165077            3.808282             7.721132
| 43>   H                    : -4.247115            3.385438             8.589834
| 44>   H                    : -3.174638            5.307419             8.953087
| 45>   H                    : -2.318098            4.611922             7.595619
| 46>   H                    : -3.522041            5.704634             7.272271
| 47> *
| 48>
| 49> #Run DFT-D3 single point of the particle with dimer basis set
| 50> $new_job
| 51> %base "10-3_DFT_B"
| 52> ! wB97X-D3 def2-TZVP TIGHTSCF CHELPG PMODEL
| 53>
| 54> %scf
| 55> MaxIter 1000
| 56> end
| 57>
| 58> * xyz 0 1
| 59>   C                    : -6.423069            5.566092             9.013381
| 60>   O                    : -6.490406            6.939785             8.703720
| 61>   H                    : -5.816488            7.100692             8.090013
| 62>   H                    : -7.316964            5.205827             9.520099
| 63>   H                    : -6.371598            4.942767             8.107187
| 64>   H                    : -5.565183            5.306817             9.669080
| 65>   C                      -3.238889            4.918494             7.898113
| 66>   O                      -4.165077            3.808282             7.721132
| 67>   H                      -4.247115            3.385438             8.589834
| 68>   H                      -3.174638            5.307419             8.953087
| 69>   H                      -2.318098            4.611922             7.595619
| 70>   H                      -3.522041            5.704634             7.272271
| 71> *
| 72>
| 73>                          ****END OF INPUT****
 Total Charge           Charge          ....    0
 Multiplicity           Mult            ....    1
 Number of Electrons    NEL             ....   36
Dispersion correction           -0.002461952
FINAL SINGLE POINT ENERGY      -231.464569490728
Dispersion correction           -0.000241908
FINAL SINGLE POINT ENERGY      -115.735072142484

CARTESIAN COORDINATES (ANGSTROEM)
---------------------------------
  C     -6.423069    5.566092    9.013381
  O     -6.490406    6.939785    8.703720
  H     -5.816488    7.100692    8.090013
  H     -7.316964    5.205827    9.520099
  H     -6.371598    4.942767    8.107187
  H     -5.565183    5.306817    9.669080
  C     -3.238889    4.918494    7.898113
  O     -4.165077    3.808282    7.721132
  H     -4.247115    3.385438    8.589834
  H     -3.174638    5.307419    8.953087
  H     -2.318098    4.611922    7.595619
  H     -3.522041    5.704634    7.272271

 Multiplicity           Mult            ....    1
 Number of Electrons    NEL             ....   18
 Basis Dimension        Dim             ....  172

ORBITAL ENERGIES
----------------

  NO   OCC          E(Eh)            E(eV)
   0   2.0000     -19.230626      -523.2919
   1   2.0000     -10.305738      -280.4334
   2   2.0000      -1.122265       -30.5384
   3   2.0000      -0.805355       -21.9148
   4   2.0000      -0.600290       -16.3347
   5   2.0000      -0.547079       -14.8868
   6   2.0000      -0.524685       -14.2774
   7   2.0000      -0.440385       -11.9835
   8   2.0000      -0.375900       -10.2288
   9   0.0000       0.087314         2.3759
  10   0.0000       0.132443         3.6040
  11   0.0000       0.148826         4.0498
  12   0.0000       0.172050         4.6817
  13   0.0000       0.197496         5.3741

MULLIKEN ATOMIC CHARGES
-----------------------
   0 C :    0.000296
   1 O :   -0.000651
   2 H :   -0.000515
   3 H :    0.000103
   4 H :   -0.004320
   5 H :   -0.005701
   6 C :   -0.182981
   7 O :   -0.479807
   8 H :    0.316594
   9 H :    0.108049
  10 H :    0.123290
  11 H :    0.125643
Sum of atomic charges:    0.0000000

LOEWDIN ATOMIC CHARGES
----------------------
   0 C :   -0.016636
   1 O :   -0.000126
   2 H :   -0.001115
   3 H :   -0.000137
   4 H :   -0.012285
   5 H :   -0.005267
   6 C :   -0.335789
   7 O :   -0.089268
   8 H :    0.173122
   9 H :    0.108164
  10 H :    0.081452
  11 H :    0.097884

  Mayer bond orders larger than 0.1
B(  6-C ,  7-O ) :   0.9792 B(  6-C ,  9-H ) :   0.9801 B(  6-C , 10-H ) :   0.9789
B(  6-C , 11-H ) :   0.9795 B(  7-O ,  8-H ) :   0.9010

Dispersion correction           -0.000248258
FINAL SINGLE POINT ENERGY      -115.729176248930

DIPOLE MOMENT
-------------
                                X             Y             Z
Electronic contribution:     -1.10907      -1.32010      -0.40384
Nuclear contribution   :      1.47752       1.52735       1.00109
                        -----------------------------------------
Total Dipole Moment    :      0.36845       0.20725       0.59724
                        -----------------------------------------
Magnitude (a.u.)       :      0.73172
Magnitude (Debye)      :      1.85987

Rotational constants in cm-1:     4.447383     0.803415     0.767406
Rotational constants in MHz : 133329.197774 24085.770315 23006.261859

                             ****ORCA TERMINATED NORMALLY****
TOTAL RUN TIME: 0 days 0 hours 1 minutes 5 seconds 331 msec
