                         Program Version 4.1.2  - RELEASE  -
|  1> #Run DFT-D3 single point of the dimer
|  2> ! wB97X-D3 def2-TZVP TIGHTSCF CHELPG PMODEL PAL8
|  3>
|  4> %base "7-92_DFT_AB"
|  5>
|  6> %scf
|  7> MaxIter 1000
|  8> end
|  9>
| 10> * xyz 0 1
| 11>   C                      -4.531715            -3.327488            3.855180
| 12>   O                      -5.285925            -4.508734            4.030222
| 13>   H                      -4.623814            -5.225967            3.998889
| 14>   H                      -4.056107            -3.085744            4.805620
| 15>   H                      -3.844368            -3.437728            3.013197
| 16>   H                      -5.163979            -2.483007            3.642173
| 17>   C                      -8.973832            -1.725023            0.140451
| 18>   O                      -7.958306            -1.866058            1.059234
| 19>   H                      -7.846690            -2.753810            1.444923
| 20>   H                      -9.118242            -2.696230            -0.308561
| 21>   H                      -9.973470            -1.537242            0.561683
| 22>   H                      -8.764028            -1.059650            -0.696033
| 23> *
| 24>
| 25> #Run DFT-D3 single point of the molecule with dimer basis set
| 26> $new_job
| 27> %base "7-92_DFT_A"
| 28> ! wB97X-D3 def2-TZVP TIGHTSCF CHELPG PMODEL
| 29>
| 30> %scf
| 31> MaxIter 1000
| 32> end
| 33>
| 34> * xyz 0 1
| 35>   C                      -4.531715            -3.327488            3.855180
| 36>   O                      -5.285925            -4.508734            4.030222
| 37>   H                      -4.623814            -5.225967            3.998889
| 38>   H                      -4.056107            -3.085744            4.805620
| 39>   H                      -3.844368            -3.437728            3.013197
| 40>   H                      -5.163979            -2.483007            3.642173
| 41>   C                    : -8.973832            -1.725023            0.140451
| 42>   O                    : -7.958306            -1.866058            1.059234
| 43>   H                    : -7.846690            -2.753810            1.444923
| 44>   H                    : -9.118242            -2.696230            -0.308561
| 45>   H                    : -9.973470            -1.537242            0.561683
| 46>   H                    : -8.764028            -1.059650            -0.696033
| 47> *
| 48>
| 49> #Run DFT-D3 single point of the particle with dimer basis set
| 50> $new_job
| 51> %base "7-92_DFT_B"
| 52> ! wB97X-D3 def2-TZVP TIGHTSCF CHELPG PMODEL
| 53>
| 54> %scf
| 55> MaxIter 1000
| 56> end
| 57>
| 58> * xyz 0 1
| 59>   C                    : -4.531715            -3.327488            3.855180
| 60>   O                    : -5.285925            -4.508734            4.030222
| 61>   H                    : -4.623814            -5.225967            3.998889
| 62>   H                    : -4.056107            -3.085744            4.805620
| 63>   H                    : -3.844368            -3.437728            3.013197
| 64>   H                    : -5.163979            -2.483007            3.642173
| 65>   C                      -8.973832            -1.725023            0.140451
| 66>   O                      -7.958306            -1.866058            1.059234
| 67>   H                      -7.846690            -2.753810            1.444923
| 68>   H                      -9.118242            -2.696230            -0.308561
| 69>   H                      -9.973470            -1.537242            0.561683
| 70>   H                      -8.764028            -1.059650            -0.696033
| 71> *
| 72>
| 73>                          ****END OF INPUT****
 Total Charge           Charge          ....    0
 Multiplicity           Mult            ....    1
 Number of Electrons    NEL             ....   36
Dispersion correction           -0.000785920
FINAL SINGLE POINT ENERGY      -231.464914108687
Dispersion correction           -0.000221102
FINAL SINGLE POINT ENERGY      -115.734583248094

CARTESIAN COORDINATES (ANGSTROEM)
---------------------------------
  C     -4.531715   -3.327488    3.855180
  O     -5.285925   -4.508734    4.030222
  H     -4.623814   -5.225967    3.998889
  H     -4.056107   -3.085744    4.805620
  H     -3.844368   -3.437728    3.013197
  H     -5.163979   -2.483007    3.642173
  C     -8.973832   -1.725023    0.140451
  O     -7.958306   -1.866058    1.059234
  H     -7.846690   -2.753810    1.444923
  H     -9.118242   -2.696230   -0.308561
  H     -9.973470   -1.537242    0.561683
  H     -8.764028   -1.059650   -0.696033

 Multiplicity           Mult            ....    1
 Number of Electrons    NEL             ....   18
 Basis Dimension        Dim             ....  172

ORBITAL ENERGIES
----------------

  NO   OCC          E(Eh)            E(eV)
   0   2.0000     -19.228423      -523.2320
   1   2.0000     -10.309149      -280.5262
   2   2.0000      -1.140585       -31.0369
   3   2.0000      -0.797833       -21.7101
   4   2.0000      -0.622392       -16.9362
   5   2.0000      -0.543968       -14.8021
   6   2.0000      -0.533864       -14.5272
   7   2.0000      -0.416859       -11.3433
   8   2.0000      -0.370003       -10.0683
   9   0.0000       0.083338         2.2677
  10   0.0000       0.115083         3.1316
  11   0.0000       0.149793         4.0761
  12   0.0000       0.168786         4.5929
  13   0.0000       0.200507         5.4561

MULLIKEN ATOMIC CHARGES
-----------------------
   0 C :    0.000145
   1 O :    0.000007
   2 H :   -0.000002
   3 H :   -0.000024
   4 H :    0.000039
   5 H :   -0.001041
   6 C :   -0.146382
   7 O :   -0.487202
   8 H :    0.328192
   9 H :    0.095109
  10 H :    0.091996
  11 H :    0.119162
Sum of atomic charges:    0.0000000

LOEWDIN ATOMIC CHARGES
----------------------
   0 C :   -0.000170
   1 O :   -0.000021
   2 H :   -0.000002
   3 H :   -0.000004
   4 H :   -0.000006
   5 H :   -0.000347
   6 C :   -0.413485
   7 O :   -0.060079
   8 H :    0.181033
   9 H :    0.093233
  10 H :    0.094113
  11 H :    0.105734

  Mayer bond orders larger than 0.1
B(  6-C ,  7-O ) :   1.0069 B(  6-C ,  9-H ) :   0.9951 B(  6-C , 10-H ) :   0.9701
B(  6-C , 11-H ) :   0.9691 B(  7-O ,  8-H ) :   0.8837

Dispersion correction           -0.000243590
FINAL SINGLE POINT ENERGY      -115.728779163897

DIPOLE MOMENT
-------------
                                X             Y             Z
Electronic contribution:      1.42225       0.10257       1.22329
Nuclear contribution   :     -1.73724      -0.67679      -1.35397
                        -----------------------------------------
Total Dipole Moment    :     -0.31499      -0.57422      -0.13068
                        -----------------------------------------
Magnitude (a.u.)       :      0.66785
Magnitude (Debye)      :      1.69753

Rotational constants in cm-1:     4.516929     0.850510     0.822686
Rotational constants in MHz : 135414.130269 25497.659114 24663.495679

                             ****ORCA TERMINATED NORMALLY****
TOTAL RUN TIME: 0 days 0 hours 0 minutes 49 seconds 468 msec
