                         Program Version 4.1.2  - RELEASE  -
|  1> #Run DFT-D3 single point of the dimer
|  2> ! wB97X-D3 def2-TZVP TIGHTSCF CHELPG PMODEL PAL8
|  3>
|  4> %base "20-119_DFT_AB"
|  5>
|  6> %scf
|  7> MaxIter 1000
|  8> end
|  9>
| 10> * xyz 0 1
| 11>   C                      -4.286633            7.826120             1.492004
| 12>   O                      -5.094304            8.659068             2.319935
| 13>   H                      -6.047964            8.445136             2.344196
| 14>   H                      -4.777304            7.440605             0.628035
| 15>   H                      -3.385954            8.291319             1.218376
| 16>   H                      -3.951033            6.945951             1.997395
| 17>   C                      -7.108575            6.913722             -0.857616
| 18>   O                      -5.910933            6.151993             -0.758104
| 19>   H                      -6.108608            5.514156             0.021846
| 20>   H                      -8.052278            6.348833             -0.737678
| 21>   H                      -7.212517            7.592448             -0.076732
| 22>   H                      -7.252339            7.360240             -1.857203
| 23> *
| 24>
| 25> #Run DFT-D3 single point of the molecule with dimer basis set
| 26> $new_job
| 27> %base "20-119_DFT_A"
| 28> ! wB97X-D3 def2-TZVP TIGHTSCF CHELPG PMODEL
| 29>
| 30> %scf
| 31> MaxIter 1000
| 32> end
| 33>
| 34> * xyz 0 1
| 35>   C                      -4.286633            7.826120             1.492004
| 36>   O                      -5.094304            8.659068             2.319935
| 37>   H                      -6.047964            8.445136             2.344196
| 38>   H                      -4.777304            7.440605             0.628035
| 39>   H                      -3.385954            8.291319             1.218376
| 40>   H                      -3.951033            6.945951             1.997395
| 41>   C                    : -7.108575            6.913722             -0.857616
| 42>   O                    : -5.910933            6.151993             -0.758104
| 43>   H                    : -6.108608            5.514156             0.021846
| 44>   H                    : -8.052278            6.348833             -0.737678
| 45>   H                    : -7.212517            7.592448             -0.076732
| 46>   H                    : -7.252339            7.360240             -1.857203
| 47> *
| 48>
| 49> #Run DFT-D3 single point of the particle with dimer basis set
| 50> $new_job
| 51> %base "20-119_DFT_B"
| 52> ! wB97X-D3 def2-TZVP TIGHTSCF CHELPG PMODEL
| 53>
| 54> %scf
| 55> MaxIter 1000
| 56> end
| 57>
| 58> * xyz 0 1
| 59>   C                    : -4.286633            7.826120             1.492004
| 60>   O                    : -5.094304            8.659068             2.319935
| 61>   H                    : -6.047964            8.445136             2.344196
| 62>   H                    : -4.777304            7.440605             0.628035
| 63>   H                    : -3.385954            8.291319             1.218376
| 64>   H                    : -3.951033            6.945951             1.997395
| 65>   C                      -7.108575            6.913722             -0.857616
| 66>   O                      -5.910933            6.151993             -0.758104
| 67>   H                      -6.108608            5.514156             0.021846
| 68>   H                      -8.052278            6.348833             -0.737678
| 69>   H                      -7.212517            7.592448             -0.076732
| 70>   H                      -7.252339            7.360240             -1.857203
| 71> *
| 72>
| 73>                          ****END OF INPUT****
 Total Charge           Charge          ....    0
 Multiplicity           Mult            ....    1
 Number of Electrons    NEL             ....   36
Dispersion correction           -0.002014196
FINAL SINGLE POINT ENERGY      -231.456793475991
Dispersion correction           -0.000266828
FINAL SINGLE POINT ENERGY      -115.730486480924

CARTESIAN COORDINATES (ANGSTROEM)
---------------------------------
  C     -4.286633    7.826120    1.492004
  O     -5.094304    8.659068    2.319935
  H     -6.047964    8.445136    2.344196
  H     -4.777304    7.440605    0.628035
  H     -3.385954    8.291319    1.218376
  H     -3.951033    6.945951    1.997395
  C     -7.108575    6.913722   -0.857616
  O     -5.910933    6.151993   -0.758104
  H     -6.108608    5.514156    0.021846
  H     -8.052278    6.348833   -0.737678
  H     -7.212517    7.592448   -0.076732
  H     -7.252339    7.360240   -1.857203

 Multiplicity           Mult            ....    1
 Number of Electrons    NEL             ....   18
 Basis Dimension        Dim             ....  172

ORBITAL ENERGIES
----------------

  NO   OCC          E(Eh)            E(eV)
   0   2.0000     -19.241812      -523.5963
   1   2.0000     -10.310109      -280.5523
   2   2.0000      -1.127037       -30.6682
   3   2.0000      -0.795169       -21.6377
   4   2.0000      -0.607216       -16.5232
   5   2.0000      -0.545472       -14.8430
   6   2.0000      -0.517421       -14.0797
   7   2.0000      -0.438681       -11.9371
   8   2.0000      -0.374787       -10.1985
   9   0.0000       0.085275         2.3205
  10   0.0000       0.124569         3.3897
  11   0.0000       0.144189         3.9236
  12   0.0000       0.169508         4.6126
  13   0.0000       0.195662         5.3242

MULLIKEN ATOMIC CHARGES
-----------------------
   0 C :   -0.008759
   1 O :    0.000358
   2 H :    0.000205
   3 H :   -0.000110
   4 H :   -0.001378
   5 H :    0.000285
   6 C :   -0.185954
   7 O :   -0.463196
   8 H :    0.320532
   9 H :    0.101535
  10 H :    0.113417
  11 H :    0.123063
Sum of atomic charges:   -0.0000000

LOEWDIN ATOMIC CHARGES
----------------------
   0 C :   -0.011070
   1 O :   -0.000200
   2 H :   -0.001023
   3 H :   -0.022630
   4 H :   -0.000207
   5 H :   -0.000550
   6 C :   -0.390139
   7 O :   -0.079716
   8 H :    0.211933
   9 H :    0.098088
  10 H :    0.083654
  11 H :    0.111861

  Mayer bond orders larger than 0.1
B(  6-C ,  7-O ) :   0.9986 B(  6-C ,  9-H ) :   0.9783 B(  6-C , 10-H ) :   0.9739
B(  6-C , 11-H ) :   0.9740 B(  7-O ,  8-H ) :   0.8905

Dispersion correction           -0.000243016
FINAL SINGLE POINT ENERGY      -115.726144256896

DIPOLE MOMENT
-------------
                                X             Y             Z
Electronic contribution:      1.77879      -0.83535      -0.02613
Nuclear contribution   :     -2.39216       0.73381       0.45418
                        -----------------------------------------
Total Dipole Moment    :     -0.61337      -0.10155       0.42804
                        -----------------------------------------
Magnitude (a.u.)       :      0.75482
Magnitude (Debye)      :      1.91860

Rotational constants in cm-1:     4.319956     0.821904     0.781044
Rotational constants in MHz : 129509.021100 24640.048189 23415.116359

                             ****ORCA TERMINATED NORMALLY****
TOTAL RUN TIME: 0 days 0 hours 1 minutes 7 seconds 647 msec
