                         Program Version 4.1.2  - RELEASE  -
|  1> #Run DFT-D3 single point of the dimer
|  2> ! wB97X-D3 def2-TZVP TIGHTSCF CHELPG PMODEL PAL8
|  3>
|  4> %base "6-70_DFT_AB"
|  5>
|  6> %scf
|  7> MaxIter 1000
|  8> end
|  9>
| 10> * xyz 0 1
| 11>   C                      -3.007502            9.442801             -7.537317
| 12>   O                      -3.771246            10.636848            -7.389227
| 13>   H                      -4.466168            10.347383            -6.812460
| 14>   H                      -3.662800            8.684267             -8.136335
| 15>   H                      -2.027431            9.581203             -7.950742
| 16>   H                      -2.782450            9.003005             -6.589918
| 17>   C                      -1.886991            4.244504             -6.909815
| 18>   O                      -1.190912            3.416113             -6.028511
| 19>   H                      -1.644658            2.536205             -6.252273
| 20>   H                      -1.852773            5.344287             -6.653094
| 21>   H                      -1.498968            4.146095             -7.965264
| 22>   H                      -2.923538            4.026401             -6.897862
| 23> *
| 24>
| 25> #Run DFT-D3 single point of the molecule with dimer basis set
| 26> $new_job
| 27> %base "6-70_DFT_A"
| 28> ! wB97X-D3 def2-TZVP TIGHTSCF CHELPG PMODEL
| 29>
| 30> %scf
| 31> MaxIter 1000
| 32> end
| 33>
| 34> * xyz 0 1
| 35>   C                      -3.007502            9.442801             -7.537317
| 36>   O                      -3.771246            10.636848            -7.389227
| 37>   H                      -4.466168            10.347383            -6.812460
| 38>   H                      -3.662800            8.684267             -8.136335
| 39>   H                      -2.027431            9.581203             -7.950742
| 40>   H                      -2.782450            9.003005             -6.589918
| 41>   C                    : -1.886991            4.244504             -6.909815
| 42>   O                    : -1.190912            3.416113             -6.028511
| 43>   H                    : -1.644658            2.536205             -6.252273
| 44>   H                    : -1.852773            5.344287             -6.653094
| 45>   H                    : -1.498968            4.146095             -7.965264
| 46>   H                    : -2.923538            4.026401             -6.897862
| 47> *
| 48>
| 49> #Run DFT-D3 single point of the particle with dimer basis set
| 50> $new_job
| 51> %base "6-70_DFT_B"
| 52> ! wB97X-D3 def2-TZVP TIGHTSCF CHELPG PMODEL
| 53>
| 54> %scf
| 55> MaxIter 1000
| 56> end
| 57>
| 58> * xyz 0 1
| 59>   C                    : -3.007502            9.442801             -7.537317
| 60>   O                    : -3.771246            10.636848            -7.389227
| 61>   H                    : -4.466168            10.347383            -6.812460
| 62>   H                    : -3.662800            8.684267             -8.136335
| 63>   H                    : -2.027431            9.581203             -7.950742
| 64>   H                    : -2.782450            9.003005             -6.589918
| 65>   C                      -1.886991            4.244504             -6.909815
| 66>   O                      -1.190912            3.416113             -6.028511
| 67>   H                      -1.644658            2.536205             -6.252273
| 68>   H                      -1.852773            5.344287             -6.653094
| 69>   H                      -1.498968            4.146095             -7.965264
| 70>   H                      -2.923538            4.026401             -6.897862
| 71> *
| 72>
| 73>                          ****END OF INPUT****
 Total Charge           Charge          ....    0
 Multiplicity           Mult            ....    1
 Number of Electrons    NEL             ....   36
Dispersion correction           -0.000665927
FINAL SINGLE POINT ENERGY      -231.456752022964
Dispersion correction           -0.000226279
FINAL SINGLE POINT ENERGY      -115.729019936164

CARTESIAN COORDINATES (ANGSTROEM)
---------------------------------
  C     -3.007502    9.442801   -7.537317
  O     -3.771246   10.636848   -7.389227
  H     -4.466168   10.347383   -6.812460
  H     -3.662800    8.684267   -8.136335
  H     -2.027431    9.581203   -7.950742
  H     -2.782450    9.003005   -6.589918
  C     -1.886991    4.244504   -6.909815
  O     -1.190912    3.416113   -6.028511
  H     -1.644658    2.536205   -6.252273
  H     -1.852773    5.344287   -6.653094
  H     -1.498968    4.146095   -7.965264
  H     -2.923538    4.026401   -6.897862

 Multiplicity           Mult            ....    1
 Number of Electrons    NEL             ....   18
 Basis Dimension        Dim             ....  172

ORBITAL ENERGIES
----------------

  NO   OCC          E(Eh)            E(eV)
   0   2.0000     -19.239488      -523.5331
   1   2.0000     -10.314554      -280.6733
   2   2.0000      -1.140278       -31.0285
   3   2.0000      -0.784590       -21.3498
   4   2.0000      -0.608794       -16.5661
   5   2.0000      -0.544329       -14.8119
   6   2.0000      -0.527124       -14.3438
   7   2.0000      -0.434537       -11.8244
   8   2.0000      -0.373172       -10.1545
   9   0.0000       0.083068         2.2604
  10   0.0000       0.106576         2.9001
  11   0.0000       0.141092         3.8393
  12   0.0000       0.170600         4.6423
  13   0.0000       0.187439         5.1005

MULLIKEN ATOMIC CHARGES
-----------------------
   0 C :    0.000084
   1 O :   -0.000001
   2 H :   -0.000000
   3 H :   -0.000022
   4 H :   -0.000027
   5 H :   -0.000157
   6 C :   -0.193103
   7 O :   -0.451705
   8 H :    0.320472
   9 H :    0.116023
  10 H :    0.097652
  11 H :    0.110782
Sum of atomic charges:    0.0000000

LOEWDIN ATOMIC CHARGES
----------------------
   0 C :   -0.000158
   1 O :   -0.000002
   2 H :   -0.000000
   3 H :   -0.000026
   4 H :   -0.000007
   5 H :   -0.000119
   6 C :   -0.423311
   7 O :   -0.083186
   8 H :    0.209643
   9 H :    0.112477
  10 H :    0.098574
  11 H :    0.086115

  Mayer bond orders larger than 0.1
B(  6-C ,  7-O ) :   1.0076 B(  6-C ,  9-H ) :   0.9711 B(  6-C , 10-H ) :   0.9733
B(  6-C , 11-H ) :   0.9816 B(  7-O ,  8-H ) :   0.8934

Dispersion correction           -0.000224539
FINAL SINGLE POINT ENERGY      -115.727563235243

DIPOLE MOMENT
-------------
                                X             Y             Z
Electronic contribution:      1.04590      -1.01105       1.31986
Nuclear contribution   :     -1.60403       0.78788      -1.75077
                        -----------------------------------------
Total Dipole Moment    :     -0.55813      -0.22317      -0.43090
                        -----------------------------------------
Magnitude (a.u.)       :      0.73959
Magnitude (Debye)      :      1.87988

Rotational constants in cm-1:     4.130503     0.847862     0.816033
Rotational constants in MHz : 123829.350254 25418.252743 24464.054248

                             ****ORCA TERMINATED NORMALLY****
TOTAL RUN TIME: 0 days 0 hours 1 minutes 3 seconds 699 msec
