                         Program Version 4.1.2  - RELEASE  -
|  1> #Run DFT-D3 single point of the dimer
|  2> ! wB97X-D3 def2-TZVP TIGHTSCF CHELPG PMODEL PAL8
|  3>
|  4> %base "20-63_DFT_AB"
|  5>
|  6> %scf
|  7> MaxIter 1000
|  8> end
|  9>
| 10> * xyz 0 1
| 11>   C                      0.659082             8.615269             -3.643497
| 12>   O                      0.571755             9.841283             -3.042450
| 13>   H                      0.633439             10.539445            -3.712564
| 14>   H                      1.490287             8.549697             -4.355124
| 15>   H                      0.762765             7.880298             -2.852222
| 16>   H                      -0.254403            8.351689             -4.285406
| 17>   C                      3.927429             5.685087             -3.144668
| 18>   O                      3.911771             7.097495             -3.128143
| 19>   H                      4.365504             7.379704             -3.916981
| 20>   H                      3.390142             5.395169             -4.049428
| 21>   H                      4.970226             5.248534             -3.229994
| 22>   H                      3.351720             5.171865             -2.354126
| 23> *
| 24>
| 25> #Run DFT-D3 single point of the molecule with dimer basis set
| 26> $new_job
| 27> %base "20-63_DFT_A"
| 28> ! wB97X-D3 def2-TZVP TIGHTSCF CHELPG PMODEL
| 29>
| 30> %scf
| 31> MaxIter 1000
| 32> end
| 33>
| 34> * xyz 0 1
| 35>   C                      0.659082             8.615269             -3.643497
| 36>   O                      0.571755             9.841283             -3.042450
| 37>   H                      0.633439             10.539445            -3.712564
| 38>   H                      1.490287             8.549697             -4.355124
| 39>   H                      0.762765             7.880298             -2.852222
| 40>   H                      -0.254403            8.351689             -4.285406
| 41>   C                    : 3.927429             5.685087             -3.144668
| 42>   O                    : 3.911771             7.097495             -3.128143
| 43>   H                    : 4.365504             7.379704             -3.916981
| 44>   H                    : 3.390142             5.395169             -4.049428
| 45>   H                    : 4.970226             5.248534             -3.229994
| 46>   H                    : 3.351720             5.171865             -2.354126
| 47> *
| 48>
| 49> #Run DFT-D3 single point of the particle with dimer basis set
| 50> $new_job
| 51> %base "20-63_DFT_B"
| 52> ! wB97X-D3 def2-TZVP TIGHTSCF CHELPG PMODEL
| 53>
| 54> %scf
| 55> MaxIter 1000
| 56> end
| 57>
| 58> * xyz 0 1
| 59>   C                    : 0.659082             8.615269             -3.643497
| 60>   O                    : 0.571755             9.841283             -3.042450
| 61>   H                    : 0.633439             10.539445            -3.712564
| 62>   H                    : 1.490287             8.549697             -4.355124
| 63>   H                    : 0.762765             7.880298             -2.852222
| 64>   H                    : -0.254403            8.351689             -4.285406
| 65>   C                      3.927429             5.685087             -3.144668
| 66>   O                      3.911771             7.097495             -3.128143
| 67>   H                      4.365504             7.379704             -3.916981
| 68>   H                      3.390142             5.395169             -4.049428
| 69>   H                      4.970226             5.248534             -3.229994
| 70>   H                      3.351720             5.171865             -2.354126
| 71> *
| 72>
| 73>                          ****END OF INPUT****
 Total Charge           Charge          ....    0
 Multiplicity           Mult            ....    1
 Number of Electrons    NEL             ....   36
Dispersion correction           -0.001420441
FINAL SINGLE POINT ENERGY      -231.466018651989
Dispersion correction           -0.000234560
FINAL SINGLE POINT ENERGY      -115.734266173803

CARTESIAN COORDINATES (ANGSTROEM)
---------------------------------
  C      0.659082    8.615269   -3.643497
  O      0.571755    9.841283   -3.042450
  H      0.633439   10.539445   -3.712564
  H      1.490287    8.549697   -4.355124
  H      0.762765    7.880298   -2.852222
  H     -0.254403    8.351689   -4.285406
  C      3.927429    5.685087   -3.144668
  O      3.911771    7.097495   -3.128143
  H      4.365504    7.379704   -3.916981
  H      3.390142    5.395169   -4.049428
  H      4.970226    5.248534   -3.229994
  H      3.351720    5.171865   -2.354126

 Multiplicity           Mult            ....    1
 Number of Electrons    NEL             ....   18
 Basis Dimension        Dim             ....  172

ORBITAL ENERGIES
----------------

  NO   OCC          E(Eh)            E(eV)
   0   2.0000     -19.231823      -523.3245
   1   2.0000     -10.318658      -280.7850
   2   2.0000      -1.140824       -31.0434
   3   2.0000      -0.792882       -21.5754
   4   2.0000      -0.610806       -16.6209
   5   2.0000      -0.540173       -14.6989
   6   2.0000      -0.532178       -14.4813
   7   2.0000      -0.432967       -11.7816
   8   2.0000      -0.371721       -10.1150
   9   0.0000       0.092204         2.5090
  10   0.0000       0.120813         3.2875
  11   0.0000       0.149144         4.0584
  12   0.0000       0.176355         4.7989
  13   0.0000       0.190699         5.1892

MULLIKEN ATOMIC CHARGES
-----------------------
   0 C :    0.004532
   1 O :   -0.000140
   2 H :   -0.000042
   3 H :   -0.008381
   4 H :   -0.001642
   5 H :   -0.000350
   6 C :   -0.180703
   7 O :   -0.463301
   8 H :    0.317506
   9 H :    0.105382
  10 H :    0.101428
  11 H :    0.125711
Sum of atomic charges:    0.0000000

LOEWDIN ATOMIC CHARGES
----------------------
   0 C :   -0.005940
   1 O :   -0.000011
   2 H :   -0.000006
   3 H :   -0.003888
   4 H :   -0.001530
   5 H :   -0.000055
   6 C :   -0.397067
   7 O :   -0.065801
   8 H :    0.167655
   9 H :    0.094479
  10 H :    0.101198
  11 H :    0.110967

  Mayer bond orders larger than 0.1
B(  6-C ,  7-O ) :   0.9872 B(  6-C ,  9-H ) :   0.9870 B(  6-C , 10-H ) :   0.9698
B(  6-C , 11-H ) :   0.9699 B(  7-O ,  8-H ) :   0.8971

Dispersion correction           -0.000236593
FINAL SINGLE POINT ENERGY      -115.731556245717

DIPOLE MOMENT
-------------
                                X             Y             Z
Electronic contribution:     -0.05597       1.87550       0.31476
Nuclear contribution   :      0.33076      -2.26320      -0.82743
                        -----------------------------------------
Total Dipole Moment    :      0.27478      -0.38770      -0.51267
                        -----------------------------------------
Magnitude (a.u.)       :      0.69903
Magnitude (Debye)      :      1.77681

Rotational constants in cm-1:     4.271071     0.827782     0.796820
Rotational constants in MHz : 128043.485184 24816.290227 23888.048276

                             ****ORCA TERMINATED NORMALLY****
TOTAL RUN TIME: 0 days 0 hours 1 minutes 4 seconds 344 msec
