                         Program Version 4.1.2  - RELEASE  -
|  1> #Run DFT geometry optimization
|  2> ! wB97X-D3 def2-TZVP TIGHTSCF Grid5 FinalGrid6 Opt CHELPG PAL4
|  3>
|  4> %base "5_geo_opt"
|  5> %geom MaxIter 500
|  6> end
|  7>
|  8> %geom
|  9>   Constraints
| 10>     { B 2 1 C }
| 11>   end
| 12> end
| 13>
| 14>
| 15> * xyz 0 1
| 16>   C                    3.011308             -1.180897            0.598492
| 17>   O                    4.394673             -1.128050            0.874308
| 18>   H                    4.772196             -0.379022            0.412493
| 19>   H                    2.806434             -1.318965            -0.469350
| 20>   H                    2.611632             -2.040265            1.135898
| 21>   H                    2.484757             -0.284491            0.945659
| 22> *
| 23>
| 24>                          ****END OF INPUT****
 Total Charge           Charge          ....    0
 Multiplicity           Mult            ....    1
 Number of Electrons    NEL             ....   18
Dispersion correction           -0.000239267
FINAL SINGLE POINT ENERGY      -115.738051352966
Dispersion correction            ... done
                    ***********************HURRAY********************

CARTESIAN COORDINATES (ANGSTROEM)
---------------------------------
  C      3.011358   -1.180930    0.598524
  O      4.394694   -1.128031    0.874284
  H      4.772189   -0.378982    0.412481
  H      2.806445   -1.318974   -0.469317
  H      2.611528   -2.040255    1.135872
  H      2.484786   -0.284518    0.945656

 Multiplicity           Mult            ....    1
 Number of Electrons    NEL             ....   18
 Basis Dimension        Dim             ....   86

ORBITAL ENERGIES
----------------

  NO   OCC          E(Eh)            E(eV)
   0   2.0000     -19.228082      -523.2227
   1   2.0000     -10.315109      -280.6884
   2   2.0000      -1.136809       -30.9342
   3   2.0000      -0.795344       -21.6424
   4   2.0000      -0.611597       -16.6424
   5   2.0000      -0.541770       -14.7423
   6   2.0000      -0.526337       -14.3224
   7   2.0000      -0.433790       -11.8040
   8   2.0000      -0.373604       -10.1663
   9   0.0000       0.116643         3.1740
  10   0.0000       0.156675         4.2633
  11   0.0000       0.202579         5.5125
  12   0.0000       0.205116         5.5815
  13   0.0000       0.226371         6.1599

MULLIKEN ATOMIC CHARGES
-----------------------
   0 C :   -0.150853
   1 O :   -0.477639
   2 H :    0.313018
   3 H :    0.098622
   4 H :    0.118226
   5 H :    0.098626
Sum of atomic charges:    0.0000000

LOEWDIN ATOMIC CHARGES
----------------------
   0 C :   -0.385192
   1 O :   -0.076077
   2 H :    0.165792
   3 H :    0.093396
   4 H :    0.108687
   5 H :    0.093394

  Mayer bond orders larger than 0.1
B(  0-C ,  1-O ) :   0.9987 B(  0-C ,  3-H ) :   0.9755 B(  0-C ,  4-H ) :   0.9749
B(  0-C ,  5-H ) :   0.9755 B(  1-O ,  2-H ) :   0.9002

Dispersion correction           -0.000239265
FINAL SINGLE POINT ENERGY      -115.738051368677

DIPOLE MOMENT
-------------
                                X             Y             Z
Electronic contribution:      1.75606      -0.02826       0.41983
Nuclear contribution   :     -2.06583       0.47584      -0.81745
                        -----------------------------------------
Total Dipole Moment    :     -0.30978       0.44758      -0.39763
                        -----------------------------------------
Magnitude (a.u.)       :      0.67409
Magnitude (Debye)      :      1.71340

Rotational constants in cm-1:     4.293004     0.833818     0.804927
Rotational constants in MHz : 128701.019443 24997.224912 24131.100636

                             ****ORCA TERMINATED NORMALLY****
TOTAL RUN TIME: 0 days 0 hours 0 minutes 36 seconds 323 msec
