                         Program Version 4.1.2  - RELEASE  -
|  1> #Run DFT-D3 single point of the dimer
|  2> ! wB97X-D3 def2-TZVP TIGHTSCF CHELPG PMODEL PAL8
|  3>
|  4> %base "2-113_DFT_AB"
|  5>
|  6> %scf
|  7> MaxIter 1000
|  8> end
|  9>
| 10> * xyz 0 1
| 11>   C                      -9.194448            -7.165680            8.606012
| 12>   O                      -9.483807            -8.443194            7.922237
| 13>   H                      -8.780202            -9.018449            8.087057
| 14>   H                      -8.510834            -6.560886            7.980636
| 15>   H                      -10.076085           -6.566288            8.744051
| 16>   H                      -8.775180            -7.380842            9.649389
| 17>   C                      -7.182048            -8.914908            3.368324
| 18>   O                      -6.336244            -8.077755            4.031345
| 19>   H                      -5.764151            -7.687476            3.377439
| 20>   H                      -8.127755            -8.413409            3.198987
| 21>   H                      -6.764241            -9.326765            2.460549
| 22>   H                      -7.566545            -9.683697            3.982529
| 23> *
| 24>
| 25> #Run DFT-D3 single point of the molecule with dimer basis set
| 26> $new_job
| 27> %base "2-113_DFT_A"
| 28> ! wB97X-D3 def2-TZVP TIGHTSCF CHELPG PMODEL
| 29>
| 30> %scf
| 31> MaxIter 1000
| 32> end
| 33>
| 34> * xyz 0 1
| 35>   C                      -9.194448            -7.165680            8.606012
| 36>   O                      -9.483807            -8.443194            7.922237
| 37>   H                      -8.780202            -9.018449            8.087057
| 38>   H                      -8.510834            -6.560886            7.980636
| 39>   H                      -10.076085           -6.566288            8.744051
| 40>   H                      -8.775180            -7.380842            9.649389
| 41>   C                    : -7.182048            -8.914908            3.368324
| 42>   O                    : -6.336244            -8.077755            4.031345
| 43>   H                    : -5.764151            -7.687476            3.377439
| 44>   H                    : -8.127755            -8.413409            3.198987
| 45>   H                    : -6.764241            -9.326765            2.460549
| 46>   H                    : -7.566545            -9.683697            3.982529
| 47> *
| 48>
| 49> #Run DFT-D3 single point of the particle with dimer basis set
| 50> $new_job
| 51> %base "2-113_DFT_B"
| 52> ! wB97X-D3 def2-TZVP TIGHTSCF CHELPG PMODEL
| 53>
| 54> %scf
| 55> MaxIter 1000
| 56> end
| 57>
| 58> * xyz 0 1
| 59>   C                    : -9.194448            -7.165680            8.606012
| 60>   O                    : -9.483807            -8.443194            7.922237
| 61>   H                    : -8.780202            -9.018449            8.087057
| 62>   H                    : -8.510834            -6.560886            7.980636
| 63>   H                    : -10.076085           -6.566288            8.744051
| 64>   H                    : -8.775180            -7.380842            9.649389
| 65>   C                      -7.182048            -8.914908            3.368324
| 66>   O                      -6.336244            -8.077755            4.031345
| 67>   H                      -5.764151            -7.687476            3.377439
| 68>   H                      -8.127755            -8.413409            3.198987
| 69>   H                      -6.764241            -9.326765            2.460549
| 70>   H                      -7.566545            -9.683697            3.982529
| 71> *
| 72>
| 73>                          ****END OF INPUT****
 Total Charge           Charge          ....    0
 Multiplicity           Mult            ....    1
 Number of Electrons    NEL             ....   36
Dispersion correction           -0.000693903
FINAL SINGLE POINT ENERGY      -231.460085989591
Dispersion correction           -0.000270809
FINAL SINGLE POINT ENERGY      -115.730515907914

CARTESIAN COORDINATES (ANGSTROEM)
---------------------------------
  C     -9.194448   -7.165680    8.606012
  O     -9.483807   -8.443194    7.922237
  H     -8.780202   -9.018449    8.087057
  H     -8.510834   -6.560886    7.980636
  H    -10.076085   -6.566288    8.744051
  H     -8.775180   -7.380842    9.649389
  C     -7.182048   -8.914908    3.368324
  O     -6.336244   -8.077755    4.031345
  H     -5.764151   -7.687476    3.377439
  H     -8.127755   -8.413409    3.198987
  H     -6.764241   -9.326765    2.460549
  H     -7.566545   -9.683697    3.982529

 Multiplicity           Mult            ....    1
 Number of Electrons    NEL             ....   18
 Basis Dimension        Dim             ....  172

ORBITAL ENERGIES
----------------

  NO   OCC          E(Eh)            E(eV)
   0   2.0000     -19.228878      -523.2444
   1   2.0000     -10.300458      -280.2897
   2   2.0000      -1.154985       -31.4288
   3   2.0000      -0.800139       -21.7729
   4   2.0000      -0.622138       -16.9292
   5   2.0000      -0.552112       -15.0237
   6   2.0000      -0.535538       -14.5727
   7   2.0000      -0.435727       -11.8567
   8   2.0000      -0.365499        -9.9457
   9   0.0000       0.091657         2.4941
  10   0.0000       0.116635         3.1738
  11   0.0000       0.154513         4.2045
  12   0.0000       0.171358         4.6629
  13   0.0000       0.199140         5.4189

MULLIKEN ATOMIC CHARGES
-----------------------
   0 C :    0.000100
   1 O :   -0.000002
   2 H :   -0.000017
   3 H :   -0.000217
   4 H :   -0.000005
   5 H :   -0.000003
   6 C :   -0.155704
   7 O :   -0.456551
   8 H :    0.316473
   9 H :    0.089456
  10 H :    0.095822
  11 H :    0.110648
Sum of atomic charges:   -0.0000000

LOEWDIN ATOMIC CHARGES
----------------------
   0 C :   -0.000015
   1 O :   -0.000006
   2 H :   -0.000013
   3 H :   -0.000060
   4 H :   -0.000000
   5 H :   -0.000000
   6 C :   -0.424070
   7 O :   -0.033079
   8 H :    0.171206
   9 H :    0.093852
  10 H :    0.093529
  11 H :    0.098657

  Mayer bond orders larger than 0.1
B(  6-C ,  7-O ) :   1.0187 B(  6-C ,  9-H ) :   0.9830 B(  6-C , 10-H ) :   0.9857
B(  6-C , 11-H ) :   0.9760 B(  7-O ,  8-H ) :   0.9004

Dispersion correction           -0.000217105
FINAL SINGLE POINT ENERGY      -115.729048221525

DIPOLE MOMENT
-------------
                                X             Y             Z
Electronic contribution:      1.22000       1.03907       0.95606
Nuclear contribution   :     -1.16425      -1.11303      -1.60940
                        -----------------------------------------
Total Dipole Moment    :      0.05575      -0.07397      -0.65333
                        -----------------------------------------
Magnitude (a.u.)       :      0.65986
Magnitude (Debye)      :      1.67724

Rotational constants in cm-1:     4.505541     0.891217     0.846643
Rotational constants in MHz : 135072.732419 26718.015121 25381.706609

                             ****ORCA TERMINATED NORMALLY****
TOTAL RUN TIME: 0 days 0 hours 5 minutes 58 seconds 924 msec
