                         Program Version 4.1.2  - RELEASE  -
|  1> #Run DFT-D3 single point of the dimer
|  2> ! wB97X-D3 def2-TZVP TIGHTSCF CHELPG PMODEL PAL8
|  3>
|  4> %base "15-139_DFT_AB"
|  5>
|  6> %scf
|  7> MaxIter 1000
|  8> end
|  9>
| 10> * xyz 0 1
| 11>   C                      0.539348             -7.166168            0.517284
| 12>   O                      0.719637             -6.836601            -0.852378
| 13>   H                      -0.086676            -6.402254            -1.195676
| 14>   H                      1.415332             -7.554984            1.038854
| 15>   H                      0.234247             -6.288057            1.056190
| 16>   H                      -0.304731            -7.862906            0.678743
| 17>   C                      4.268926             -7.873834            -1.842682
| 18>   O                      2.993519             -8.521411            -1.414708
| 19>   H                      2.287486             -7.827666            -1.424785
| 20>   H                      5.038802             -8.653786            -1.944165
| 21>   H                      4.142344             -7.402287            -2.866896
| 22>   H                      4.547688             -7.102339            -1.118456
| 23> *
| 24>
| 25> #Run DFT-D3 single point of the molecule with dimer basis set
| 26> $new_job
| 27> %base "15-139_DFT_A"
| 28> ! wB97X-D3 def2-TZVP TIGHTSCF CHELPG PMODEL
| 29>
| 30> %scf
| 31> MaxIter 1000
| 32> end
| 33>
| 34> * xyz 0 1
| 35>   C                      0.539348             -7.166168            0.517284
| 36>   O                      0.719637             -6.836601            -0.852378
| 37>   H                      -0.086676            -6.402254            -1.195676
| 38>   H                      1.415332             -7.554984            1.038854
| 39>   H                      0.234247             -6.288057            1.056190
| 40>   H                      -0.304731            -7.862906            0.678743
| 41>   C                    : 4.268926             -7.873834            -1.842682
| 42>   O                    : 2.993519             -8.521411            -1.414708
| 43>   H                    : 2.287486             -7.827666            -1.424785
| 44>   H                    : 5.038802             -8.653786            -1.944165
| 45>   H                    : 4.142344             -7.402287            -2.866896
| 46>   H                    : 4.547688             -7.102339            -1.118456
| 47> *
| 48>
| 49> #Run DFT-D3 single point of the particle with dimer basis set
| 50> $new_job
| 51> %base "15-139_DFT_B"
| 52> ! wB97X-D3 def2-TZVP TIGHTSCF CHELPG PMODEL
| 53>
| 54> %scf
| 55> MaxIter 1000
| 56> end
| 57>
| 58> * xyz 0 1
| 59>   C                    : 0.539348             -7.166168            0.517284
| 60>   O                    : 0.719637             -6.836601            -0.852378
| 61>   H                    : -0.086676            -6.402254            -1.195676
| 62>   H                    : 1.415332             -7.554984            1.038854
| 63>   H                    : 0.234247             -6.288057            1.056190
| 64>   H                    : -0.304731            -7.862906            0.678743
| 65>   C                      4.268926             -7.873834            -1.842682
| 66>   O                      2.993519             -8.521411            -1.414708
| 67>   H                      2.287486             -7.827666            -1.424785
| 68>   H                      5.038802             -8.653786            -1.944165
| 69>   H                      4.142344             -7.402287            -2.866896
| 70>   H                      4.547688             -7.102339            -1.118456
| 71> *
| 72>
| 73>                          ****END OF INPUT****
 Total Charge           Charge          ....    0
 Multiplicity           Mult            ....    1
 Number of Electrons    NEL             ....   36
Dispersion correction           -0.001704676
FINAL SINGLE POINT ENERGY      -231.473971554705
Dispersion correction           -0.000245592
FINAL SINGLE POINT ENERGY      -115.733231048877

CARTESIAN COORDINATES (ANGSTROEM)
---------------------------------
  C      0.539348   -7.166168    0.517284
  O      0.719637   -6.836601   -0.852378
  H     -0.086676   -6.402254   -1.195676
  H      1.415332   -7.554984    1.038854
  H      0.234247   -6.288057    1.056190
  H     -0.304731   -7.862906    0.678743
  C      4.268926   -7.873834   -1.842682
  O      2.993519   -8.521411   -1.414708
  H      2.287486   -7.827666   -1.424785
  H      5.038802   -8.653786   -1.944165
  H      4.142344   -7.402287   -2.866896
  H      4.547688   -7.102339   -1.118456

 Multiplicity           Mult            ....    1
 Number of Electrons    NEL             ....   18
 Basis Dimension        Dim             ....  172

ORBITAL ENERGIES
----------------

  NO   OCC          E(Eh)            E(eV)
   0   2.0000     -19.232626      -523.3464
   1   2.0000     -10.326078      -280.9869
   2   2.0000      -1.108287       -30.1580
   3   2.0000      -0.792461       -21.5640
   4   2.0000      -0.591135       -16.0856
   5   2.0000      -0.535604       -14.5745
   6   2.0000      -0.516506       -14.0548
   7   2.0000      -0.436957       -11.8902
   8   2.0000      -0.375036       -10.2052
   9   0.0000       0.074358         2.0234
  10   0.0000       0.129224         3.5164
  11   0.0000       0.148023         4.0279
  12   0.0000       0.161936         4.4065
  13   0.0000       0.190604         5.1866

MULLIKEN ATOMIC CHARGES
-----------------------
   0 C :   -0.001855
   1 O :   -0.001846
   2 H :   -0.000174
   3 H :   -0.005210
   4 H :    0.000039
   5 H :   -0.000099
   6 C :   -0.180756
   7 O :   -0.480927
   8 H :    0.312307
   9 H :    0.128878
  10 H :    0.110962
  11 H :    0.118681
Sum of atomic charges:    0.0000000

LOEWDIN ATOMIC CHARGES
----------------------
   0 C :   -0.009187
   1 O :   -0.020133
   2 H :   -0.000874
   3 H :   -0.003515
   4 H :   -0.000108
   5 H :   -0.000151
   6 C :   -0.336558
   7 O :   -0.132074
   8 H :    0.191023
   9 H :    0.110097
  10 H :    0.104335
  11 H :    0.097145

  Mayer bond orders larger than 0.1
B(  6-C ,  7-O ) :   0.9880 B(  6-C ,  9-H ) :   0.9713 B(  6-C , 10-H ) :   0.9756
B(  6-C , 11-H ) :   0.9676 B(  7-O ,  8-H ) :   0.9011

Dispersion correction           -0.000276328
FINAL SINGLE POINT ENERGY      -115.732355781125

DIPOLE MOMENT
-------------
                                X             Y             Z
Electronic contribution:     -1.37089      -0.92957       0.58420
Nuclear contribution   :      1.51205       1.62604      -0.78529
                        -----------------------------------------
Total Dipole Moment    :      0.14116       0.69646      -0.20110
                        -----------------------------------------
Magnitude (a.u.)       :      0.73853
Magnitude (Debye)      :      1.87720

Rotational constants in cm-1:     4.077240     0.760097     0.734040
Rotational constants in MHz : 122232.575511 22787.127137 22005.971438

                             ****ORCA TERMINATED NORMALLY****
TOTAL RUN TIME: 0 days 0 hours 1 minutes 3 seconds 291 msec
