                         Program Version 4.1.2  - RELEASE  -
|  1> #Run DFT-D3 single point of the dimer
|  2> ! wB97X-D3 def2-TZVP TIGHTSCF CHELPG PMODEL PAL8
|  3>
|  4> %base "8-178_DFT_AB"
|  5>
|  6> %scf
|  7> MaxIter 1000
|  8> end
|  9>
| 10> * xyz 0 1
| 11>   C                      11.272091            -7.066084            6.267247
| 12>   O                      10.898826            -8.066207            7.160887
| 13>   H                      10.641213            -8.853591            6.664722
| 14>   H                      12.077260            -7.458743            5.579053
| 15>   H                      10.399957            -6.648643            5.725783
| 16>   H                      11.619419            -6.256369            6.893720
| 17>   C                      6.764283             -9.797262            4.796798
| 18>   O                      7.854235             -9.253086            5.558836
| 19>   H                      8.440373             -8.669675            5.044567
| 20>   H                      6.126712             -10.337744           5.499328
| 21>   H                      6.264568             -8.981207            4.208230
| 22>   H                      7.082795             -10.555114           4.057515
| 23> *
| 24>
| 25> #Run DFT-D3 single point of the molecule with dimer basis set
| 26> $new_job
| 27> %base "8-178_DFT_A"
| 28> ! wB97X-D3 def2-TZVP TIGHTSCF CHELPG PMODEL
| 29>
| 30> %scf
| 31> MaxIter 1000
| 32> end
| 33>
| 34> * xyz 0 1
| 35>   C                      11.272091            -7.066084            6.267247
| 36>   O                      10.898826            -8.066207            7.160887
| 37>   H                      10.641213            -8.853591            6.664722
| 38>   H                      12.077260            -7.458743            5.579053
| 39>   H                      10.399957            -6.648643            5.725783
| 40>   H                      11.619419            -6.256369            6.893720
| 41>   C                    : 6.764283             -9.797262            4.796798
| 42>   O                    : 7.854235             -9.253086            5.558836
| 43>   H                    : 8.440373             -8.669675            5.044567
| 44>   H                    : 6.126712             -10.337744           5.499328
| 45>   H                    : 6.264568             -8.981207            4.208230
| 46>   H                    : 7.082795             -10.555114           4.057515
| 47> *
| 48>
| 49> #Run DFT-D3 single point of the particle with dimer basis set
| 50> $new_job
| 51> %base "8-178_DFT_B"
| 52> ! wB97X-D3 def2-TZVP TIGHTSCF CHELPG PMODEL
| 53>
| 54> %scf
| 55> MaxIter 1000
| 56> end
| 57>
| 58> * xyz 0 1
| 59>   C                    : 11.272091            -7.066084            6.267247
| 60>   O                    : 10.898826            -8.066207            7.160887
| 61>   H                    : 10.641213            -8.853591            6.664722
| 62>   H                    : 12.077260            -7.458743            5.579053
| 63>   H                    : 10.399957            -6.648643            5.725783
| 64>   H                    : 11.619419            -6.256369            6.893720
| 65>   C                      6.764283             -9.797262            4.796798
| 66>   O                      7.854235             -9.253086            5.558836
| 67>   H                      8.440373             -8.669675            5.044567
| 68>   H                      6.126712             -10.337744           5.499328
| 69>   H                      6.264568             -8.981207            4.208230
| 70>   H                      7.082795             -10.555114           4.057515
| 71> *
| 72>
| 73>                          ****END OF INPUT****
 Total Charge           Charge          ....    0
 Multiplicity           Mult            ....    1
 Number of Electrons    NEL             ....   36
Dispersion correction           -0.001347453
FINAL SINGLE POINT ENERGY      -231.469751416393
Dispersion correction           -0.000231616
FINAL SINGLE POINT ENERGY      -115.735082642620

CARTESIAN COORDINATES (ANGSTROEM)
---------------------------------
  C     11.272091   -7.066084    6.267247
  O     10.898826   -8.066207    7.160887
  H     10.641213   -8.853591    6.664722
  H     12.077260   -7.458743    5.579053
  H     10.399957   -6.648643    5.725783
  H     11.619419   -6.256369    6.893720
  C      6.764283   -9.797262    4.796798
  O      7.854235   -9.253086    5.558836
  H      8.440373   -8.669675    5.044567
  H      6.126712  -10.337744    5.499328
  H      6.264568   -8.981207    4.208230
  H      7.082795  -10.555114    4.057515

 Multiplicity           Mult            ....    1
 Number of Electrons    NEL             ....   18
 Basis Dimension        Dim             ....  172

ORBITAL ENERGIES
----------------

  NO   OCC          E(Eh)            E(eV)
   0   2.0000     -19.228824      -523.2429
   1   2.0000     -10.320487      -280.8347
   2   2.0000      -1.122839       -30.5540
   3   2.0000      -0.794687       -21.6245
   4   2.0000      -0.606251       -16.4969
   5   2.0000      -0.537155       -14.6167
   6   2.0000      -0.521389       -14.1877
   7   2.0000      -0.430863       -11.7244
   8   2.0000      -0.370906       -10.0929
   9   0.0000       0.081429         2.2158
  10   0.0000       0.125334         3.4105
  11   0.0000       0.150928         4.1070
  12   0.0000       0.177077         4.8185
  13   0.0000       0.195111         5.3092

MULLIKEN ATOMIC CHARGES
-----------------------
   0 C :   -0.000018
   1 O :    0.000352
   2 H :   -0.003572
   3 H :    0.000030
   4 H :   -0.000487
   5 H :    0.000003
   6 C :   -0.157894
   7 O :   -0.490360
   8 H :    0.318252
   9 H :    0.125979
  10 H :    0.104588
  11 H :    0.103127
Sum of atomic charges:   -0.0000000

LOEWDIN ATOMIC CHARGES
----------------------
   0 C :   -0.000892
   1 O :   -0.000383
   2 H :   -0.003565
   3 H :   -0.000011
   4 H :   -0.000660
   5 H :   -0.000006
   6 C :   -0.370126
   7 O :   -0.102325
   8 H :    0.172408
   9 H :    0.109591
  10 H :    0.101148
  11 H :    0.094819

  Mayer bond orders larger than 0.1
B(  6-C ,  7-O ) :   0.9918 B(  6-C ,  9-H ) :   0.9729 B(  6-C , 10-H ) :   0.9768
B(  6-C , 11-H ) :   0.9697 B(  7-O ,  8-H ) :   0.8918

Dispersion correction           -0.000268595
FINAL SINGLE POINT ENERGY      -115.734046399700

DIPOLE MOMENT
-------------
                                X             Y             Z
Electronic contribution:      1.24807       0.62072       1.08279
Nuclear contribution   :     -1.33155      -0.48670      -1.73171
                        -----------------------------------------
Total Dipole Moment    :     -0.08348       0.13402      -0.64892
                        -----------------------------------------
Magnitude (a.u.)       :      0.66785
Magnitude (Debye)      :      1.69754

Rotational constants in cm-1:     4.222107     0.805905     0.771815
Rotational constants in MHz : 126575.598386 24160.418772 23138.432615

                             ****ORCA TERMINATED NORMALLY****
TOTAL RUN TIME: 0 days 0 hours 0 minutes 40 seconds 774 msec
