                         Program Version 4.1.2  - RELEASE  -
|  1> #Run DFT-D3 single point of the dimer
|  2> ! wB97X-D3 def2-TZVP TIGHTSCF CHELPG PMODEL PAL8
|  3>
|  4> %base "12-135_DFT_AB"
|  5>
|  6> %scf
|  7> MaxIter 1000
|  8> end
|  9>
| 10> * xyz 0 1
| 11>   C                      3.937609             6.089715             5.121929
| 12>   O                      4.894966             6.938586             4.500561
| 13>   H                      5.624434             6.969971             5.126123
| 14>   H                      3.038266             5.905496             4.475867
| 15>   H                      4.311928             5.107801             5.271609
| 16>   H                      3.625862             6.468092             6.095905
| 17>   C                      2.788778             7.113822             10.181854
| 18>   O                      3.801655             6.976364             9.220775
| 19>   H                      4.465584             6.400968             9.529224
| 20>   H                      2.109126             6.241315             10.280435
| 21>   H                      3.263922             7.233564             11.141851
| 22>   H                      2.128043             7.959936             9.959660
| 23> *
| 24>
| 25> #Run DFT-D3 single point of the molecule with dimer basis set
| 26> $new_job
| 27> %base "12-135_DFT_A"
| 28> ! wB97X-D3 def2-TZVP TIGHTSCF CHELPG PMODEL
| 29>
| 30> %scf
| 31> MaxIter 1000
| 32> end
| 33>
| 34> * xyz 0 1
| 35>   C                      3.937609             6.089715             5.121929
| 36>   O                      4.894966             6.938586             4.500561
| 37>   H                      5.624434             6.969971             5.126123
| 38>   H                      3.038266             5.905496             4.475867
| 39>   H                      4.311928             5.107801             5.271609
| 40>   H                      3.625862             6.468092             6.095905
| 41>   C                    : 2.788778             7.113822             10.181854
| 42>   O                    : 3.801655             6.976364             9.220775
| 43>   H                    : 4.465584             6.400968             9.529224
| 44>   H                    : 2.109126             6.241315             10.280435
| 45>   H                    : 3.263922             7.233564             11.141851
| 46>   H                    : 2.128043             7.959936             9.959660
| 47> *
| 48>
| 49> #Run DFT-D3 single point of the particle with dimer basis set
| 50> $new_job
| 51> %base "12-135_DFT_B"
| 52> ! wB97X-D3 def2-TZVP TIGHTSCF CHELPG PMODEL
| 53>
| 54> %scf
| 55> MaxIter 1000
| 56> end
| 57>
| 58> * xyz 0 1
| 59>   C                    : 3.937609             6.089715             5.121929
| 60>   O                    : 4.894966             6.938586             4.500561
| 61>   H                    : 5.624434             6.969971             5.126123
| 62>   H                    : 3.038266             5.905496             4.475867
| 63>   H                    : 4.311928             5.107801             5.271609
| 64>   H                    : 3.625862             6.468092             6.095905
| 65>   C                      2.788778             7.113822             10.181854
| 66>   O                      3.801655             6.976364             9.220775
| 67>   H                      4.465584             6.400968             9.529224
| 68>   H                      2.109126             6.241315             10.280435
| 69>   H                      3.263922             7.233564             11.141851
| 70>   H                      2.128043             7.959936             9.959660
| 71> *
| 72>
| 73>                          ****END OF INPUT****
 Total Charge           Charge          ....    0
 Multiplicity           Mult            ....    1
 Number of Electrons    NEL             ....   36
Dispersion correction           -0.000953415
FINAL SINGLE POINT ENERGY      -231.469683456743
Dispersion correction           -0.000234757
FINAL SINGLE POINT ENERGY      -115.733930588762

CARTESIAN COORDINATES (ANGSTROEM)
---------------------------------
  C      3.937609    6.089715    5.121929
  O      4.894966    6.938586    4.500561
  H      5.624434    6.969971    5.126123
  H      3.038266    5.905496    4.475867
  H      4.311928    5.107801    5.271609
  H      3.625862    6.468092    6.095905
  C      2.788778    7.113822   10.181854
  O      3.801655    6.976364    9.220775
  H      4.465584    6.400968    9.529224
  H      2.109126    6.241315   10.280435
  H      3.263922    7.233564   11.141851
  H      2.128043    7.959936    9.959660

 Multiplicity           Mult            ....    1
 Number of Electrons    NEL             ....   18
 Basis Dimension        Dim             ....  172

ORBITAL ENERGIES
----------------

  NO   OCC          E(Eh)            E(eV)
   0   2.0000     -19.227298      -523.2014
   1   2.0000     -10.313131      -280.6345
   2   2.0000      -1.144490       -31.1432
   3   2.0000      -0.799136       -21.7456
   4   2.0000      -0.618761       -16.8373
   5   2.0000      -0.543833       -14.7984
   6   2.0000      -0.529553       -14.4099
   7   2.0000      -0.432707       -11.7746
   8   2.0000      -0.372326       -10.1315
   9   0.0000       0.095747         2.6054
  10   0.0000       0.120848         3.2884
  11   0.0000       0.155089         4.2202
  12   0.0000       0.173643         4.7251
  13   0.0000       0.200548         5.4572

MULLIKEN ATOMIC CHARGES
-----------------------
   0 C :    0.001552
   1 O :    0.000005
   2 H :   -0.000101
   3 H :   -0.000087
   4 H :   -0.000044
   5 H :   -0.005766
   6 C :   -0.157449
   7 O :   -0.466513
   8 H :    0.311010
   9 H :    0.095056
  10 H :    0.100762
  11 H :    0.121574
Sum of atomic charges:   -0.0000000

LOEWDIN ATOMIC CHARGES
----------------------
   0 C :   -0.001120
   1 O :   -0.000014
   2 H :   -0.000028
   3 H :   -0.000004
   4 H :   -0.000032
   5 H :   -0.003976
   6 C :   -0.390066
   7 O :   -0.052067
   8 H :    0.150680
   9 H :    0.094667
  10 H :    0.092545
  11 H :    0.109416

  Mayer bond orders larger than 0.1
B(  6-C ,  7-O ) :   0.9966 B(  6-C ,  9-H ) :   0.9695 B(  6-C , 10-H ) :   0.9841
B(  6-C , 11-H ) :   0.9743 B(  7-O ,  8-H ) :   0.9030

Dispersion correction           -0.000238967
FINAL SINGLE POINT ENERGY      -115.734467140511

DIPOLE MOMENT
-------------
                                X             Y             Z
Electronic contribution:      1.26491      -0.05388      -1.34154
Nuclear contribution   :     -1.22520      -0.25123       1.94435
                        -----------------------------------------
Total Dipole Moment    :      0.03970      -0.30512       0.60281
                        -----------------------------------------
Magnitude (a.u.)       :      0.67679
Magnitude (Debye)      :      1.72027

Rotational constants in cm-1:     4.417692     0.838872     0.807034
Rotational constants in MHz : 132439.071103 25148.735778 24194.285003

                             ****ORCA TERMINATED NORMALLY****
TOTAL RUN TIME: 0 days 0 hours 1 minutes 6 seconds 227 msec
