                         Program Version 4.1.2  - RELEASE  -
|  1> #Run DFT-D3 single point of the dimer
|  2> ! wB97X-D3 def2-TZVP TIGHTSCF CHELPG PMODEL PAL8
|  3>
|  4> %base "17-150_DFT_AB"
|  5>
|  6> %scf
|  7> MaxIter 1000
|  8> end
|  9>
| 10> * xyz 0 1
| 11>   C                      10.203951            1.252872             -11.061372
| 12>   O                      9.891632             1.233883             -9.680468
| 13>   H                      9.214858             0.514658             -9.573875
| 14>   H                      10.398544            0.211944             -11.358739
| 15>   H                      9.434172             1.617646             -11.717113
| 16>   H                      11.011528            1.917265             -11.319516
| 17>   C                      8.650736             -1.621181            -7.938814
| 18>   O                      9.465383             -1.507223            -9.163799
| 19>   H                      10.393411            -1.488217            -8.904165
| 20>   H                      8.551608             -0.685834            -7.443835
| 21>   H                      7.703695             -2.052377            -8.218279
| 22>   H                      9.168432             -2.165569            -7.203741
| 23> *
| 24>
| 25> #Run DFT-D3 single point of the molecule with dimer basis set
| 26> $new_job
| 27> %base "17-150_DFT_A"
| 28> ! wB97X-D3 def2-TZVP TIGHTSCF CHELPG PMODEL
| 29>
| 30> %scf
| 31> MaxIter 1000
| 32> end
| 33>
| 34> * xyz 0 1
| 35>   C                      10.203951            1.252872             -11.061372
| 36>   O                      9.891632             1.233883             -9.680468
| 37>   H                      9.214858             0.514658             -9.573875
| 38>   H                      10.398544            0.211944             -11.358739
| 39>   H                      9.434172             1.617646             -11.717113
| 40>   H                      11.011528            1.917265             -11.319516
| 41>   C                    : 8.650736             -1.621181            -7.938814
| 42>   O                    : 9.465383             -1.507223            -9.163799
| 43>   H                    : 10.393411            -1.488217            -8.904165
| 44>   H                    : 8.551608             -0.685834            -7.443835
| 45>   H                    : 7.703695             -2.052377            -8.218279
| 46>   H                    : 9.168432             -2.165569            -7.203741
| 47> *
| 48>
| 49> #Run DFT-D3 single point of the particle with dimer basis set
| 50> $new_job
| 51> %base "17-150_DFT_B"
| 52> ! wB97X-D3 def2-TZVP TIGHTSCF CHELPG PMODEL
| 53>
| 54> %scf
| 55> MaxIter 1000
| 56> end
| 57>
| 58> * xyz 0 1
| 59>   C                    : 10.203951            1.252872             -11.061372
| 60>   O                    : 9.891632             1.233883             -9.680468
| 61>   H                    : 9.214858             0.514658             -9.573875
| 62>   H                    : 10.398544            0.211944             -11.358739
| 63>   H                    : 9.434172             1.617646             -11.717113
| 64>   H                    : 11.011528            1.917265             -11.319516
| 65>   C                      8.650736             -1.621181            -7.938814
| 66>   O                      9.465383             -1.507223            -9.163799
| 67>   H                      10.393411            -1.488217            -8.904165
| 68>   H                      8.551608             -0.685834            -7.443835
| 69>   H                      7.703695             -2.052377            -8.218279
| 70>   H                      9.168432             -2.165569            -7.203741
| 71> *
| 72>
| 73>                          ****END OF INPUT****
 Total Charge           Charge          ....    0
 Multiplicity           Mult            ....    1
 Number of Electrons    NEL             ....   36
Dispersion correction           -0.001903875
FINAL SINGLE POINT ENERGY      -231.469772068090
Dispersion correction           -0.000235099
FINAL SINGLE POINT ENERGY      -115.731947591070

CARTESIAN COORDINATES (ANGSTROEM)
---------------------------------
  C     10.203951    1.252872  -11.061372
  O      9.891632    1.233883   -9.680468
  H      9.214858    0.514658   -9.573875
  H     10.398544    0.211944  -11.358739
  H      9.434172    1.617646  -11.717113
  H     11.011528    1.917265  -11.319516
  C      8.650736   -1.621181   -7.938814
  O      9.465383   -1.507223   -9.163799
  H     10.393411   -1.488217   -8.904165
  H      8.551608   -0.685834   -7.443835
  H      7.703695   -2.052377   -8.218279
  H      9.168432   -2.165569   -7.203741

 Multiplicity           Mult            ....    1
 Number of Electrons    NEL             ....   18
 Basis Dimension        Dim             ....  172

ORBITAL ENERGIES
----------------

  NO   OCC          E(Eh)            E(eV)
   0   2.0000     -19.228817      -523.2427
   1   2.0000     -10.309541      -280.5369
   2   2.0000      -1.117008       -30.3953
   3   2.0000      -0.805823       -21.9276
   4   2.0000      -0.607871       -16.5410
   5   2.0000      -0.533742       -14.5238
   6   2.0000      -0.523612       -14.2482
   7   2.0000      -0.443673       -12.0730
   8   2.0000      -0.373701       -10.1689
   9   0.0000       0.096168         2.6169
  10   0.0000       0.126665         3.4467
  11   0.0000       0.151100         4.1116
  12   0.0000       0.185672         5.0524
  13   0.0000       0.197658         5.3785

MULLIKEN ATOMIC CHARGES
-----------------------
   0 C :    0.000649
   1 O :   -0.004590
   2 H :   -0.002607
   3 H :   -0.004191
   4 H :   -0.000483
   5 H :    0.000189
   6 C :   -0.170966
   7 O :   -0.480271
   8 H :    0.312243
   9 H :    0.111093
  10 H :    0.125714
  11 H :    0.113219
Sum of atomic charges:   -0.0000000

LOEWDIN ATOMIC CHARGES
----------------------
   0 C :   -0.006113
   1 O :   -0.009235
   2 H :   -0.028819
   3 H :   -0.003252
   4 H :   -0.000109
   5 H :   -0.000061
   6 C :   -0.324080
   7 O :   -0.084959
   8 H :    0.166158
   9 H :    0.093031
  10 H :    0.107498
  11 H :    0.089941

  Mayer bond orders larger than 0.1
B(  6-C ,  7-O ) :   0.9868 B(  6-C ,  9-H ) :   0.9737 B(  6-C , 10-H ) :   0.9761
B(  6-C , 11-H ) :   0.9804 B(  7-O ,  8-H ) :   0.9014

Dispersion correction           -0.000247683
FINAL SINGLE POINT ENERGY      -115.730862420172

DIPOLE MOMENT
-------------
                                X             Y             Z
Electronic contribution:      0.76500       0.08120      -1.54393
Nuclear contribution   :     -0.52521      -0.13668       2.27418
                        -----------------------------------------
Total Dipole Moment    :      0.23980      -0.05548       0.73025
                        -----------------------------------------
Magnitude (a.u.)       :      0.77061
Magnitude (Debye)      :      1.95875

Rotational constants in cm-1:     4.432084     0.788794     0.751067
Rotational constants in MHz : 132870.524446 23647.460061 22516.434092

                             ****ORCA TERMINATED NORMALLY****
TOTAL RUN TIME: 0 days 0 hours 1 minutes 13 seconds 426 msec
