                         Program Version 4.1.2  - RELEASE  -
|  1> #Run DFT-D3 single point of the dimer
|  2> ! wB97X-D3 def2-TZVP TIGHTSCF CHELPG PMODEL PAL8
|  3>
|  4> %base "8-33_DFT_AB"
|  5>
|  6> %scf
|  7> MaxIter 1000
|  8> end
|  9>
| 10> * xyz 0 1
| 11>   C                      1.242681             -1.490844            -1.242399
| 12>   O                      2.017750             -2.223303            -0.392427
| 13>   H                      2.854270             -2.385998            -0.915143
| 14>   H                      0.235646             -1.382705            -0.890573
| 15>   H                      1.563453             -0.460555            -1.422829
| 16>   H                      1.015853             -1.921014            -2.215583
| 17>   C                      1.148353             -5.134750            1.359061
| 18>   O                      0.677754             -3.844119            1.665310
| 19>   H                      1.365600             -3.185171            1.347727
| 20>   H                      2.072571             -5.434069            1.815294
| 21>   H                      0.388310             -5.865048            1.713499
| 22>   H                      1.217598             -5.345474            0.267756
| 23> *
| 24>
| 25> #Run DFT-D3 single point of the molecule with dimer basis set
| 26> $new_job
| 27> %base "8-33_DFT_A"
| 28> ! wB97X-D3 def2-TZVP TIGHTSCF CHELPG PMODEL
| 29>
| 30> %scf
| 31> MaxIter 1000
| 32> end
| 33>
| 34> * xyz 0 1
| 35>   C                      1.242681             -1.490844            -1.242399
| 36>   O                      2.017750             -2.223303            -0.392427
| 37>   H                      2.854270             -2.385998            -0.915143
| 38>   H                      0.235646             -1.382705            -0.890573
| 39>   H                      1.563453             -0.460555            -1.422829
| 40>   H                      1.015853             -1.921014            -2.215583
| 41>   C                    : 1.148353             -5.134750            1.359061
| 42>   O                    : 0.677754             -3.844119            1.665310
| 43>   H                    : 1.365600             -3.185171            1.347727
| 44>   H                    : 2.072571             -5.434069            1.815294
| 45>   H                    : 0.388310             -5.865048            1.713499
| 46>   H                    : 1.217598             -5.345474            0.267756
| 47> *
| 48>
| 49> #Run DFT-D3 single point of the particle with dimer basis set
| 50> $new_job
| 51> %base "8-33_DFT_B"
| 52> ! wB97X-D3 def2-TZVP TIGHTSCF CHELPG PMODEL
| 53>
| 54> %scf
| 55> MaxIter 1000
| 56> end
| 57>
| 58> * xyz 0 1
| 59>   C                    : 1.242681             -1.490844            -1.242399
| 60>   O                    : 2.017750             -2.223303            -0.392427
| 61>   H                    : 2.854270             -2.385998            -0.915143
| 62>   H                    : 0.235646             -1.382705            -0.890573
| 63>   H                    : 1.563453             -0.460555            -1.422829
| 64>   H                    : 1.015853             -1.921014            -2.215583
| 65>   C                      1.148353             -5.134750            1.359061
| 66>   O                      0.677754             -3.844119            1.665310
| 67>   H                      1.365600             -3.185171            1.347727
| 68>   H                      2.072571             -5.434069            1.815294
| 69>   H                      0.388310             -5.865048            1.713499
| 70>   H                      1.217598             -5.345474            0.267756
| 71> *
| 72>
| 73>                          ****END OF INPUT****
 Total Charge           Charge          ....    0
 Multiplicity           Mult            ....    1
 Number of Electrons    NEL             ....   36
Dispersion correction           -0.001740260
FINAL SINGLE POINT ENERGY      -231.470823556172
Dispersion correction           -0.000235095
FINAL SINGLE POINT ENERGY      -115.730068160972

CARTESIAN COORDINATES (ANGSTROEM)
---------------------------------
  C      1.242681   -1.490844   -1.242399
  O      2.017750   -2.223303   -0.392427
  H      2.854270   -2.385998   -0.915143
  H      0.235646   -1.382705   -0.890573
  H      1.563453   -0.460555   -1.422829
  H      1.015853   -1.921014   -2.215583
  C      1.148353   -5.134750    1.359061
  O      0.677754   -3.844119    1.665310
  H      1.365600   -3.185171    1.347727
  H      2.072571   -5.434069    1.815294
  H      0.388310   -5.865048    1.713499
  H      1.217598   -5.345474    0.267756

 Multiplicity           Mult            ....    1
 Number of Electrons    NEL             ....   18
 Basis Dimension        Dim             ....  172

ORBITAL ENERGIES
----------------

  NO   OCC          E(Eh)            E(eV)
   0   2.0000     -19.239196      -523.5251
   1   2.0000     -10.313319      -280.6397
   2   2.0000      -1.132737       -30.8233
   3   2.0000      -0.792179       -21.5563
   4   2.0000      -0.609869       -16.5954
   5   2.0000      -0.541073       -14.7234
   6   2.0000      -0.523255       -14.2385
   7   2.0000      -0.431487       -11.7414
   8   2.0000      -0.376399       -10.2423
   9   0.0000       0.071566         1.9474
  10   0.0000       0.128371         3.4932
  11   0.0000       0.147496         4.0136
  12   0.0000       0.169573         4.6143
  13   0.0000       0.188435         5.1276

MULLIKEN ATOMIC CHARGES
-----------------------
   0 C :   -0.003901
   1 O :   -0.003310
   2 H :   -0.000060
   3 H :   -0.001104
   4 H :   -0.000049
   5 H :    0.000190
   6 C :   -0.173603
   7 O :   -0.461184
   8 H :    0.317756
   9 H :    0.106234
  10 H :    0.118715
  11 H :    0.100316
Sum of atomic charges:    0.0000000

LOEWDIN ATOMIC CHARGES
----------------------
   0 C :   -0.003849
   1 O :   -0.015763
   2 H :   -0.000721
   3 H :   -0.000918
   4 H :   -0.000074
   5 H :   -0.000052
   6 C :   -0.403987
   7 O :   -0.075056
   8 H :    0.200808
   9 H :    0.088623
  10 H :    0.113822
  11 H :    0.097166

  Mayer bond orders larger than 0.1
B(  6-C ,  7-O ) :   1.0133 B(  6-C ,  9-H ) :   0.9732 B(  6-C , 10-H ) :   0.9746
B(  6-C , 11-H ) :   0.9713 B(  7-O ,  8-H ) :   0.8939

Dispersion correction           -0.000260212
FINAL SINGLE POINT ENERGY      -115.734400893536

DIPOLE MOMENT
-------------
                                X             Y             Z
Electronic contribution:     -0.65286       1.71934       0.51747
Nuclear contribution   :      1.24770      -1.82747      -0.81089
                        -----------------------------------------
Total Dipole Moment    :      0.59484      -0.10812      -0.29341
                        -----------------------------------------
Magnitude (a.u.)       :      0.67203
Magnitude (Debye)      :      1.70815

Rotational constants in cm-1:     4.284000     0.826012     0.795883
Rotational constants in MHz : 128431.100120 24763.215473 23859.969349

                             ****ORCA TERMINATED NORMALLY****
TOTAL RUN TIME: 0 days 0 hours 0 minutes 46 seconds 627 msec
