                         Program Version 4.1.2  - RELEASE  -
|  1> #Run DFT-D3 single point of the dimer
|  2> ! wB97X-D3 def2-TZVP TIGHTSCF CHELPG PMODEL PAL8
|  3>
|  4> %base "18-167_DFT_AB"
|  5>
|  6> %scf
|  7> MaxIter 1000
|  8> end
|  9>
| 10> * xyz 0 1
| 11>   C                      11.338925            -10.965689           -0.275492
| 12>   O                      9.968722             -10.875381           -0.253434
| 13>   H                      9.606358             -11.447969           0.483523
| 14>   H                      11.820256            -11.855597           -0.630856
| 15>   H                      11.884229            -10.155072           -0.800702
| 16>   H                      11.694519            -10.914047           0.768294
| 17>   C                      11.098959            -7.703216            -1.921460
| 18>   O                      10.066868            -8.643015            -2.114216
| 19>   H                      10.044160            -9.219711            -1.325103
| 20>   H                      11.976949            -7.968991            -2.469424
| 21>   H                      10.891725            -6.642505            -2.301589
| 22>   H                      11.443192            -7.712093            -0.863609
| 23> *
| 24>
| 25> #Run DFT-D3 single point of the molecule with dimer basis set
| 26> $new_job
| 27> %base "18-167_DFT_A"
| 28> ! wB97X-D3 def2-TZVP TIGHTSCF CHELPG PMODEL
| 29>
| 30> %scf
| 31> MaxIter 1000
| 32> end
| 33>
| 34> * xyz 0 1
| 35>   C                      11.338925            -10.965689           -0.275492
| 36>   O                      9.968722             -10.875381           -0.253434
| 37>   H                      9.606358             -11.447969           0.483523
| 38>   H                      11.820256            -11.855597           -0.630856
| 39>   H                      11.884229            -10.155072           -0.800702
| 40>   H                      11.694519            -10.914047           0.768294
| 41>   C                    : 11.098959            -7.703216            -1.921460
| 42>   O                    : 10.066868            -8.643015            -2.114216
| 43>   H                    : 10.044160            -9.219711            -1.325103
| 44>   H                    : 11.976949            -7.968991            -2.469424
| 45>   H                    : 10.891725            -6.642505            -2.301589
| 46>   H                    : 11.443192            -7.712093            -0.863609
| 47> *
| 48>
| 49> #Run DFT-D3 single point of the particle with dimer basis set
| 50> $new_job
| 51> %base "18-167_DFT_B"
| 52> ! wB97X-D3 def2-TZVP TIGHTSCF CHELPG PMODEL
| 53>
| 54> %scf
| 55> MaxIter 1000
| 56> end
| 57>
| 58> * xyz 0 1
| 59>   C                    : 11.338925            -10.965689           -0.275492
| 60>   O                    : 9.968722             -10.875381           -0.253434
| 61>   H                    : 9.606358             -11.447969           0.483523
| 62>   H                    : 11.820256            -11.855597           -0.630856
| 63>   H                    : 11.884229            -10.155072           -0.800702
| 64>   H                    : 11.694519            -10.914047           0.768294
| 65>   C                      11.098959            -7.703216            -1.921460
| 66>   O                      10.066868            -8.643015            -2.114216
| 67>   H                      10.044160            -9.219711            -1.325103
| 68>   H                      11.976949            -7.968991            -2.469424
| 69>   H                      10.891725            -6.642505            -2.301589
| 70>   H                      11.443192            -7.712093            -0.863609
| 71> *
| 72>
| 73>                          ****END OF INPUT****
 Total Charge           Charge          ....    0
 Multiplicity           Mult            ....    1
 Number of Electrons    NEL             ....   36
Dispersion correction           -0.002043688
FINAL SINGLE POINT ENERGY      -231.463186502514
Dispersion correction           -0.000243885
FINAL SINGLE POINT ENERGY      -115.727919324665

CARTESIAN COORDINATES (ANGSTROEM)
---------------------------------
  C     11.338925  -10.965689   -0.275492
  O      9.968722  -10.875381   -0.253434
  H      9.606358  -11.447969    0.483523
  H     11.820256  -11.855597   -0.630856
  H     11.884229  -10.155072   -0.800702
  H     11.694519  -10.914047    0.768294
  C     11.098959   -7.703216   -1.921460
  O     10.066868   -8.643015   -2.114216
  H     10.044160   -9.219711   -1.325103
  H     11.976949   -7.968991   -2.469424
  H     10.891725   -6.642505   -2.301589
  H     11.443192   -7.712093   -0.863609

 Multiplicity           Mult            ....    1
 Number of Electrons    NEL             ....   18
 Basis Dimension        Dim             ....  172

ORBITAL ENERGIES
----------------

  NO   OCC          E(Eh)            E(eV)
   0   2.0000     -19.235135      -523.4146
   1   2.0000     -10.317628      -280.7569
   2   2.0000      -1.136752       -30.9326
   3   2.0000      -0.792082       -21.5537
   4   2.0000      -0.612751       -16.6738
   5   2.0000      -0.536942       -14.6109
   6   2.0000      -0.528395       -14.3784
   7   2.0000      -0.434019       -11.8103
   8   2.0000      -0.371182       -10.1004
   9   0.0000       0.068495         1.8638
  10   0.0000       0.135615         3.6903
  11   0.0000       0.144219         3.9244
  12   0.0000       0.170717         4.6455
  13   0.0000       0.183050         4.9810

MULLIKEN ATOMIC CHARGES
-----------------------
   0 C :   -0.013374
   1 O :    0.000448
   2 H :   -0.000015
   3 H :    0.000229
   4 H :    0.002929
   5 H :    0.000194
   6 C :   -0.181048
   7 O :   -0.458844
   8 H :    0.317997
   9 H :    0.108392
  10 H :    0.118544
  11 H :    0.104547
Sum of atomic charges:    0.0000000

LOEWDIN ATOMIC CHARGES
----------------------
   0 C :   -0.016315
   1 O :   -0.015959
   2 H :   -0.000560
   3 H :   -0.000243
   4 H :   -0.006784
   5 H :   -0.000243
   6 C :   -0.397266
   7 O :   -0.062934
   8 H :    0.194588
   9 H :    0.090536
  10 H :    0.113528
  11 H :    0.101653

  Mayer bond orders larger than 0.1
B(  6-C ,  7-O ) :   0.9998 B(  6-C ,  9-H ) :   0.9745 B(  6-C , 10-H ) :   0.9723
B(  6-C , 11-H ) :   0.9878 B(  7-O ,  8-H ) :   0.9002

Dispersion correction           -0.000254447
FINAL SINGLE POINT ENERGY      -115.730451366279

DIPOLE MOMENT
-------------
                                X             Y             Z
Electronic contribution:     -1.48482      -1.16717      -0.38979
Nuclear contribution   :      1.89363       1.15531       0.95492
                        -----------------------------------------
Total Dipole Moment    :      0.40881      -0.01186       0.56513
                        -----------------------------------------
Magnitude (a.u.)       :      0.69759
Magnitude (Debye)      :      1.77314

Rotational constants in cm-1:     4.275606     0.831982     0.787917
Rotational constants in MHz : 128179.440944 24942.204417 23621.154332

                             ****ORCA TERMINATED NORMALLY****
TOTAL RUN TIME: 0 days 0 hours 1 minutes 7 seconds 927 msec
