                         Program Version 4.1.2  - RELEASE  -
|  1> #Run DFT-D3 single point of the dimer
|  2> ! wB97X-D3 def2-TZVP TIGHTSCF  CHELPG PAL8
|  3>
|  4> %base "196_charges"
|  5>
|  6> %scf
|  7> MaxIter 1000
|  8> end
|  9> %output
| 10>   Print[ P_Mayer ] 1
| 11>   Print[ P_NatPop ] 1
| 12>   Print[ P_Hirshfeld ] 1
| 13>   Print[ P_Mulliken ] 1
| 14>   Print [ P_Loewdin ] 1
| 15> end
| 16>
| 17> * xyz 0 1
| 18>   C                      7.461028             -3.924208            7.645301
| 19>   O                      7.795634             -4.883773            8.593616
| 20>   H                      7.047737             -5.467526            8.677806
| 21>   H                      8.333208             -3.314785            7.495032
| 22>   H                      7.054215             -4.277551            6.683916
| 23>   H                      6.719253             -3.238531            8.013440
| 24> *
| 25>
| 26>                          ****END OF INPUT****

CARTESIAN COORDINATES (ANGSTROEM)
---------------------------------
  C      7.461028   -3.924208    7.645301
  O      7.795634   -4.883773    8.593616
  H      7.047737   -5.467526    8.677806
  H      8.333208   -3.314785    7.495032
  H      7.054215   -4.277551    6.683916
  H      6.719253   -3.238531    8.013440

 Total Charge           Charge          ....    0
 Multiplicity           Mult            ....    1
 Number of Electrons    NEL             ....   18
 Basis Dimension        Dim             ....   86

ORBITAL ENERGIES
----------------

  NO   OCC          E(Eh)            E(eV)
   0   2.0000     -19.231339      -523.3113
   1   2.0000     -10.306887      -280.4646
   2   2.0000      -1.146577       -31.1999
   3   2.0000      -0.798449       -21.7269
   4   2.0000      -0.620541       -16.8858
   5   2.0000      -0.539643       -14.6844
   6   2.0000      -0.530116       -14.4252
   7   2.0000      -0.439116       -11.9490
   8   2.0000      -0.372392       -10.1333
   9   0.0000       0.117156         3.1880
  10   0.0000       0.157383         4.2826
  11   0.0000       0.202108         5.4996
  12   0.0000       0.209425         5.6987
  13   0.0000       0.233537         6.3549

MULLIKEN ATOMIC CHARGES
-----------------------
   0 C :   -0.160825
   1 O :   -0.463667
   2 H :    0.312434
   3 H :    0.118463
   4 H :    0.094485
   5 H :    0.099110
Sum of atomic charges:    0.0000000

LOEWDIN ATOMIC CHARGES
----------------------
   0 C :   -0.404709
   1 O :   -0.051682
   2 H :    0.166185
   3 H :    0.106657
   4 H :    0.094065
   5 H :    0.089484

  Mayer bond orders larger than 0.1
B(  0-C ,  1-O ) :   1.0069 B(  0-C ,  3-H ) :   0.9768 B(  0-C ,  4-H ) :   0.9716
B(  0-C ,  5-H ) :   0.9779 B(  1-O ,  2-H ) :   0.9020

Dispersion correction           -0.000232596
FINAL SINGLE POINT ENERGY      -115.734953665024

DIPOLE MOMENT
-------------
                                X             Y             Z
Electronic contribution:      0.59017      -1.29239       1.23682
Nuclear contribution   :     -1.18981       1.29783      -1.53304
                        -----------------------------------------
Total Dipole Moment    :     -0.59964       0.00544      -0.29621
                        -----------------------------------------
Magnitude (a.u.)       :      0.66883
Magnitude (Debye)      :      1.70004

Rotational constants in cm-1:     4.433642     0.856658     0.819653
Rotational constants in MHz : 132917.228715 25681.965977 24572.570574

                             ****ORCA TERMINATED NORMALLY****
TOTAL RUN TIME: 0 days 0 hours 0 minutes 42 seconds 137 msec
