                         Program Version 4.1.2  - RELEASE  -
|  1> #Run DFT-D3 single point of the dimer
|  2> ! wB97X-D3 def2-TZVP TIGHTSCF CHELPG PMODEL PAL8
|  3>
|  4> %base "19-119_DFT_AB"
|  5>
|  6> %scf
|  7> MaxIter 1000
|  8> end
|  9>
| 10> * xyz 0 1
| 11>   C                      -0.942349            -0.312623            6.462802
| 12>   O                      -1.254387            -1.464392            7.229617
| 13>   H                      -0.880571            -2.244624            6.848968
| 14>   H                      -1.109190            -0.446360            5.396069
| 15>   H                      -1.477128            0.535260             6.817403
| 16>   H                      0.090158             -0.179774            6.506438
| 17>   C                      1.309229             -1.618359            3.048068
| 18>   O                      0.618711             -2.653348            3.660415
| 19>   H                      0.034684             -2.996127            2.985988
| 20>   H                      1.705704             -1.835364            2.022964
| 21>   H                      0.725643             -0.628895            2.983214
| 22>   H                      2.138539             -1.223666            3.657437
| 23> *
| 24>
| 25> #Run DFT-D3 single point of the molecule with dimer basis set
| 26> $new_job
| 27> %base "19-119_DFT_A"
| 28> ! wB97X-D3 def2-TZVP TIGHTSCF CHELPG PMODEL
| 29>
| 30> %scf
| 31> MaxIter 1000
| 32> end
| 33>
| 34> * xyz 0 1
| 35>   C                      -0.942349            -0.312623            6.462802
| 36>   O                      -1.254387            -1.464392            7.229617
| 37>   H                      -0.880571            -2.244624            6.848968
| 38>   H                      -1.109190            -0.446360            5.396069
| 39>   H                      -1.477128            0.535260             6.817403
| 40>   H                      0.090158             -0.179774            6.506438
| 41>   C                    : 1.309229             -1.618359            3.048068
| 42>   O                    : 0.618711             -2.653348            3.660415
| 43>   H                    : 0.034684             -2.996127            2.985988
| 44>   H                    : 1.705704             -1.835364            2.022964
| 45>   H                    : 0.725643             -0.628895            2.983214
| 46>   H                    : 2.138539             -1.223666            3.657437
| 47> *
| 48>
| 49> #Run DFT-D3 single point of the particle with dimer basis set
| 50> $new_job
| 51> %base "19-119_DFT_B"
| 52> ! wB97X-D3 def2-TZVP TIGHTSCF CHELPG PMODEL
| 53>
| 54> %scf
| 55> MaxIter 1000
| 56> end
| 57>
| 58> * xyz 0 1
| 59>   C                    : -0.942349            -0.312623            6.462802
| 60>   O                    : -1.254387            -1.464392            7.229617
| 61>   H                    : -0.880571            -2.244624            6.848968
| 62>   H                    : -1.109190            -0.446360            5.396069
| 63>   H                    : -1.477128            0.535260             6.817403
| 64>   H                    : 0.090158             -0.179774            6.506438
| 65>   C                      1.309229             -1.618359            3.048068
| 66>   O                      0.618711             -2.653348            3.660415
| 67>   H                      0.034684             -2.996127            2.985988
| 68>   H                      1.705704             -1.835364            2.022964
| 69>   H                      0.725643             -0.628895            2.983214
| 70>   H                      2.138539             -1.223666            3.657437
| 71> *
| 72>
| 73>                          ****END OF INPUT****
 Total Charge           Charge          ....    0
 Multiplicity           Mult            ....    1
 Number of Electrons    NEL             ....   36
Dispersion correction           -0.001508999
FINAL SINGLE POINT ENERGY      -231.465930071882
Dispersion correction           -0.000226066
FINAL SINGLE POINT ENERGY      -115.732040540776

CARTESIAN COORDINATES (ANGSTROEM)
---------------------------------
  C     -0.942349   -0.312623    6.462802
  O     -1.254387   -1.464392    7.229617
  H     -0.880571   -2.244624    6.848968
  H     -1.109190   -0.446360    5.396069
  H     -1.477128    0.535260    6.817403
  H      0.090158   -0.179774    6.506438
  C      1.309229   -1.618359    3.048068
  O      0.618711   -2.653348    3.660415
  H      0.034684   -2.996127    2.985988
  H      1.705704   -1.835364    2.022964
  H      0.725643   -0.628895    2.983214
  H      2.138539   -1.223666    3.657437

 Multiplicity           Mult            ....    1
 Number of Electrons    NEL             ....   18
 Basis Dimension        Dim             ....  172

ORBITAL ENERGIES
----------------

  NO   OCC          E(Eh)            E(eV)
   0   2.0000     -19.238504      -523.5063
   1   2.0000     -10.320742      -280.8417
   2   2.0000      -1.151879       -31.3442
   3   2.0000      -0.790730       -21.5169
   4   2.0000      -0.618160       -16.8210
   5   2.0000      -0.542574       -14.7642
   6   2.0000      -0.526717       -14.3327
   7   2.0000      -0.434890       -11.8340
   8   2.0000      -0.372384       -10.1331
   9   0.0000       0.091354         2.4859
  10   0.0000       0.124414         3.3855
  11   0.0000       0.144777         3.9396
  12   0.0000       0.178438         4.8555
  13   0.0000       0.189061         5.1446

MULLIKEN ATOMIC CHARGES
-----------------------
   0 C :    0.002127
   1 O :    0.000161
   2 H :   -0.001682
   3 H :   -0.002183
   4 H :   -0.000028
   5 H :   -0.000609
   6 C :   -0.181463
   7 O :   -0.451299
   8 H :    0.317744
   9 H :    0.106274
  10 H :    0.090880
  11 H :    0.120077
Sum of atomic charges:    0.0000000

LOEWDIN ATOMIC CHARGES
----------------------
   0 C :   -0.001808
   1 O :   -0.000081
   2 H :   -0.001236
   3 H :   -0.001490
   4 H :   -0.000025
   5 H :   -0.000139
   6 C :   -0.430628
   7 O :   -0.045001
   8 H :    0.173550
   9 H :    0.098360
  10 H :    0.099412
  11 H :    0.109085

  Mayer bond orders larger than 0.1
B(  6-C ,  7-O ) :   1.0085 B(  6-C ,  9-H ) :   0.9723 B(  6-C , 10-H ) :   0.9726
B(  6-C , 11-H ) :   0.9744 B(  7-O ,  8-H ) :   0.8982

Dispersion correction           -0.000259163
FINAL SINGLE POINT ENERGY      -115.731076337082

DIPOLE MOMENT
-------------
                                X             Y             Z
Electronic contribution:     -0.86442      -1.61295       0.95023
Nuclear contribution   :      0.77046       1.75904      -1.58767
                        -----------------------------------------
Total Dipole Moment    :     -0.09396       0.14609      -0.63744
                        -----------------------------------------
Magnitude (a.u.)       :      0.66068
Magnitude (Debye)      :      1.67931

Rotational constants in cm-1:     4.279556     0.839770     0.808250
Rotational constants in MHz : 128297.849164 25175.680956 24230.720088

                             ****ORCA TERMINATED NORMALLY****
TOTAL RUN TIME: 0 days 0 hours 0 minutes 48 seconds 813 msec
