                         Program Version 4.1.2  - RELEASE  -
|  1> #Run DFT-D3 single point of the dimer
|  2> ! wB97X-D3 def2-TZVP TIGHTSCF CHELPG PMODEL PAL8
|  3>
|  4> %base "9-57_DFT_AB"
|  5>
|  6> %scf
|  7> MaxIter 1000
|  8> end
|  9>
| 10> * xyz 0 1
| 11>   C                      11.104101            1.379980             -2.789674
| 12>   O                      10.501086            1.573904             -4.084412
| 13>   H                      10.985737            2.266012             -4.552232
| 14>   H                      12.067943            1.871421             -2.666359
| 15>   H                      10.426387            1.644756             -2.008202
| 16>   H                      11.529797            0.348971             -2.652523
| 17>   C                      8.440851             4.101556             -1.792450
| 18>   O                      7.899929             3.599774             -0.570047
| 19>   H                      8.574306             3.057650             -0.195285
| 20>   H                      9.545632             4.229841             -1.805738
| 21>   H                      8.330681             3.390921             -2.631952
| 22>   H                      8.075778             5.093911             -2.047035
| 23> *
| 24>
| 25> #Run DFT-D3 single point of the molecule with dimer basis set
| 26> $new_job
| 27> %base "9-57_DFT_A"
| 28> ! wB97X-D3 def2-TZVP TIGHTSCF CHELPG PMODEL
| 29>
| 30> %scf
| 31> MaxIter 1000
| 32> end
| 33>
| 34> * xyz 0 1
| 35>   C                      11.104101            1.379980             -2.789674
| 36>   O                      10.501086            1.573904             -4.084412
| 37>   H                      10.985737            2.266012             -4.552232
| 38>   H                      12.067943            1.871421             -2.666359
| 39>   H                      10.426387            1.644756             -2.008202
| 40>   H                      11.529797            0.348971             -2.652523
| 41>   C                    : 8.440851             4.101556             -1.792450
| 42>   O                    : 7.899929             3.599774             -0.570047
| 43>   H                    : 8.574306             3.057650             -0.195285
| 44>   H                    : 9.545632             4.229841             -1.805738
| 45>   H                    : 8.330681             3.390921             -2.631952
| 46>   H                    : 8.075778             5.093911             -2.047035
| 47> *
| 48>
| 49> #Run DFT-D3 single point of the particle with dimer basis set
| 50> $new_job
| 51> %base "9-57_DFT_B"
| 52> ! wB97X-D3 def2-TZVP TIGHTSCF CHELPG PMODEL
| 53>
| 54> %scf
| 55> MaxIter 1000
| 56> end
| 57>
| 58> * xyz 0 1
| 59>   C                    : 11.104101            1.379980             -2.789674
| 60>   O                    : 10.501086            1.573904             -4.084412
| 61>   H                    : 10.985737            2.266012             -4.552232
| 62>   H                    : 12.067943            1.871421             -2.666359
| 63>   H                    : 10.426387            1.644756             -2.008202
| 64>   H                    : 11.529797            0.348971             -2.652523
| 65>   C                      8.440851             4.101556             -1.792450
| 66>   O                      7.899929             3.599774             -0.570047
| 67>   H                      8.574306             3.057650             -0.195285
| 68>   H                      9.545632             4.229841             -1.805738
| 69>   H                      8.330681             3.390921             -2.631952
| 70>   H                      8.075778             5.093911             -2.047035
| 71> *
| 72>
| 73>                          ****END OF INPUT****
 Total Charge           Charge          ....    0
 Multiplicity           Mult            ....    1
 Number of Electrons    NEL             ....   36
Dispersion correction           -0.001820233
FINAL SINGLE POINT ENERGY      -231.462970647939
Dispersion correction           -0.000272351
FINAL SINGLE POINT ENERGY      -115.729411523820

CARTESIAN COORDINATES (ANGSTROEM)
---------------------------------
  C     11.104101    1.379980   -2.789674
  O     10.501086    1.573904   -4.084412
  H     10.985737    2.266012   -4.552232
  H     12.067943    1.871421   -2.666359
  H     10.426387    1.644756   -2.008202
  H     11.529797    0.348971   -2.652523
  C      8.440851    4.101556   -1.792450
  O      7.899929    3.599774   -0.570047
  H      8.574306    3.057650   -0.195285
  H      9.545632    4.229841   -1.805738
  H      8.330681    3.390921   -2.631952
  H      8.075778    5.093911   -2.047035

 Multiplicity           Mult            ....    1
 Number of Electrons    NEL             ....   18
 Basis Dimension        Dim             ....  172

ORBITAL ENERGIES
----------------

  NO   OCC          E(Eh)            E(eV)
   0   2.0000     -19.233700      -523.3756
   1   2.0000     -10.317510      -280.7537
   2   2.0000      -1.138925       -30.9917
   3   2.0000      -0.797401       -21.6984
   4   2.0000      -0.615192       -16.7402
   5   2.0000      -0.540622       -14.7111
   6   2.0000      -0.519453       -14.1350
   7   2.0000      -0.438954       -11.9445
   8   2.0000      -0.376269       -10.2388
   9   0.0000       0.074950         2.0395
  10   0.0000       0.120018         3.2659
  11   0.0000       0.146412         3.9841
  12   0.0000       0.170027         4.6267
  13   0.0000       0.178930         4.8689

MULLIKEN ATOMIC CHARGES
-----------------------
   0 C :   -0.003769
   1 O :    0.000378
   2 H :   -0.000009
   3 H :    0.000133
   4 H :    0.001381
   5 H :    0.000003
   6 C :   -0.182047
   7 O :   -0.463658
   8 H :    0.314309
   9 H :    0.104460
  10 H :    0.104832
  11 H :    0.123987
Sum of atomic charges:    0.0000000

LOEWDIN ATOMIC CHARGES
----------------------
   0 C :   -0.003363
   1 O :   -0.000673
   2 H :   -0.000217
   3 H :   -0.000107
   4 H :   -0.002157
   5 H :   -0.000023
   6 C :   -0.382941
   7 O :   -0.072876
   8 H :    0.159314
   9 H :    0.099607
  10 H :    0.098332
  11 H :    0.105105

  Mayer bond orders larger than 0.1
B(  6-C ,  7-O ) :   1.0017 B(  6-C ,  9-H ) :   0.9789 B(  6-C , 10-H ) :   0.9746
B(  6-C , 11-H ) :   0.9722 B(  7-O ,  8-H ) :   0.9055

Dispersion correction           -0.000259508
FINAL SINGLE POINT ENERGY      -115.732513518317

DIPOLE MOMENT
-------------
                                X             Y             Z
Electronic contribution:     -0.96667      -0.55231       1.64631
Nuclear contribution   :      1.63495       0.41693      -1.88000
                        -----------------------------------------
Total Dipole Moment    :      0.66829      -0.13538      -0.23369
                        -----------------------------------------
Magnitude (a.u.)       :      0.72080
Magnitude (Debye)      :      1.83212

Rotational constants in cm-1:     4.386345     0.808737     0.780491
Rotational constants in MHz : 131499.306465 24245.335217 23398.545140

                             ****ORCA TERMINATED NORMALLY****
TOTAL RUN TIME: 0 days 0 hours 0 minutes 47 seconds 24 msec
