                         Program Version 4.1.2  - RELEASE  -
|  1> #Run DFT-D3 single point of the dimer
|  2> ! wB97X-D3 def2-TZVP TIGHTSCF CHELPG PMODEL PAL8
|  3>
|  4> %base "7-96_DFT_AB"
|  5>
|  6> %scf
|  7> MaxIter 1000
|  8> end
|  9>
| 10> * xyz 0 1
| 11>   C                      -4.531715            -3.327488            3.855180
| 12>   O                      -5.285925            -4.508734            4.030222
| 13>   H                      -4.623814            -5.225967            3.998889
| 14>   H                      -4.056107            -3.085744            4.805620
| 15>   H                      -3.844368            -3.437728            3.013197
| 16>   H                      -5.163979            -2.483007            3.642173
| 17>   C                      -3.148768            -0.209111            5.185935
| 18>   O                      -3.001862            0.879201             6.043669
| 19>   H                      -3.014803            0.564210             6.908787
| 20>   H                      -2.270155            -0.858991            5.207381
| 21>   H                      -4.150670            -0.717197            5.397588
| 22>   H                      -3.223571            0.043395             4.173773
| 23> *
| 24>
| 25> #Run DFT-D3 single point of the molecule with dimer basis set
| 26> $new_job
| 27> %base "7-96_DFT_A"
| 28> ! wB97X-D3 def2-TZVP TIGHTSCF CHELPG PMODEL
| 29>
| 30> %scf
| 31> MaxIter 1000
| 32> end
| 33>
| 34> * xyz 0 1
| 35>   C                      -4.531715            -3.327488            3.855180
| 36>   O                      -5.285925            -4.508734            4.030222
| 37>   H                      -4.623814            -5.225967            3.998889
| 38>   H                      -4.056107            -3.085744            4.805620
| 39>   H                      -3.844368            -3.437728            3.013197
| 40>   H                      -5.163979            -2.483007            3.642173
| 41>   C                    : -3.148768            -0.209111            5.185935
| 42>   O                    : -3.001862            0.879201             6.043669
| 43>   H                    : -3.014803            0.564210             6.908787
| 44>   H                    : -2.270155            -0.858991            5.207381
| 45>   H                    : -4.150670            -0.717197            5.397588
| 46>   H                    : -3.223571            0.043395             4.173773
| 47> *
| 48>
| 49> #Run DFT-D3 single point of the particle with dimer basis set
| 50> $new_job
| 51> %base "7-96_DFT_B"
| 52> ! wB97X-D3 def2-TZVP TIGHTSCF CHELPG PMODEL
| 53>
| 54> %scf
| 55> MaxIter 1000
| 56> end
| 57>
| 58> * xyz 0 1
| 59>   C                    : -4.531715            -3.327488            3.855180
| 60>   O                    : -5.285925            -4.508734            4.030222
| 61>   H                    : -4.623814            -5.225967            3.998889
| 62>   H                    : -4.056107            -3.085744            4.805620
| 63>   H                    : -3.844368            -3.437728            3.013197
| 64>   H                    : -5.163979            -2.483007            3.642173
| 65>   C                      -3.148768            -0.209111            5.185935
| 66>   O                      -3.001862            0.879201             6.043669
| 67>   H                      -3.014803            0.564210             6.908787
| 68>   H                      -2.270155            -0.858991            5.207381
| 69>   H                      -4.150670            -0.717197            5.397588
| 70>   H                      -3.223571            0.043395             4.173773
| 71> *
| 72>
| 73>                          ****END OF INPUT****
 Total Charge           Charge          ....    0
 Multiplicity           Mult            ....    1
 Number of Electrons    NEL             ....   36
Dispersion correction           -0.001556925
FINAL SINGLE POINT ENERGY      -231.464634865168
Dispersion correction           -0.000221102
FINAL SINGLE POINT ENERGY      -115.734595634307

CARTESIAN COORDINATES (ANGSTROEM)
---------------------------------
  C     -4.531715   -3.327488    3.855180
  O     -5.285925   -4.508734    4.030222
  H     -4.623814   -5.225967    3.998889
  H     -4.056107   -3.085744    4.805620
  H     -3.844368   -3.437728    3.013197
  H     -5.163979   -2.483007    3.642173
  C     -3.148768   -0.209111    5.185935
  O     -3.001862    0.879201    6.043669
  H     -3.014803    0.564210    6.908787
  H     -2.270155   -0.858991    5.207381
  H     -4.150670   -0.717197    5.397588
  H     -3.223571    0.043395    4.173773

 Multiplicity           Mult            ....    1
 Number of Electrons    NEL             ....   18
 Basis Dimension        Dim             ....  172

ORBITAL ENERGIES
----------------

  NO   OCC          E(Eh)            E(eV)
   0   2.0000     -19.226434      -523.1779
   1   2.0000     -10.311600      -280.5929
   2   2.0000      -1.150606       -31.3096
   3   2.0000      -0.801525       -21.8106
   4   2.0000      -0.613349       -16.6901
   5   2.0000      -0.549997       -14.9662
   6   2.0000      -0.537996       -14.6396
   7   2.0000      -0.425331       -11.5738
   8   2.0000      -0.375454       -10.2166
   9   0.0000       0.083942         2.2842
  10   0.0000       0.121383         3.3030
  11   0.0000       0.146682         3.9914
  12   0.0000       0.176286         4.7970
  13   0.0000       0.189268         5.1502

MULLIKEN ATOMIC CHARGES
-----------------------
   0 C :    0.003015
   1 O :   -0.000079
   2 H :   -0.000028
   3 H :   -0.004199
   4 H :   -0.000282
   5 H :   -0.001895
   6 C :   -0.169705
   7 O :   -0.460714
   8 H :    0.311097
   9 H :    0.101492
  10 H :    0.096913
  11 H :    0.124385
Sum of atomic charges:    0.0000000

LOEWDIN ATOMIC CHARGES
----------------------
   0 C :   -0.006509
   1 O :   -0.000020
   2 H :   -0.000007
   3 H :   -0.004963
   4 H :   -0.000061
   5 H :   -0.001878
   6 C :   -0.396068
   7 O :   -0.040609
   8 H :    0.145707
   9 H :    0.096663
  10 H :    0.109994
  11 H :    0.097751

  Mayer bond orders larger than 0.1
B(  6-C ,  7-O ) :   1.0044 B(  6-C ,  9-H ) :   0.9753 B(  6-C , 10-H ) :   0.9835
B(  6-C , 11-H ) :   0.9693 B(  7-O ,  8-H ) :   0.9071

Dispersion correction           -0.000230430
FINAL SINGLE POINT ENERGY      -115.729635745268

DIPOLE MOMENT
-------------
                                X             Y             Z
Electronic contribution:      0.27200       1.54697       1.01877
Nuclear contribution   :     -0.32674      -2.13950      -0.82727
                        -----------------------------------------
Total Dipole Moment    :     -0.05475      -0.59253       0.19151
                        -----------------------------------------
Magnitude (a.u.)       :      0.62511
Magnitude (Debye)      :      1.58890

Rotational constants in cm-1:     4.405428     0.840555     0.829568
Rotational constants in MHz : 132071.418741 25199.192344 24869.828447

                             ****ORCA TERMINATED NORMALLY****
TOTAL RUN TIME: 0 days 0 hours 0 minutes 53 seconds 593 msec
