                         Program Version 4.1.2  - RELEASE  -
|  1> #Run DFT-D3 single point of the dimer
|  2> ! wB97X-D3 def2-TZVP TIGHTSCF CHELPG PMODEL PAL8
|  3>
|  4> %base "9-162_DFT_AB"
|  5>
|  6> %scf
|  7> MaxIter 1000
|  8> end
|  9>
| 10> * xyz 0 1
| 11>   C                      -6.343450            -1.847859            -8.942804
| 12>   O                      -7.682245            -1.594019            -9.050073
| 13>   H                      -8.145457            -2.414893            -8.938471
| 14>   H                      -6.074179            -2.331905            -8.002115
| 15>   H                      -6.188625            -2.642796            -9.680107
| 16>   H                      -5.730921            -0.938933            -9.192595
| 17>   C                      -10.667900           -2.676694            -9.261045
| 18>   O                      -10.091336           -3.275970            -8.068997
| 19>   H                      -9.999850            -4.232679            -8.199208
| 20>   H                      -11.752914           -2.897693            -9.329886
| 21>   H                      -10.726048           -1.600290            -9.227443
| 22>   H                      -10.228046           -3.013178            -10.188570
| 23> *
| 24>
| 25> #Run DFT-D3 single point of the molecule with dimer basis set
| 26> $new_job
| 27> %base "9-162_DFT_A"
| 28> ! wB97X-D3 def2-TZVP TIGHTSCF CHELPG PMODEL
| 29>
| 30> %scf
| 31> MaxIter 1000
| 32> end
| 33>
| 34> * xyz 0 1
| 35>   C                      -6.343450            -1.847859            -8.942804
| 36>   O                      -7.682245            -1.594019            -9.050073
| 37>   H                      -8.145457            -2.414893            -8.938471
| 38>   H                      -6.074179            -2.331905            -8.002115
| 39>   H                      -6.188625            -2.642796            -9.680107
| 40>   H                      -5.730921            -0.938933            -9.192595
| 41>   C                    : -10.667900           -2.676694            -9.261045
| 42>   O                    : -10.091336           -3.275970            -8.068997
| 43>   H                    : -9.999850            -4.232679            -8.199208
| 44>   H                    : -11.752914           -2.897693            -9.329886
| 45>   H                    : -10.726048           -1.600290            -9.227443
| 46>   H                    : -10.228046           -3.013178            -10.188570
| 47> *
| 48>
| 49> #Run DFT-D3 single point of the particle with dimer basis set
| 50> $new_job
| 51> %base "9-162_DFT_B"
| 52> ! wB97X-D3 def2-TZVP TIGHTSCF CHELPG PMODEL
| 53>
| 54> %scf
| 55> MaxIter 1000
| 56> end
| 57>
| 58> * xyz 0 1
| 59>   C                    : -6.343450            -1.847859            -8.942804
| 60>   O                    : -7.682245            -1.594019            -9.050073
| 61>   H                    : -8.145457            -2.414893            -8.938471
| 62>   H                    : -6.074179            -2.331905            -8.002115
| 63>   H                    : -6.188625            -2.642796            -9.680107
| 64>   H                    : -5.730921            -0.938933            -9.192595
| 65>   C                      -10.667900           -2.676694            -9.261045
| 66>   O                      -10.091336           -3.275970            -8.068997
| 67>   H                      -9.999850            -4.232679            -8.199208
| 68>   H                      -11.752914           -2.897693            -9.329886
| 69>   H                      -10.726048           -1.600290            -9.227443
| 70>   H                      -10.228046           -3.013178            -10.188570
| 71> *
| 72>
| 73>                          ****END OF INPUT****
 Total Charge           Charge          ....    0
 Multiplicity           Mult            ....    1
 Number of Electrons    NEL             ....   36
Dispersion correction           -0.001760083
FINAL SINGLE POINT ENERGY      -231.465148719640
Dispersion correction           -0.000200057
FINAL SINGLE POINT ENERGY      -115.729314778720

CARTESIAN COORDINATES (ANGSTROEM)
---------------------------------
  C     -6.343450   -1.847859   -8.942804
  O     -7.682245   -1.594019   -9.050073
  H     -8.145457   -2.414893   -8.938471
  H     -6.074179   -2.331905   -8.002115
  H     -6.188625   -2.642796   -9.680107
  H     -5.730921   -0.938933   -9.192595
  C    -10.667900   -2.676694   -9.261045
  O    -10.091336   -3.275970   -8.068997
  H     -9.999850   -4.232679   -8.199208
  H    -11.752914   -2.897693   -9.329886
  H    -10.726048   -1.600290   -9.227443
  H    -10.228046   -3.013178  -10.188570

 Multiplicity           Mult            ....    1
 Number of Electrons    NEL             ....   18
 Basis Dimension        Dim             ....  172

ORBITAL ENERGIES
----------------

  NO   OCC          E(Eh)            E(eV)
   0   2.0000     -19.233415      -523.3678
   1   2.0000     -10.315834      -280.7081
   2   2.0000      -1.122654       -30.5490
   3   2.0000      -0.801038       -21.7974
   4   2.0000      -0.605118       -16.4661
   5   2.0000      -0.539577       -14.6826
   6   2.0000      -0.521143       -14.1810
   7   2.0000      -0.436323       -11.8729
   8   2.0000      -0.373804       -10.1717
   9   0.0000       0.092631         2.5206
  10   0.0000       0.122508         3.3336
  11   0.0000       0.145467         3.9583
  12   0.0000       0.190319         5.1789
  13   0.0000       0.196207         5.3391

MULLIKEN ATOMIC CHARGES
-----------------------
   0 C :    0.000665
   1 O :    0.001970
   2 H :   -0.007592
   3 H :   -0.000317
   4 H :    0.000004
   5 H :   -0.000083
   6 C :   -0.189138
   7 O :   -0.481947
   8 H :    0.317854
   9 H :    0.113536
  10 H :    0.129267
  11 H :    0.115781
Sum of atomic charges:    0.0000000

LOEWDIN ATOMIC CHARGES
----------------------
   0 C :   -0.000736
   1 O :   -0.003535
   2 H :   -0.020313
   3 H :   -0.000116
   4 H :   -0.000021
   5 H :   -0.000015
   6 C :   -0.359038
   7 O :   -0.093416
   8 H :    0.173040
   9 H :    0.101081
  10 H :    0.107795
  11 H :    0.095273

  Mayer bond orders larger than 0.1
B(  6-C ,  7-O ) :   0.9823 B(  6-C ,  9-H ) :   0.9742 B(  6-C , 10-H ) :   0.9749
B(  6-C , 11-H ) :   0.9762 B(  7-O ,  8-H ) :   0.8958

Dispersion correction           -0.000273112
FINAL SINGLE POINT ENERGY      -115.731917278458

DIPOLE MOMENT
-------------
                                X             Y             Z
Electronic contribution:      0.89636      -0.61315       1.55733
Nuclear contribution   :     -1.10498       0.26844      -2.14360
                        -----------------------------------------
Total Dipole Moment    :     -0.20862      -0.34471      -0.58627
                        -----------------------------------------
Magnitude (a.u.)       :      0.71138
Magnitude (Debye)      :      1.80818

Rotational constants in cm-1:     4.444116     0.784900     0.756292
Rotational constants in MHz : 133231.241284 23530.704489 22673.068729

                             ****ORCA TERMINATED NORMALLY****
TOTAL RUN TIME: 0 days 0 hours 0 minutes 46 seconds 438 msec
