                         Program Version 4.1.2  - RELEASE  -
|  1> #Run DFT-D3 single point of the dimer
|  2> ! wB97X-D3 def2-TZVP TIGHTSCF CHELPG PMODEL PAL8
|  3>
|  4> %base "20-109_DFT_AB"
|  5>
|  6> %scf
|  7> MaxIter 1000
|  8> end
|  9>
| 10> * xyz 0 1
| 11>   C                      1.310873             5.480661             -10.596627
| 12>   O                      0.747847             6.689534             -11.032154
| 13>   H                      0.824475             7.305448             -10.293095
| 14>   H                      1.374526             4.828493             -11.516798
| 15>   H                      2.282109             5.512912             -10.040844
| 16>   H                      0.718205             4.863651             -9.854394
| 17>   C                      -1.844517            7.549200             -9.476446
| 18>   O                      -1.036996            7.131007             -8.381999
| 19>   H                      -0.835735            6.198937             -8.380334
| 20>   H                      -1.412930            7.143828             -10.437911
| 21>   H                      -2.886758            7.176697             -9.499812
| 22>   H                      -1.964546            8.643857             -9.423512
| 23> *
| 24>
| 25> #Run DFT-D3 single point of the molecule with dimer basis set
| 26> $new_job
| 27> %base "20-109_DFT_A"
| 28> ! wB97X-D3 def2-TZVP TIGHTSCF CHELPG PMODEL
| 29>
| 30> %scf
| 31> MaxIter 1000
| 32> end
| 33>
| 34> * xyz 0 1
| 35>   C                      1.310873             5.480661             -10.596627
| 36>   O                      0.747847             6.689534             -11.032154
| 37>   H                      0.824475             7.305448             -10.293095
| 38>   H                      1.374526             4.828493             -11.516798
| 39>   H                      2.282109             5.512912             -10.040844
| 40>   H                      0.718205             4.863651             -9.854394
| 41>   C                    : -1.844517            7.549200             -9.476446
| 42>   O                    : -1.036996            7.131007             -8.381999
| 43>   H                    : -0.835735            6.198937             -8.380334
| 44>   H                    : -1.412930            7.143828             -10.437911
| 45>   H                    : -2.886758            7.176697             -9.499812
| 46>   H                    : -1.964546            8.643857             -9.423512
| 47> *
| 48>
| 49> #Run DFT-D3 single point of the particle with dimer basis set
| 50> $new_job
| 51> %base "20-109_DFT_B"
| 52> ! wB97X-D3 def2-TZVP TIGHTSCF CHELPG PMODEL
| 53>
| 54> %scf
| 55> MaxIter 1000
| 56> end
| 57>
| 58> * xyz 0 1
| 59>   C                    : 1.310873             5.480661             -10.596627
| 60>   O                    : 0.747847             6.689534             -11.032154
| 61>   H                    : 0.824475             7.305448             -10.293095
| 62>   H                    : 1.374526             4.828493             -11.516798
| 63>   H                    : 2.282109             5.512912             -10.040844
| 64>   H                    : 0.718205             4.863651             -9.854394
| 65>   C                      -1.844517            7.549200             -9.476446
| 66>   O                      -1.036996            7.131007             -8.381999
| 67>   H                      -0.835735            6.198937             -8.380334
| 68>   H                      -1.412930            7.143828             -10.437911
| 69>   H                      -2.886758            7.176697             -9.499812
| 70>   H                      -1.964546            8.643857             -9.423512
| 71> *
| 72>
| 73>                          ****END OF INPUT****
 Total Charge           Charge          ....    0
 Multiplicity           Mult            ....    1
 Number of Electrons    NEL             ....   36
Dispersion correction           -0.002308239
FINAL SINGLE POINT ENERGY      -231.467949926122
Dispersion correction           -0.000273355
FINAL SINGLE POINT ENERGY      -115.731568810774

CARTESIAN COORDINATES (ANGSTROEM)
---------------------------------
  C      1.310873    5.480661  -10.596627
  O      0.747847    6.689534  -11.032154
  H      0.824475    7.305448  -10.293095
  H      1.374526    4.828493  -11.516798
  H      2.282109    5.512912  -10.040844
  H      0.718205    4.863651   -9.854394
  C     -1.844517    7.549200   -9.476446
  O     -1.036996    7.131007   -8.381999
  H     -0.835735    6.198937   -8.380334
  H     -1.412930    7.143828  -10.437911
  H     -2.886758    7.176697   -9.499812
  H     -1.964546    8.643857   -9.423512

 Multiplicity           Mult            ....    1
 Number of Electrons    NEL             ....   18
 Basis Dimension        Dim             ....  172

ORBITAL ENERGIES
----------------

  NO   OCC          E(Eh)            E(eV)
   0   2.0000     -19.230297      -523.2830
   1   2.0000     -10.321741      -280.8689
   2   2.0000      -1.132358       -30.8130
   3   2.0000      -0.796253       -21.6672
   4   2.0000      -0.614348       -16.7173
   5   2.0000      -0.539470       -14.6797
   6   2.0000      -0.518675       -14.1139
   7   2.0000      -0.432276       -11.7628
   8   2.0000      -0.371238       -10.1019
   9   0.0000       0.077736         2.1153
  10   0.0000       0.139199         3.7878
  11   0.0000       0.143487         3.9045
  12   0.0000       0.177973         4.8429
  13   0.0000       0.184918         5.0319

MULLIKEN ATOMIC CHARGES
-----------------------
   0 C :   -0.004561
   1 O :    0.002128
   2 H :   -0.000150
   3 H :   -0.000130
   4 H :    0.000536
   5 H :   -0.001984
   6 C :   -0.151581
   7 O :   -0.482717
   8 H :    0.316497
   9 H :    0.089467
  10 H :    0.103553
  11 H :    0.128941
Sum of atomic charges:   -0.0000000

LOEWDIN ATOMIC CHARGES
----------------------
   0 C :   -0.005856
   1 O :   -0.011196
   2 H :   -0.008967
   3 H :   -0.000068
   4 H :   -0.000065
   5 H :   -0.002265
   6 C :   -0.377124
   7 O :   -0.071407
   8 H :    0.162374
   9 H :    0.107097
  10 H :    0.094520
  11 H :    0.112957

  Mayer bond orders larger than 0.1
B(  6-C ,  7-O ) :   0.9905 B(  6-C ,  9-H ) :   0.9786 B(  6-C , 10-H ) :   0.9702
B(  6-C , 11-H ) :   0.9736 B(  7-O ,  8-H ) :   0.8974

Dispersion correction           -0.000271357
FINAL SINGLE POINT ENERGY      -115.732962990384

DIPOLE MOMENT
-------------
                                X             Y             Z
Electronic contribution:      1.05965      -0.36600       1.48219
Nuclear contribution   :     -1.27919      -0.06660      -1.90804
                        -----------------------------------------
Total Dipole Moment    :     -0.21954      -0.43260      -0.42585
                        -----------------------------------------
Magnitude (a.u.)       :      0.64551
Magnitude (Debye)      :      1.64076

Rotational constants in cm-1:     4.296772     0.814144     0.777126
Rotational constants in MHz : 128813.975890 24407.433106 23297.660258

                             ****ORCA TERMINATED NORMALLY****
TOTAL RUN TIME: 0 days 0 hours 1 minutes 8 seconds 100 msec
