                         Program Version 4.1.2  - RELEASE  -
|  1> #Run DFT-D3 single point of the dimer
|  2> ! wB97X-D3 def2-TZVP TIGHTSCF CHELPG PMODEL PAL8
|  3>
|  4> %base "17-40_DFT_AB"
|  5>
|  6> %scf
|  7> MaxIter 1000
|  8> end
|  9>
| 10> * xyz 0 1
| 11>   C                      -11.061836           -2.606470            -4.644816
| 12>   O                      -10.141956           -2.658420            -5.709561
| 13>   H                      -9.563849            -3.404879            -5.487740
| 14>   H                      -11.760266           -1.855055            -4.820786
| 15>   H                      -11.555235           -3.625237            -4.519928
| 16>   H                      -10.483612           -2.275485            -3.754695
| 17>   C                      -7.888713            -5.727000            -3.737415
| 18>   O                      -8.341273            -5.141352            -4.937260
| 19>   H                      -8.252618            -5.898438            -5.536439
| 20>   H                      -8.623522            -6.521317            -3.411328
| 21>   H                      -6.856428            -6.102302            -3.832403
| 22>   H                      -7.939163            -4.972137            -2.941490
| 23> *
| 24>
| 25> #Run DFT-D3 single point of the molecule with dimer basis set
| 26> $new_job
| 27> %base "17-40_DFT_A"
| 28> ! wB97X-D3 def2-TZVP TIGHTSCF CHELPG PMODEL
| 29>
| 30> %scf
| 31> MaxIter 1000
| 32> end
| 33>
| 34> * xyz 0 1
| 35>   C                      -11.061836           -2.606470            -4.644816
| 36>   O                      -10.141956           -2.658420            -5.709561
| 37>   H                      -9.563849            -3.404879            -5.487740
| 38>   H                      -11.760266           -1.855055            -4.820786
| 39>   H                      -11.555235           -3.625237            -4.519928
| 40>   H                      -10.483612           -2.275485            -3.754695
| 41>   C                    : -7.888713            -5.727000            -3.737415
| 42>   O                    : -8.341273            -5.141352            -4.937260
| 43>   H                    : -8.252618            -5.898438            -5.536439
| 44>   H                    : -8.623522            -6.521317            -3.411328
| 45>   H                    : -6.856428            -6.102302            -3.832403
| 46>   H                    : -7.939163            -4.972137            -2.941490
| 47> *
| 48>
| 49> #Run DFT-D3 single point of the particle with dimer basis set
| 50> $new_job
| 51> %base "17-40_DFT_B"
| 52> ! wB97X-D3 def2-TZVP TIGHTSCF CHELPG PMODEL
| 53>
| 54> %scf
| 55> MaxIter 1000
| 56> end
| 57>
| 58> * xyz 0 1
| 59>   C                    : -11.061836           -2.606470            -4.644816
| 60>   O                    : -10.141956           -2.658420            -5.709561
| 61>   H                    : -9.563849            -3.404879            -5.487740
| 62>   H                    : -11.760266           -1.855055            -4.820786
| 63>   H                    : -11.555235           -3.625237            -4.519928
| 64>   H                    : -10.483612           -2.275485            -3.754695
| 65>   C                      -7.888713            -5.727000            -3.737415
| 66>   O                      -8.341273            -5.141352            -4.937260
| 67>   H                      -8.252618            -5.898438            -5.536439
| 68>   H                      -8.623522            -6.521317            -3.411328
| 69>   H                      -6.856428            -6.102302            -3.832403
| 70>   H                      -7.939163            -4.972137            -2.941490
| 71> *
| 72>
| 73>                          ****END OF INPUT****
 Total Charge           Charge          ....    0
 Multiplicity           Mult            ....    1
 Number of Electrons    NEL             ....   36
Dispersion correction           -0.001520034
FINAL SINGLE POINT ENERGY      -231.473277818350
Dispersion correction           -0.000213336
FINAL SINGLE POINT ENERGY      -115.731772746523

CARTESIAN COORDINATES (ANGSTROEM)
---------------------------------
  C    -11.061836   -2.606470   -4.644816
  O    -10.141956   -2.658420   -5.709561
  H     -9.563849   -3.404879   -5.487740
  H    -11.760266   -1.855055   -4.820786
  H    -11.555235   -3.625237   -4.519928
  H    -10.483612   -2.275485   -3.754695
  C     -7.888713   -5.727000   -3.737415
  O     -8.341273   -5.141352   -4.937260
  H     -8.252618   -5.898438   -5.536439
  H     -8.623522   -6.521317   -3.411328
  H     -6.856428   -6.102302   -3.832403
  H     -7.939163   -4.972137   -2.941490

 Multiplicity           Mult            ....    1
 Number of Electrons    NEL             ....   18
 Basis Dimension        Dim             ....  172

ORBITAL ENERGIES
----------------

  NO   OCC          E(Eh)            E(eV)
   0   2.0000     -19.234063      -523.3855
   1   2.0000     -10.317923      -280.7650
   2   2.0000      -1.142340       -31.0847
   3   2.0000      -0.786894       -21.4125
   4   2.0000      -0.606734       -16.5101
   5   2.0000      -0.547191       -14.8898
   6   2.0000      -0.524771       -14.2797
   7   2.0000      -0.438261       -11.9257
   8   2.0000      -0.374672       -10.1953
   9   0.0000       0.097050         2.6409
  10   0.0000       0.122555         3.3349
  11   0.0000       0.153980         4.1900
  12   0.0000       0.186346         5.0707
  13   0.0000       0.196310         5.3419

MULLIKEN ATOMIC CHARGES
-----------------------
   0 C :    0.001557
   1 O :   -0.000021
   2 H :   -0.008992
   3 H :   -0.000219
   4 H :   -0.001759
   5 H :   -0.000435
   6 C :   -0.174701
   7 O :   -0.449331
   8 H :    0.312306
   9 H :    0.100060
  10 H :    0.105696
  11 H :    0.115838
Sum of atomic charges:    0.0000000

LOEWDIN ATOMIC CHARGES
----------------------
   0 C :   -0.002217
   1 O :   -0.001879
   2 H :   -0.024935
   3 H :   -0.000037
   4 H :   -0.000687
   5 H :   -0.000088
   6 C :   -0.400301
   7 O :   -0.054208
   8 H :    0.178758
   9 H :    0.100995
  10 H :    0.097103
  11 H :    0.107496

  Mayer bond orders larger than 0.1
B(  6-C ,  7-O ) :   0.9921 B(  6-C ,  9-H ) :   0.9755 B(  6-C , 10-H ) :   0.9687
B(  6-C , 11-H ) :   0.9777 B(  7-O ,  8-H ) :   0.9005

Dispersion correction           -0.000219115
FINAL SINGLE POINT ENERGY      -115.733995703095

DIPOLE MOMENT
-------------
                                X             Y             Z
Electronic contribution:     -0.51680       0.90597      -1.51039
Nuclear contribution   :      0.74884      -1.57351       1.60658
                        -----------------------------------------
Total Dipole Moment    :      0.23204      -0.66755       0.09619
                        -----------------------------------------
Magnitude (a.u.)       :      0.71324
Magnitude (Debye)      :      1.81292

Rotational constants in cm-1:     4.066090     0.842750     0.816033
Rotational constants in MHz : 121898.304299 25265.001490 24464.048875

                             ****ORCA TERMINATED NORMALLY****
TOTAL RUN TIME: 0 days 0 hours 1 minutes 11 seconds 641 msec
