                         Program Version 4.1.2  - RELEASE  -
|  1> #Run DFT-D3 single point of the dimer
|  2> ! wB97X-D3 def2-TZVP TIGHTSCF CHELPG PMODEL PAL8
|  3>
|  4> %base "9-4_DFT_AB"
|  5>
|  6> %scf
|  7> MaxIter 1000
|  8> end
|  9>
| 10> * xyz 0 1
| 11>   C                      5.326910             4.806322             -3.533113
| 12>   O                      6.034877             3.972360             -4.447765
| 13>   H                      6.237275             3.163824             -3.960999
| 14>   H                      6.014065             5.326131             -2.833834
| 15>   H                      4.817935             5.581777             -4.157801
| 16>   H                      4.623172             4.233674             -2.922331
| 17>   C                      3.170945             0.983623             -6.569867
| 18>   O                      4.280881             0.472252             -5.817686
| 19>   H                      4.458388             1.056046             -5.107771
| 20>   H                      3.371466             2.121854             -6.607864
| 21>   H                      3.348184             0.656798             -7.618752
| 22>   H                      2.126035             0.707362             -6.156423
| 23> *
| 24>
| 25> #Run DFT-D3 single point of the molecule with dimer basis set
| 26> $new_job
| 27> %base "9-4_DFT_A"
| 28> ! wB97X-D3 def2-TZVP TIGHTSCF CHELPG PMODEL
| 29>
| 30> %scf
| 31> MaxIter 1000
| 32> end
| 33>
| 34> * xyz 0 1
| 35>   C                      5.326910             4.806322             -3.533113
| 36>   O                      6.034877             3.972360             -4.447765
| 37>   H                      6.237275             3.163824             -3.960999
| 38>   H                      6.014065             5.326131             -2.833834
| 39>   H                      4.817935             5.581777             -4.157801
| 40>   H                      4.623172             4.233674             -2.922331
| 41>   C                    : 3.170945             0.983623             -6.569867
| 42>   O                    : 4.280881             0.472252             -5.817686
| 43>   H                    : 4.458388             1.056046             -5.107771
| 44>   H                    : 3.371466             2.121854             -6.607864
| 45>   H                    : 3.348184             0.656798             -7.618752
| 46>   H                    : 2.126035             0.707362             -6.156423
| 47> *
| 48>
| 49> #Run DFT-D3 single point of the particle with dimer basis set
| 50> $new_job
| 51> %base "9-4_DFT_B"
| 52> ! wB97X-D3 def2-TZVP TIGHTSCF CHELPG PMODEL
| 53>
| 54> %scf
| 55> MaxIter 1000
| 56> end
| 57>
| 58> * xyz 0 1
| 59>   C                    : 5.326910             4.806322             -3.533113
| 60>   O                    : 6.034877             3.972360             -4.447765
| 61>   H                    : 6.237275             3.163824             -3.960999
| 62>   H                    : 6.014065             5.326131             -2.833834
| 63>   H                    : 4.817935             5.581777             -4.157801
| 64>   H                    : 4.623172             4.233674             -2.922331
| 65>   C                      3.170945             0.983623             -6.569867
| 66>   O                      4.280881             0.472252             -5.817686
| 67>   H                      4.458388             1.056046             -5.107771
| 68>   H                      3.371466             2.121854             -6.607864
| 69>   H                      3.348184             0.656798             -7.618752
| 70>   H                      2.126035             0.707362             -6.156423
| 71> *
| 72>
| 73>                          ****END OF INPUT****
 Total Charge           Charge          ....    0
 Multiplicity           Mult            ....    1
 Number of Electrons    NEL             ....   36
Dispersion correction           -0.001115265
FINAL SINGLE POINT ENERGY      -231.464251780562
Dispersion correction           -0.000242129
FINAL SINGLE POINT ENERGY      -115.736181275979

CARTESIAN COORDINATES (ANGSTROEM)
---------------------------------
  C      5.326910    4.806322   -3.533113
  O      6.034877    3.972360   -4.447765
  H      6.237275    3.163824   -3.960999
  H      6.014065    5.326131   -2.833834
  H      4.817935    5.581777   -4.157801
  H      4.623172    4.233674   -2.922331
  C      3.170945    0.983623   -6.569867
  O      4.280881    0.472252   -5.817686
  H      4.458388    1.056046   -5.107771
  H      3.371466    2.121854   -6.607864
  H      3.348184    0.656798   -7.618752
  H      2.126035    0.707362   -6.156423

 Multiplicity           Mult            ....    1
 Number of Electrons    NEL             ....   18
 Basis Dimension        Dim             ....  172

ORBITAL ENERGIES
----------------

  NO   OCC          E(Eh)            E(eV)
   0   2.0000     -19.226265      -523.1733
   1   2.0000     -10.331364      -281.1307
   2   2.0000      -1.134666       -30.8758
   3   2.0000      -0.787492       -21.4287
   4   2.0000      -0.602872       -16.4050
   5   2.0000      -0.541225       -14.7275
   6   2.0000      -0.520900       -14.1744
   7   2.0000      -0.424775       -11.5587
   8   2.0000      -0.375589       -10.2203
   9   0.0000       0.070622         1.9217
  10   0.0000       0.120244         3.2720
  11   0.0000       0.144439         3.9304
  12   0.0000       0.177048         4.8177
  13   0.0000       0.178869         4.8673

MULLIKEN ATOMIC CHARGES
-----------------------
   0 C :    0.000000
   1 O :   -0.000161
   2 H :   -0.000453
   3 H :   -0.000002
   4 H :   -0.000029
   5 H :   -0.000048
   6 C :   -0.175666
   7 O :   -0.472329
   8 H :    0.311107
   9 H :    0.103913
  10 H :    0.125243
  11 H :    0.108425
Sum of atomic charges:   -0.0000000

LOEWDIN ATOMIC CHARGES
----------------------
   0 C :   -0.000128
   1 O :   -0.000269
   2 H :   -0.000730
   3 H :   -0.000002
   4 H :   -0.000014
   5 H :   -0.000033
   6 C :   -0.384829
   7 O :   -0.086498
   8 H :    0.148281
   9 H :    0.107146
  10 H :    0.110865
  11 H :    0.106211

  Mayer bond orders larger than 0.1
B(  6-C ,  7-O ) :   0.9939 B(  6-C ,  9-H ) :   0.9877 B(  6-C , 10-H ) :   0.9725
B(  6-C , 11-H ) :   0.9569 B(  7-O ,  8-H ) :   0.9071

Dispersion correction           -0.000261784
FINAL SINGLE POINT ENERGY      -115.727427350447

DIPOLE MOMENT
-------------
                                X             Y             Z
Electronic contribution:      1.26500      -0.86860       0.89438
Nuclear contribution   :     -1.56313       1.45240      -0.75742
                        -----------------------------------------
Total Dipole Moment    :     -0.29813       0.58380       0.13695
                        -----------------------------------------
Magnitude (a.u.)       :      0.66967
Magnitude (Debye)      :      1.70218

Rotational constants in cm-1:     3.959218     0.805193     0.791118
Rotational constants in MHz : 118694.368942 24139.063877 23717.124898

                             ****ORCA TERMINATED NORMALLY****
TOTAL RUN TIME: 0 days 0 hours 0 minutes 40 seconds 630 msec
