                         Program Version 4.1.2  - RELEASE  -
|  1> #Run DFT-D3 single point of the dimer
|  2> ! wB97X-D3 def2-TZVP TIGHTSCF CHELPG PMODEL PAL8
|  3>
|  4> %base "3-40_DFT_AB"
|  5>
|  6> %scf
|  7> MaxIter 1000
|  8> end
|  9>
| 10> * xyz 0 1
| 11>   C                      -3.289817            3.839313             -6.482746
| 12>   O                      -4.185576            4.250906             -7.462851
| 13>   H                      -4.707539            3.455339             -7.545012
| 14>   H                      -3.645948            3.191517             -5.758856
| 15>   H                      -2.405513            3.242529             -6.901142
| 16>   H                      -2.662676            4.632680             -6.020365
| 17>   C                      -2.126235            -0.360681            -2.637112
| 18>   O                      -1.117700            -1.154782            -3.243928
| 19>   H                      -0.344218            -1.171476            -2.675353
| 20>   H                      -2.847046            -0.072665            -3.423563
| 21>   H                      -2.661588            -0.937043            -1.872576
| 22>   H                      -1.636193            0.528980             -2.202952
| 23> *
| 24>
| 25> #Run DFT-D3 single point of the molecule with dimer basis set
| 26> $new_job
| 27> %base "3-40_DFT_A"
| 28> ! wB97X-D3 def2-TZVP TIGHTSCF CHELPG PMODEL
| 29>
| 30> %scf
| 31> MaxIter 1000
| 32> end
| 33>
| 34> * xyz 0 1
| 35>   C                      -3.289817            3.839313             -6.482746
| 36>   O                      -4.185576            4.250906             -7.462851
| 37>   H                      -4.707539            3.455339             -7.545012
| 38>   H                      -3.645948            3.191517             -5.758856
| 39>   H                      -2.405513            3.242529             -6.901142
| 40>   H                      -2.662676            4.632680             -6.020365
| 41>   C                    : -2.126235            -0.360681            -2.637112
| 42>   O                    : -1.117700            -1.154782            -3.243928
| 43>   H                    : -0.344218            -1.171476            -2.675353
| 44>   H                    : -2.847046            -0.072665            -3.423563
| 45>   H                    : -2.661588            -0.937043            -1.872576
| 46>   H                    : -1.636193            0.528980             -2.202952
| 47> *
| 48>
| 49> #Run DFT-D3 single point of the particle with dimer basis set
| 50> $new_job
| 51> %base "3-40_DFT_B"
| 52> ! wB97X-D3 def2-TZVP TIGHTSCF CHELPG PMODEL
| 53>
| 54> %scf
| 55> MaxIter 1000
| 56> end
| 57>
| 58> * xyz 0 1
| 59>   C                    : -3.289817            3.839313             -6.482746
| 60>   O                    : -4.185576            4.250906             -7.462851
| 61>   H                    : -4.707539            3.455339             -7.545012
| 62>   H                    : -3.645948            3.191517             -5.758856
| 63>   H                    : -2.405513            3.242529             -6.901142
| 64>   H                    : -2.662676            4.632680             -6.020365
| 65>   C                      -2.126235            -0.360681            -2.637112
| 66>   O                      -1.117700            -1.154782            -3.243928
| 67>   H                      -0.344218            -1.171476            -2.675353
| 68>   H                      -2.847046            -0.072665            -3.423563
| 69>   H                      -2.661588            -0.937043            -1.872576
| 70>   H                      -1.636193            0.528980             -2.202952
| 71> *
| 72>
| 73>                          ****END OF INPUT****
 Total Charge           Charge          ....    0
 Multiplicity           Mult            ....    1
 Number of Electrons    NEL             ....   36
Dispersion correction           -0.000602584
FINAL SINGLE POINT ENERGY      -231.459888629761
Dispersion correction           -0.000235394
FINAL SINGLE POINT ENERGY      -115.723654716328

CARTESIAN COORDINATES (ANGSTROEM)
---------------------------------
  C     -3.289817    3.839313   -6.482746
  O     -4.185576    4.250906   -7.462851
  H     -4.707539    3.455339   -7.545012
  H     -3.645948    3.191517   -5.758856
  H     -2.405513    3.242529   -6.901142
  H     -2.662676    4.632680   -6.020365
  C     -2.126235   -0.360681   -2.637112
  O     -1.117700   -1.154782   -3.243928
  H     -0.344218   -1.171476   -2.675353
  H     -2.847046   -0.072665   -3.423563
  H     -2.661588   -0.937043   -1.872576
  H     -1.636193    0.528980   -2.202952

 Multiplicity           Mult            ....    1
 Number of Electrons    NEL             ....   18
 Basis Dimension        Dim             ....  172

ORBITAL ENERGIES
----------------

  NO   OCC          E(Eh)            E(eV)
   0   2.0000     -19.225971      -523.1653
   1   2.0000     -10.316169      -280.7172
   2   2.0000      -1.132242       -30.8099
   3   2.0000      -0.792348       -21.5609
   4   2.0000      -0.606565       -16.5055
   5   2.0000      -0.543360       -14.7856
   6   2.0000      -0.526430       -14.3249
   7   2.0000      -0.430320       -11.7096
   8   2.0000      -0.371553       -10.1105
   9   0.0000       0.086542         2.3549
  10   0.0000       0.114210         3.1078
  11   0.0000       0.149606         4.0710
  12   0.0000       0.166786         4.5385
  13   0.0000       0.186111         5.0643

MULLIKEN ATOMIC CHARGES
-----------------------
   0 C :    0.000042
   1 O :   -0.000000
   2 H :   -0.000000
   3 H :   -0.000110
   4 H :   -0.000005
   5 H :   -0.000002
   6 C :   -0.154214
   7 O :   -0.481941
   8 H :    0.313584
   9 H :    0.120532
  10 H :    0.100857
  11 H :    0.101257
Sum of atomic charges:   -0.0000000

LOEWDIN ATOMIC CHARGES
----------------------
   0 C :   -0.000016
   1 O :   -0.000000
   2 H :   -0.000000
   3 H :   -0.000051
   4 H :   -0.000002
   5 H :   -0.000000
   6 C :   -0.379713
   7 O :   -0.088350
   8 H :    0.165849
   9 H :    0.110598
  10 H :    0.094013
  11 H :    0.097672

  Mayer bond orders larger than 0.1
B(  6-C ,  7-O ) :   0.9963 B(  6-C ,  9-H ) :   0.9728 B(  6-C , 10-H ) :   0.9715
B(  6-C , 11-H ) :   0.9841 B(  7-O ,  8-H ) :   0.8999

Dispersion correction           -0.000235215
FINAL SINGLE POINT ENERGY      -115.736070233687

DIPOLE MOMENT
-------------
                                X             Y             Z
Electronic contribution:      1.13866      -0.99472      -0.84016
Nuclear contribution   :     -1.04962       1.31039       1.43910
                        -----------------------------------------
Total Dipole Moment    :      0.08905       0.31566       0.59894
                        -----------------------------------------
Magnitude (a.u.)       :      0.68286
Magnitude (Debye)      :      1.73569

Rotational constants in cm-1:     4.167134     0.831659     0.801138
Rotational constants in MHz : 124927.536966 24932.521319 24017.505871

                             ****ORCA TERMINATED NORMALLY****
TOTAL RUN TIME: 0 days 0 hours 6 minutes 20 seconds 219 msec
