                         Program Version 4.1.2  - RELEASE  -
|  1> #Run DFT-D3 single point of the dimer
|  2> ! wB97X-D3 def2-TZVP TIGHTSCF CHELPG PMODEL PAL8
|  3>
|  4> %base "6-130_DFT_AB"
|  5>
|  6> %scf
|  7> MaxIter 1000
|  8> end
|  9>
| 10> * xyz 0 1
| 11>   C                      -1.936839            -7.101095            -2.876770
| 12>   O                      -3.061484            -6.946725            -2.043370
| 13>   H                      -3.335684            -6.055807            -2.122500
| 14>   H                      -1.004453            -6.991422            -2.356135
| 15>   H                      -1.884352            -8.095574            -3.432958
| 16>   H                      -1.945391            -6.367581            -3.715468
| 17>   C                      -2.824209            -7.043111            1.849998
| 18>   O                      -2.415118            -5.932369            1.193276
| 19>   H                      -1.603743            -6.021471            0.731254
| 20>   H                      -1.950311            -7.530693            2.177517
| 21>   H                      -3.591103            -6.913765            2.613869
| 22>   H                      -3.313529            -7.756251            1.091547
| 23> *
| 24>
| 25> #Run DFT-D3 single point of the molecule with dimer basis set
| 26> $new_job
| 27> %base "6-130_DFT_A"
| 28> ! wB97X-D3 def2-TZVP TIGHTSCF CHELPG PMODEL
| 29>
| 30> %scf
| 31> MaxIter 1000
| 32> end
| 33>
| 34> * xyz 0 1
| 35>   C                      -1.936839            -7.101095            -2.876770
| 36>   O                      -3.061484            -6.946725            -2.043370
| 37>   H                      -3.335684            -6.055807            -2.122500
| 38>   H                      -1.004453            -6.991422            -2.356135
| 39>   H                      -1.884352            -8.095574            -3.432958
| 40>   H                      -1.945391            -6.367581            -3.715468
| 41>   C                    : -2.824209            -7.043111            1.849998
| 42>   O                    : -2.415118            -5.932369            1.193276
| 43>   H                    : -1.603743            -6.021471            0.731254
| 44>   H                    : -1.950311            -7.530693            2.177517
| 45>   H                    : -3.591103            -6.913765            2.613869
| 46>   H                    : -3.313529            -7.756251            1.091547
| 47> *
| 48>
| 49> #Run DFT-D3 single point of the particle with dimer basis set
| 50> $new_job
| 51> %base "6-130_DFT_B"
| 52> ! wB97X-D3 def2-TZVP TIGHTSCF CHELPG PMODEL
| 53>
| 54> %scf
| 55> MaxIter 1000
| 56> end
| 57>
| 58> * xyz 0 1
| 59>   C                    : -1.936839            -7.101095            -2.876770
| 60>   O                    : -3.061484            -6.946725            -2.043370
| 61>   H                    : -3.335684            -6.055807            -2.122500
| 62>   H                    : -1.004453            -6.991422            -2.356135
| 63>   H                    : -1.884352            -8.095574            -3.432958
| 64>   H                    : -1.945391            -6.367581            -3.715468
| 65>   C                      -2.824209            -7.043111            1.849998
| 66>   O                      -2.415118            -5.932369            1.193276
| 67>   H                      -1.603743            -6.021471            0.731254
| 68>   H                      -1.950311            -7.530693            2.177517
| 69>   H                      -3.591103            -6.913765            2.613869
| 70>   H                      -3.313529            -7.756251            1.091547
| 71> *
| 72>
| 73>                          ****END OF INPUT****
 Total Charge           Charge          ....    0
 Multiplicity           Mult            ....    1
 Number of Electrons    NEL             ....   36
Dispersion correction           -0.001516954
FINAL SINGLE POINT ENERGY      -231.459586211424
Dispersion correction           -0.000252825
FINAL SINGLE POINT ENERGY      -115.732612977886

CARTESIAN COORDINATES (ANGSTROEM)
---------------------------------
  C     -1.936839   -7.101095   -2.876770
  O     -3.061484   -6.946725   -2.043370
  H     -3.335684   -6.055807   -2.122500
  H     -1.004453   -6.991422   -2.356135
  H     -1.884352   -8.095574   -3.432958
  H     -1.945391   -6.367581   -3.715468
  C     -2.824209   -7.043111    1.849998
  O     -2.415118   -5.932369    1.193276
  H     -1.603743   -6.021471    0.731254
  H     -1.950311   -7.530693    2.177517
  H     -3.591103   -6.913765    2.613869
  H     -3.313529   -7.756251    1.091547

 Multiplicity           Mult            ....    1
 Number of Electrons    NEL             ....   18
 Basis Dimension        Dim             ....  172

ORBITAL ENERGIES
----------------

  NO   OCC          E(Eh)            E(eV)
   0   2.0000     -19.224127      -523.1151
   1   2.0000     -10.310432      -280.5611
   2   2.0000      -1.156504       -31.4701
   3   2.0000      -0.798463       -21.7273
   4   2.0000      -0.627383       -17.0720
   5   2.0000      -0.554447       -15.0873
   6   2.0000      -0.535845       -14.5811
   7   2.0000      -0.423411       -11.5216
   8   2.0000      -0.362299        -9.8587
   9   0.0000       0.078662         2.1405
  10   0.0000       0.125715         3.4209
  11   0.0000       0.152232         4.1425
  12   0.0000       0.168211         4.5773
  13   0.0000       0.190684         5.1888

MULLIKEN ATOMIC CHARGES
-----------------------
   0 C :   -0.000761
   1 O :   -0.000471
   2 H :   -0.001197
   3 H :   -0.000550
   4 H :   -0.000028
   5 H :    0.000029
   6 C :   -0.145144
   7 O :   -0.470230
   8 H :    0.319652
   9 H :    0.099672
  10 H :    0.120084
  11 H :    0.078943
Sum of atomic charges:   -0.0000000

LOEWDIN ATOMIC CHARGES
----------------------
   0 C :   -0.000853
   1 O :   -0.001815
   2 H :   -0.001482
   3 H :   -0.000368
   4 H :   -0.000010
   5 H :   -0.000006
   6 C :   -0.423958
   7 O :   -0.022363
   8 H :    0.159494
   9 H :    0.086969
  10 H :    0.106724
  11 H :    0.097670

  Mayer bond orders larger than 0.1
B(  6-C ,  7-O ) :   1.0023 B(  6-C ,  9-H ) :   0.9938 B(  6-C , 10-H ) :   0.9668
B(  6-C , 11-H ) :   0.9792 B(  7-O ,  8-H ) :   0.8945

Dispersion correction           -0.000218024
FINAL SINGLE POINT ENERGY      -115.725619489680

DIPOLE MOMENT
-------------
                                X             Y             Z
Electronic contribution:      0.49165       1.65490      -0.60996
Nuclear contribution   :     -0.07652      -2.11382       0.58160
                        -----------------------------------------
Total Dipole Moment    :      0.41513      -0.45892      -0.02836
                        -----------------------------------------
Magnitude (a.u.)       :      0.61947
Magnitude (Debye)      :      1.57457

Rotational constants in cm-1:     4.424594     0.885902     0.853776
Rotational constants in MHz : 132646.000073 26558.679600 25595.569549

                             ****ORCA TERMINATED NORMALLY****
TOTAL RUN TIME: 0 days 0 hours 1 minutes 2 seconds 922 msec
