                         Program Version 4.1.2  - RELEASE  -
|  1> #Run DFT-D3 single point of the dimer
|  2> ! wB97X-D3 def2-TZVP TIGHTSCF CHELPG PMODEL PAL8
|  3>
|  4> %base "10-130_DFT_AB"
|  5>
|  6> %scf
|  7> MaxIter 1000
|  8> end
|  9>
| 10> * xyz 0 1
| 11>   C                      -4.428457            9.457185             6.975211
| 12>   O                      -3.977799            8.276667             7.423609
| 13>   H                      -3.298247            8.485323             8.074216
| 14>   H                      -3.876182            10.238919            7.490986
| 15>   H                      -4.354874            9.603095             5.907255
| 16>   H                      -5.539428            9.552613             7.158782
| 17>   C                      -0.316782            6.480354             7.339445
| 18>   O                      -0.796057            6.418190             8.705326
| 19>   H                      -1.159090            7.322164             8.853414
| 20>   H                      0.790307             6.282609             7.339717
| 21>   H                      -0.731684            5.736807             6.688300
| 22>   H                      -0.368554            7.499129             6.910109
| 23> *
| 24>
| 25> #Run DFT-D3 single point of the molecule with dimer basis set
| 26> $new_job
| 27> %base "10-130_DFT_A"
| 28> ! wB97X-D3 def2-TZVP TIGHTSCF CHELPG PMODEL
| 29>
| 30> %scf
| 31> MaxIter 1000
| 32> end
| 33>
| 34> * xyz 0 1
| 35>   C                      -4.428457            9.457185             6.975211
| 36>   O                      -3.977799            8.276667             7.423609
| 37>   H                      -3.298247            8.485323             8.074216
| 38>   H                      -3.876182            10.238919            7.490986
| 39>   H                      -4.354874            9.603095             5.907255
| 40>   H                      -5.539428            9.552613             7.158782
| 41>   C                    : -0.316782            6.480354             7.339445
| 42>   O                    : -0.796057            6.418190             8.705326
| 43>   H                    : -1.159090            7.322164             8.853414
| 44>   H                    : 0.790307             6.282609             7.339717
| 45>   H                    : -0.731684            5.736807             6.688300
| 46>   H                    : -0.368554            7.499129             6.910109
| 47> *
| 48>
| 49> #Run DFT-D3 single point of the particle with dimer basis set
| 50> $new_job
| 51> %base "10-130_DFT_B"
| 52> ! wB97X-D3 def2-TZVP TIGHTSCF CHELPG PMODEL
| 53>
| 54> %scf
| 55> MaxIter 1000
| 56> end
| 57>
| 58> * xyz 0 1
| 59>   C                    : -4.428457            9.457185             6.975211
| 60>   O                    : -3.977799            8.276667             7.423609
| 61>   H                    : -3.298247            8.485323             8.074216
| 62>   H                    : -3.876182            10.238919            7.490986
| 63>   H                    : -4.354874            9.603095             5.907255
| 64>   H                    : -5.539428            9.552613             7.158782
| 65>   C                      -0.316782            6.480354             7.339445
| 66>   O                      -0.796057            6.418190             8.705326
| 67>   H                      -1.159090            7.322164             8.853414
| 68>   H                      0.790307             6.282609             7.339717
| 69>   H                      -0.731684            5.736807             6.688300
| 70>   H                      -0.368554            7.499129             6.910109
| 71> *
| 72>
| 73>                          ****END OF INPUT****
 Total Charge           Charge          ....    0
 Multiplicity           Mult            ....    1
 Number of Electrons    NEL             ....   36
Dispersion correction           -0.001313104
FINAL SINGLE POINT ENERGY      -231.457614209680
Dispersion correction           -0.000217365
FINAL SINGLE POINT ENERGY      -115.728197307927

CARTESIAN COORDINATES (ANGSTROEM)
---------------------------------
  C     -4.428457    9.457185    6.975211
  O     -3.977799    8.276667    7.423609
  H     -3.298247    8.485323    8.074216
  H     -3.876182   10.238919    7.490986
  H     -4.354874    9.603095    5.907255
  H     -5.539428    9.552613    7.158782
  C     -0.316782    6.480354    7.339445
  O     -0.796057    6.418190    8.705326
  H     -1.159090    7.322164    8.853414
  H      0.790307    6.282609    7.339717
  H     -0.731684    5.736807    6.688300
  H     -0.368554    7.499129    6.910109

 Multiplicity           Mult            ....    1
 Number of Electrons    NEL             ....   18
 Basis Dimension        Dim             ....  172

ORBITAL ENERGIES
----------------

  NO   OCC          E(Eh)            E(eV)
   0   2.0000     -19.236075      -523.4402
   1   2.0000     -10.318261      -280.7742
   2   2.0000      -1.125221       -30.6188
   3   2.0000      -0.792867       -21.5750
   4   2.0000      -0.603039       -16.4095
   5   2.0000      -0.538672       -14.6580
   6   2.0000      -0.518467       -14.1082
   7   2.0000      -0.441442       -12.0122
   8   2.0000      -0.374122       -10.1804
   9   0.0000       0.075405         2.0519
  10   0.0000       0.116064         3.1583
  11   0.0000       0.147678         4.0185
  12   0.0000       0.183327         4.9886
  13   0.0000       0.188146         5.1197

MULLIKEN ATOMIC CHARGES
-----------------------
   0 C :    0.000293
   1 O :    0.000385
   2 H :   -0.004187
   3 H :    0.000005
   4 H :   -0.000008
   5 H :    0.000001
   6 C :   -0.192056
   7 O :   -0.469217
   8 H :    0.319038
   9 H :    0.112280
  10 H :    0.121502
  11 H :    0.111964
Sum of atomic charges:    0.0000000

LOEWDIN ATOMIC CHARGES
----------------------
   0 C :   -0.000080
   1 O :   -0.000494
   2 H :   -0.003179
   3 H :   -0.000006
   4 H :   -0.000008
   5 H :   -0.000002
   6 C :   -0.372907
   7 O :   -0.109880
   8 H :    0.184025
   9 H :    0.106531
  10 H :    0.095367
  11 H :    0.100631

  Mayer bond orders larger than 0.1
B(  6-C ,  7-O ) :   1.0016 B(  6-C ,  9-H ) :   0.9790 B(  6-C , 10-H ) :   0.9710
B(  6-C , 11-H ) :   0.9813 B(  7-O ,  8-H ) :   0.9002

Dispersion correction           -0.000265145
FINAL SINGLE POINT ENERGY      -115.730936121424

DIPOLE MOMENT
-------------
                                X             Y             Z
Electronic contribution:     -0.75153      -0.27601       1.73272
Nuclear contribution   :      0.72902       0.86953      -2.19371
                        -----------------------------------------
Total Dipole Moment    :     -0.02251       0.59352      -0.46099
                        -----------------------------------------
Magnitude (a.u.)       :      0.75185
Magnitude (Debye)      :      1.91106

Rotational constants in cm-1:     4.214118     0.799283     0.765745
Rotational constants in MHz : 126336.075050 23961.888389 22956.471866

                             ****ORCA TERMINATED NORMALLY****
TOTAL RUN TIME: 0 days 0 hours 1 minutes 0 seconds 574 msec
