                         Program Version 4.1.2  - RELEASE  -
|  1> #Run DFT-D3 single point of the dimer
|  2> ! wB97X-D3 def2-TZVP TIGHTSCF CHELPG PMODEL PAL8
|  3>
|  4> %base "6-4_DFT_AB"
|  5>
|  6> %scf
|  7> MaxIter 1000
|  8> end
|  9>
| 10> * xyz 0 1
| 11>   C                      3.221137             7.634066             8.195643
| 12>   O                      3.982834             7.118366             9.205529
| 13>   H                      4.894659             7.152275             8.965242
| 14>   H                      3.626544             8.552249             7.826368
| 15>   H                      3.290289             6.915142             7.335799
| 16>   H                      2.201108             7.700457             8.443460
| 17>   C                      5.562392             4.612648             6.027867
| 18>   O                      6.721985             5.521843             5.863969
| 19>   H                      7.113984             5.904245             6.655793
| 20>   H                      5.742711             3.693669             6.644544
| 21>   H                      4.707211             5.079551             6.453694
| 22>   H                      5.234683             4.194641             5.070184
| 23> *
| 24>
| 25> #Run DFT-D3 single point of the molecule with dimer basis set
| 26> $new_job
| 27> %base "6-4_DFT_A"
| 28> ! wB97X-D3 def2-TZVP TIGHTSCF CHELPG PMODEL
| 29>
| 30> %scf
| 31> MaxIter 1000
| 32> end
| 33>
| 34> * xyz 0 1
| 35>   C                      3.221137             7.634066             8.195643
| 36>   O                      3.982834             7.118366             9.205529
| 37>   H                      4.894659             7.152275             8.965242
| 38>   H                      3.626544             8.552249             7.826368
| 39>   H                      3.290289             6.915142             7.335799
| 40>   H                      2.201108             7.700457             8.443460
| 41>   C                    : 5.562392             4.612648             6.027867
| 42>   O                    : 6.721985             5.521843             5.863969
| 43>   H                    : 7.113984             5.904245             6.655793
| 44>   H                    : 5.742711             3.693669             6.644544
| 45>   H                    : 4.707211             5.079551             6.453694
| 46>   H                    : 5.234683             4.194641             5.070184
| 47> *
| 48>
| 49> #Run DFT-D3 single point of the particle with dimer basis set
| 50> $new_job
| 51> %base "6-4_DFT_B"
| 52> ! wB97X-D3 def2-TZVP TIGHTSCF CHELPG PMODEL
| 53>
| 54> %scf
| 55> MaxIter 1000
| 56> end
| 57>
| 58> * xyz 0 1
| 59>   C                    : 3.221137             7.634066             8.195643
| 60>   O                    : 3.982834             7.118366             9.205529
| 61>   H                    : 4.894659             7.152275             8.965242
| 62>   H                    : 3.626544             8.552249             7.826368
| 63>   H                    : 3.290289             6.915142             7.335799
| 64>   H                    : 2.201108             7.700457             8.443460
| 65>   C                      5.562392             4.612648             6.027867
| 66>   O                      6.721985             5.521843             5.863969
| 67>   H                      7.113984             5.904245             6.655793
| 68>   H                      5.742711             3.693669             6.644544
| 69>   H                      4.707211             5.079551             6.453694
| 70>   H                      5.234683             4.194641             5.070184
| 71> *
| 72>
| 73>                          ****END OF INPUT****
 Total Charge           Charge          ....    0
 Multiplicity           Mult            ....    1
 Number of Electrons    NEL             ....   36
Dispersion correction           -0.001468217
FINAL SINGLE POINT ENERGY      -231.459448483404
Dispersion correction           -0.000203949
FINAL SINGLE POINT ENERGY      -115.731496501433

CARTESIAN COORDINATES (ANGSTROEM)
---------------------------------
  C      3.221137    7.634066    8.195643
  O      3.982834    7.118366    9.205529
  H      4.894659    7.152275    8.965242
  H      3.626544    8.552249    7.826368
  H      3.290289    6.915142    7.335799
  H      2.201108    7.700457    8.443460
  C      5.562392    4.612648    6.027867
  O      6.721985    5.521843    5.863969
  H      7.113984    5.904245    6.655793
  H      5.742711    3.693669    6.644544
  H      4.707211    5.079551    6.453694
  H      5.234683    4.194641    5.070184

 Multiplicity           Mult            ....    1
 Number of Electrons    NEL             ....   18
 Basis Dimension        Dim             ....  172

ORBITAL ENERGIES
----------------

  NO   OCC          E(Eh)            E(eV)
   0   2.0000     -19.229443      -523.2597
   1   2.0000     -10.321193      -280.8539
   2   2.0000      -1.110763       -30.2254
   3   2.0000      -0.804792       -21.8995
   4   2.0000      -0.604354       -16.4453
   5   2.0000      -0.532333       -14.4855
   6   2.0000      -0.518031       -14.0964
   7   2.0000      -0.425504       -11.5786
   8   2.0000      -0.376960       -10.2576
   9   0.0000       0.080311         2.1854
  10   0.0000       0.121269         3.2999
  11   0.0000       0.144383         3.9288
  12   0.0000       0.169324         4.6075
  13   0.0000       0.192328         5.2335

MULLIKEN ATOMIC CHARGES
-----------------------
   0 C :   -0.001646
   1 O :    0.000036
   2 H :   -0.000398
   3 H :   -0.000041
   4 H :    0.003174
   5 H :    0.000235
   6 C :   -0.155821
   7 O :   -0.508653
   8 H :    0.321088
   9 H :    0.107949
  10 H :    0.108533
  11 H :    0.125543
Sum of atomic charges:    0.0000000

LOEWDIN ATOMIC CHARGES
----------------------
   0 C :   -0.001287
   1 O :   -0.000079
   2 H :   -0.000459
   3 H :   -0.000016
   4 H :   -0.002892
   5 H :   -0.000007
   6 C :   -0.335655
   7 O :   -0.125973
   8 H :    0.163177
   9 H :    0.102064
  10 H :    0.090240
  11 H :    0.110886

  Mayer bond orders larger than 0.1
B(  6-C ,  7-O ) :   0.9891 B(  6-C ,  9-H ) :   0.9747 B(  6-C , 10-H ) :   0.9699
B(  6-C , 11-H ) :   0.9749 B(  7-O ,  8-H ) :   0.8906

Dispersion correction           -0.000320720
FINAL SINGLE POINT ENERGY      -115.727415693782

DIPOLE MOMENT
-------------
                                X             Y             Z
Electronic contribution:      1.43115       1.18933      -0.30228
Nuclear contribution   :     -1.71422      -1.35140       0.89010
                        -----------------------------------------
Total Dipole Moment    :     -0.28307      -0.16207       0.58782
                        -----------------------------------------
Magnitude (a.u.)       :      0.67226
Magnitude (Debye)      :      1.70874

Rotational constants in cm-1:     4.592570     0.744464     0.724605
Rotational constants in MHz : 137681.779902 22318.468100 21723.107787

                             ****ORCA TERMINATED NORMALLY****
TOTAL RUN TIME: 0 days 0 hours 0 minutes 58 seconds 895 msec
