                         Program Version 4.1.2  - RELEASE  -
|  1> #Run DFT-D3 single point of the dimer
|  2> ! wB97X-D3 def2-TZVP TIGHTSCF CHELPG PMODEL PAL8
|  3>
|  4> %base "16-207_DFT_AB"
|  5>
|  6> %scf
|  7> MaxIter 1000
|  8> end
|  9>
| 10> * xyz 0 1
| 11>   C                      0.745206             -3.975291            -0.579764
| 12>   O                      0.307130             -2.700104            -0.591971
| 13>   H                      0.261849             -2.321639            0.278129
| 14>   H                      1.456053             -4.077456            0.239534
| 15>   H                      -0.000700            -4.631247            -0.176744
| 16>   H                      1.118313             -4.411004            -1.534896
| 17>   C                      -2.136062            -3.976692            -3.231994
| 18>   O                      -1.963163            -2.728974            -2.551263
| 19>   H                      -1.692615            -3.045034            -1.701151
| 20>   H                      -2.998761            -4.552751            -2.801274
| 21>   H                      -2.348486            -3.805273            -4.315481
| 22>   H                      -1.170440            -4.457272            -3.288040
| 23> *
| 24>
| 25> #Run DFT-D3 single point of the molecule with dimer basis set
| 26> $new_job
| 27> %base "16-207_DFT_A"
| 28> ! wB97X-D3 def2-TZVP TIGHTSCF CHELPG PMODEL
| 29>
| 30> %scf
| 31> MaxIter 1000
| 32> end
| 33>
| 34> * xyz 0 1
| 35>   C                      0.745206             -3.975291            -0.579764
| 36>   O                      0.307130             -2.700104            -0.591971
| 37>   H                      0.261849             -2.321639            0.278129
| 38>   H                      1.456053             -4.077456            0.239534
| 39>   H                      -0.000700            -4.631247            -0.176744
| 40>   H                      1.118313             -4.411004            -1.534896
| 41>   C                    : -2.136062            -3.976692            -3.231994
| 42>   O                    : -1.963163            -2.728974            -2.551263
| 43>   H                    : -1.692615            -3.045034            -1.701151
| 44>   H                    : -2.998761            -4.552751            -2.801274
| 45>   H                    : -2.348486            -3.805273            -4.315481
| 46>   H                    : -1.170440            -4.457272            -3.288040
| 47> *
| 48>
| 49> #Run DFT-D3 single point of the particle with dimer basis set
| 50> $new_job
| 51> %base "16-207_DFT_B"
| 52> ! wB97X-D3 def2-TZVP TIGHTSCF CHELPG PMODEL
| 53>
| 54> %scf
| 55> MaxIter 1000
| 56> end
| 57>
| 58> * xyz 0 1
| 59>   C                    : 0.745206             -3.975291            -0.579764
| 60>   O                    : 0.307130             -2.700104            -0.591971
| 61>   H                    : 0.261849             -2.321639            0.278129
| 62>   H                    : 1.456053             -4.077456            0.239534
| 63>   H                    : -0.000700            -4.631247            -0.176744
| 64>   H                    : 1.118313             -4.411004            -1.534896
| 65>   C                      -2.136062            -3.976692            -3.231994
| 66>   O                      -1.963163            -2.728974            -2.551263
| 67>   H                      -1.692615            -3.045034            -1.701151
| 68>   H                      -2.998761            -4.552751            -2.801274
| 69>   H                      -2.348486            -3.805273            -4.315481
| 70>   H                      -1.170440            -4.457272            -3.288040
| 71> *
| 72>
| 73>                          ****END OF INPUT****
 Total Charge           Charge          ....    0
 Multiplicity           Mult            ....    1
 Number of Electrons    NEL             ....   36
Dispersion correction           -0.001962400
FINAL SINGLE POINT ENERGY      -231.458912024074
Dispersion correction           -0.000210894
FINAL SINGLE POINT ENERGY      -115.725330749496

CARTESIAN COORDINATES (ANGSTROEM)
---------------------------------
  C      0.745206   -3.975291   -0.579764
  O      0.307130   -2.700104   -0.591971
  H      0.261849   -2.321639    0.278129
  H      1.456053   -4.077456    0.239534
  H     -0.000700   -4.631247   -0.176744
  H      1.118313   -4.411004   -1.534896
  C     -2.136062   -3.976692   -3.231994
  O     -1.963163   -2.728974   -2.551263
  H     -1.692615   -3.045034   -1.701151
  H     -2.998761   -4.552751   -2.801274
  H     -2.348486   -3.805273   -4.315481
  H     -1.170440   -4.457272   -3.288040

 Multiplicity           Mult            ....    1
 Number of Electrons    NEL             ....   18
 Basis Dimension        Dim             ....  172

ORBITAL ENERGIES
----------------

  NO   OCC          E(Eh)            E(eV)
   0   2.0000     -19.231407      -523.3132
   1   2.0000     -10.318894      -280.7914
   2   2.0000      -1.139710       -31.0131
   3   2.0000      -0.791192       -21.5294
   4   2.0000      -0.601279       -16.3616
   5   2.0000      -0.554677       -15.0935
   6   2.0000      -0.521657       -14.1950
   7   2.0000      -0.433544       -11.7973
   8   2.0000      -0.378642       -10.3034
   9   0.0000       0.071422         1.9435
  10   0.0000       0.135956         3.6995
  11   0.0000       0.146376         3.9831
  12   0.0000       0.170429         4.6376
  13   0.0000       0.180217         4.9040

MULLIKEN ATOMIC CHARGES
-----------------------
   0 C :   -0.007007
   1 O :   -0.000872
   2 H :   -0.000051
   3 H :   -0.000187
   4 H :    0.000374
   5 H :    0.000437
   6 C :   -0.194662
   7 O :   -0.456413
   8 H :    0.312127
   9 H :    0.112630
  10 H :    0.117484
  11 H :    0.116140
Sum of atomic charges:   -0.0000000

LOEWDIN ATOMIC CHARGES
----------------------
   0 C :   -0.006892
   1 O :   -0.009074
   2 H :   -0.000613
   3 H :   -0.000120
   4 H :   -0.000593
   5 H :   -0.000806
   6 C :   -0.383031
   7 O :   -0.073741
   8 H :    0.162959
   9 H :    0.103786
  10 H :    0.112321
  11 H :    0.095803

  Mayer bond orders larger than 0.1
B(  6-C ,  7-O ) :   1.0002 B(  6-C ,  9-H ) :   0.9759 B(  6-C , 10-H ) :   0.9738
B(  6-C , 11-H ) :   0.9748 B(  7-O ,  8-H ) :   0.9089

Dispersion correction           -0.000226318
FINAL SINGLE POINT ENERGY      -115.731341058536

DIPOLE MOMENT
-------------
                                X             Y             Z
Electronic contribution:      0.15470       1.61811       0.81385
Nuclear contribution   :     -0.04897      -2.29064      -0.59672
                        -----------------------------------------
Total Dipole Moment    :      0.10573      -0.67254       0.21714
                        -----------------------------------------
Magnitude (a.u.)       :      0.71459
Magnitude (Debye)      :      1.81633

Rotational constants in cm-1:     4.139169     0.819019     0.800374
Rotational constants in MHz : 124089.172688 24553.573064 23994.607454

                             ****ORCA TERMINATED NORMALLY****
TOTAL RUN TIME: 0 days 0 hours 1 minutes 1 seconds 578 msec
