                         Program Version 4.1.2  - RELEASE  -
|  1> #Run DFT-D3 single point of the dimer
|  2> ! wB97X-D3 def2-TZVP TIGHTSCF CHELPG PMODEL PAL8
|  3>
|  4> %base "3-8_DFT_AB"
|  5>
|  6> %scf
|  7> MaxIter 1000
|  8> end
|  9>
| 10> * xyz 0 1
| 11>   C                      0.141561             6.247437             4.342902
| 12>   O                      -0.671210            6.055133             5.470995
| 13>   H                      -0.143852            5.652897             6.120910
| 14>   H                      0.997028             6.871239             4.544806
| 15>   H                      0.411989             5.326716             3.898990
| 16>   H                      -0.387381            6.739469             3.540981
| 17>   C                      2.406520             9.917815             5.748108
| 18>   O                      3.557760             10.698385            5.931662
| 19>   H                      3.277306             11.573894            6.108458
| 20>   H                      2.720529             9.138909             5.119411
| 21>   H                      1.989477             9.508668             6.700628
| 22>   H                      1.706266             10.532903            5.307693
| 23> *
| 24>
| 25> #Run DFT-D3 single point of the molecule with dimer basis set
| 26> $new_job
| 27> %base "3-8_DFT_A"
| 28> ! wB97X-D3 def2-TZVP TIGHTSCF CHELPG PMODEL
| 29>
| 30> %scf
| 31> MaxIter 1000
| 32> end
| 33>
| 34> * xyz 0 1
| 35>   C                      0.141561             6.247437             4.342902
| 36>   O                      -0.671210            6.055133             5.470995
| 37>   H                      -0.143852            5.652897             6.120910
| 38>   H                      0.997028             6.871239             4.544806
| 39>   H                      0.411989             5.326716             3.898990
| 40>   H                      -0.387381            6.739469             3.540981
| 41>   C                    : 2.406520             9.917815             5.748108
| 42>   O                    : 3.557760             10.698385            5.931662
| 43>   H                    : 3.277306             11.573894            6.108458
| 44>   H                    : 2.720529             9.138909             5.119411
| 45>   H                    : 1.989477             9.508668             6.700628
| 46>   H                    : 1.706266             10.532903            5.307693
| 47> *
| 48>
| 49> #Run DFT-D3 single point of the particle with dimer basis set
| 50> $new_job
| 51> %base "3-8_DFT_B"
| 52> ! wB97X-D3 def2-TZVP TIGHTSCF CHELPG PMODEL
| 53>
| 54> %scf
| 55> MaxIter 1000
| 56> end
| 57>
| 58> * xyz 0 1
| 59>   C                    : 0.141561             6.247437             4.342902
| 60>   O                    : -0.671210            6.055133             5.470995
| 61>   H                    : -0.143852            5.652897             6.120910
| 62>   H                    : 0.997028             6.871239             4.544806
| 63>   H                    : 0.411989             5.326716             3.898990
| 64>   H                    : -0.387381            6.739469             3.540981
| 65>   C                      2.406520             9.917815             5.748108
| 66>   O                      3.557760             10.698385            5.931662
| 67>   H                      3.277306             11.573894            6.108458
| 68>   H                      2.720529             9.138909             5.119411
| 69>   H                      1.989477             9.508668             6.700628
| 70>   H                      1.706266             10.532903            5.307693
| 71> *
| 72>
| 73>                          ****END OF INPUT****
 Total Charge           Charge          ....    0
 Multiplicity           Mult            ....    1
 Number of Electrons    NEL             ....   36
Dispersion correction           -0.000985929
FINAL SINGLE POINT ENERGY      -231.464398826037
Dispersion correction           -0.000225441
FINAL SINGLE POINT ENERGY      -115.733647438100

CARTESIAN COORDINATES (ANGSTROEM)
---------------------------------
  C      0.141561    6.247437    4.342902
  O     -0.671210    6.055133    5.470995
  H     -0.143852    5.652897    6.120910
  H      0.997028    6.871239    4.544806
  H      0.411989    5.326716    3.898990
  H     -0.387381    6.739469    3.540981
  C      2.406520    9.917815    5.748108
  O      3.557760   10.698385    5.931662
  H      3.277306   11.573894    6.108458
  H      2.720529    9.138909    5.119411
  H      1.989477    9.508668    6.700628
  H      1.706266   10.532903    5.307693

 Multiplicity           Mult            ....    1
 Number of Electrons    NEL             ....   18
 Basis Dimension        Dim             ....  172

ORBITAL ENERGIES
----------------

  NO   OCC          E(Eh)            E(eV)
   0   2.0000     -19.223025      -523.0851
   1   2.0000     -10.302174      -280.3364
   2   2.0000      -1.143521       -31.1168
   3   2.0000      -0.801316       -21.8049
   4   2.0000      -0.619530       -16.8583
   5   2.0000      -0.543915       -14.8007
   6   2.0000      -0.533191       -14.5089
   7   2.0000      -0.437940       -11.9169
   8   2.0000      -0.371109       -10.0984
   9   0.0000       0.084707         2.3050
  10   0.0000       0.117623         3.2007
  11   0.0000       0.155280         4.2254
  12   0.0000       0.161669         4.3992
  13   0.0000       0.189462         5.1555

MULLIKEN ATOMIC CHARGES
-----------------------
   0 C :    0.000318
   1 O :   -0.000014
   2 H :   -0.000017
   3 H :   -0.000484
   4 H :    0.000013
   5 H :   -0.000039
   6 C :   -0.146115
   7 O :   -0.472217
   8 H :    0.306834
   9 H :    0.121172
  10 H :    0.087225
  11 H :    0.103324
Sum of atomic charges:    0.0000000

LOEWDIN ATOMIC CHARGES
----------------------
   0 C :   -0.000295
   1 O :   -0.000010
   2 H :   -0.000015
   3 H :   -0.001013
   4 H :   -0.000001
   5 H :   -0.000007
   6 C :   -0.373077
   7 O :   -0.059855
   8 H :    0.151865
   9 H :    0.100252
  10 H :    0.098602
  11 H :    0.083554

  Mayer bond orders larger than 0.1
B(  6-C ,  7-O ) :   1.0016 B(  6-C ,  9-H ) :   0.9790 B(  6-C , 10-H ) :   0.9684
B(  6-C , 11-H ) :   0.9923 B(  7-O ,  8-H ) :   0.9093

Dispersion correction           -0.000212231
FINAL SINGLE POINT ENERGY      -115.730081060461

DIPOLE MOMENT
-------------
                                X             Y             Z
Electronic contribution:      1.45353       0.84022       0.15132
Nuclear contribution   :     -2.09332      -0.56905      -0.14278
                        -----------------------------------------
Total Dipole Moment    :     -0.63979       0.27117       0.00853
                        -----------------------------------------
Magnitude (a.u.)       :      0.69494
Magnitude (Debye)      :      1.76639

Rotational constants in cm-1:     4.413304     0.860193     0.830912
Rotational constants in MHz : 132307.526537 25787.941244 24910.124863

                             ****ORCA TERMINATED NORMALLY****
TOTAL RUN TIME: 0 days 0 hours 6 minutes 11 seconds 484 msec
