                         Program Version 4.1.2  - RELEASE  -
|  1> #Run DFT-D3 single point of the dimer
|  2> ! wB97X-D3 def2-TZVP TIGHTSCF CHELPG PMODEL PAL8
|  3>
|  4> %base "18-3_DFT_AB"
|  5>
|  6> %scf
|  7> MaxIter 1000
|  8> end
|  9>
| 10> * xyz 0 1
| 11>   C                      0.886549             0.822237             10.406532
| 12>   O                      -0.359793            0.971877             9.692236
| 13>   H                      -0.550626            0.048280             9.716713
| 14>   H                      1.518922             1.710716             10.116938
| 15>   H                      0.664286             0.723875             11.450918
| 16>   H                      1.397309             -0.146132            10.165140
| 17>   C                      1.101496             -2.053978            7.307832
| 18>   O                      1.384987             -2.297058            5.969188
| 19>   H                      1.151471             -3.185395            5.702275
| 20>   H                      1.317104             -1.048099            7.698919
| 21>   H                      0.046442             -2.231063            7.406682
| 22>   H                      1.610017             -2.809292            7.907819
| 23> *
| 24>
| 25> #Run DFT-D3 single point of the molecule with dimer basis set
| 26> $new_job
| 27> %base "18-3_DFT_A"
| 28> ! wB97X-D3 def2-TZVP TIGHTSCF CHELPG PMODEL
| 29>
| 30> %scf
| 31> MaxIter 1000
| 32> end
| 33>
| 34> * xyz 0 1
| 35>   C                      0.886549             0.822237             10.406532
| 36>   O                      -0.359793            0.971877             9.692236
| 37>   H                      -0.550626            0.048280             9.716713
| 38>   H                      1.518922             1.710716             10.116938
| 39>   H                      0.664286             0.723875             11.450918
| 40>   H                      1.397309             -0.146132            10.165140
| 41>   C                    : 1.101496             -2.053978            7.307832
| 42>   O                    : 1.384987             -2.297058            5.969188
| 43>   H                    : 1.151471             -3.185395            5.702275
| 44>   H                    : 1.317104             -1.048099            7.698919
| 45>   H                    : 0.046442             -2.231063            7.406682
| 46>   H                    : 1.610017             -2.809292            7.907819
| 47> *
| 48>
| 49> #Run DFT-D3 single point of the particle with dimer basis set
| 50> $new_job
| 51> %base "18-3_DFT_B"
| 52> ! wB97X-D3 def2-TZVP TIGHTSCF CHELPG PMODEL
| 53>
| 54> %scf
| 55> MaxIter 1000
| 56> end
| 57>
| 58> * xyz 0 1
| 59>   C                    : 0.886549             0.822237             10.406532
| 60>   O                    : -0.359793            0.971877             9.692236
| 61>   H                    : -0.550626            0.048280             9.716713
| 62>   H                    : 1.518922             1.710716             10.116938
| 63>   H                    : 0.664286             0.723875             11.450918
| 64>   H                    : 1.397309             -0.146132            10.165140
| 65>   C                      1.101496             -2.053978            7.307832
| 66>   O                      1.384987             -2.297058            5.969188
| 67>   H                      1.151471             -3.185395            5.702275
| 68>   H                      1.317104             -1.048099            7.698919
| 69>   H                      0.046442             -2.231063            7.406682
| 70>   H                      1.610017             -2.809292            7.907819
| 71> *
| 72>
| 73>                          ****END OF INPUT****
 Total Charge           Charge          ....    0
 Multiplicity           Mult            ....    1
 Number of Electrons    NEL             ....   36
Dispersion correction           -0.001412684
FINAL SINGLE POINT ENERGY      -231.457171755939
Dispersion correction           -0.000209488
FINAL SINGLE POINT ENERGY      -115.726095565391

CARTESIAN COORDINATES (ANGSTROEM)
---------------------------------
  C      0.886549    0.822237   10.406532
  O     -0.359793    0.971877    9.692236
  H     -0.550626    0.048280    9.716713
  H      1.518922    1.710716   10.116938
  H      0.664286    0.723875   11.450918
  H      1.397309   -0.146132   10.165140
  C      1.101496   -2.053978    7.307832
  O      1.384987   -2.297058    5.969188
  H      1.151471   -3.185395    5.702275
  H      1.317104   -1.048099    7.698919
  H      0.046442   -2.231063    7.406682
  H      1.610017   -2.809292    7.907819

 Multiplicity           Mult            ....    1
 Number of Electrons    NEL             ....   18
 Basis Dimension        Dim             ....  172

ORBITAL ENERGIES
----------------

  NO   OCC          E(Eh)            E(eV)
   0   2.0000     -19.224015      -523.1120
   1   2.0000     -10.309685      -280.5408
   2   2.0000      -1.140531       -31.0354
   3   2.0000      -0.796576       -21.6759
   4   2.0000      -0.614082       -16.7100
   5   2.0000      -0.545870       -14.8539
   6   2.0000      -0.539383       -14.6774
   7   2.0000      -0.422982       -11.5099
   8   2.0000      -0.366608        -9.9759
   9   0.0000       0.084240         2.2923
  10   0.0000       0.115307         3.1377
  11   0.0000       0.154740         4.2107
  12   0.0000       0.171588         4.6691
  13   0.0000       0.182922         4.9776

MULLIKEN ATOMIC CHARGES
-----------------------
   0 C :   -0.000222
   1 O :    0.000012
   2 H :   -0.000490
   3 H :   -0.000047
   4 H :   -0.000011
   5 H :   -0.000010
   6 C :   -0.144774
   7 O :   -0.485873
   8 H :    0.319892
   9 H :    0.120879
  10 H :    0.097730
  11 H :    0.092913
Sum of atomic charges:   -0.0000000

LOEWDIN ATOMIC CHARGES
----------------------
   0 C :   -0.001994
   1 O :   -0.000189
   2 H :   -0.000879
   3 H :   -0.000046
   4 H :   -0.000014
   5 H :   -0.001594
   6 C :   -0.395380
   7 O :   -0.065764
   8 H :    0.168635
   9 H :    0.111612
  10 H :    0.092061
  11 H :    0.093552

  Mayer bond orders larger than 0.1
B(  6-C ,  7-O ) :   0.9922 B(  6-C ,  9-H ) :   0.9671 B(  6-C , 10-H ) :   0.9903
B(  6-C , 11-H ) :   0.9824 B(  7-O ,  8-H ) :   0.8917

Dispersion correction           -0.000215820
FINAL SINGLE POINT ENERGY      -115.730530771341

DIPOLE MOMENT
-------------
                                X             Y             Z
Electronic contribution:      0.48393      -0.06618      -1.71307
Nuclear contribution   :     -0.75938      -0.41347       2.07577
                        -----------------------------------------
Total Dipole Moment    :     -0.27545      -0.47964       0.36270
                        -----------------------------------------
Magnitude (a.u.)       :      0.66142
Magnitude (Debye)      :      1.68120

Rotational constants in cm-1:     4.412139     0.854502     0.822193
Rotational constants in MHz : 132272.602512 25617.340132 24648.740497

                             ****ORCA TERMINATED NORMALLY****
TOTAL RUN TIME: 0 days 0 hours 1 minutes 0 seconds 648 msec
