                         Program Version 4.1.2  - RELEASE  -
|  1> #Run DFT-D3 single point of the dimer
|  2> ! wB97X-D3 def2-TZVP TIGHTSCF CHELPG PMODEL PAL8
|  3>
|  4> %base "8-145_DFT_AB"
|  5>
|  6> %scf
|  7> MaxIter 1000
|  8> end
|  9>
| 10> * xyz 0 1
| 11>   C                      3.227038             0.299315             2.583247
| 12>   O                      2.666419             0.055697             1.319139
| 13>   H                      2.532418             -0.879725            1.086573
| 14>   H                      4.019190             -0.355166            2.838296
| 15>   H                      3.630524             1.336282             2.668777
| 16>   H                      2.489073             0.331264             3.443880
| 17>   C                      1.148353             -5.134750            1.359061
| 18>   O                      0.677754             -3.844119            1.665310
| 19>   H                      1.365600             -3.185171            1.347727
| 20>   H                      2.072571             -5.434069            1.815294
| 21>   H                      0.388310             -5.865048            1.713499
| 22>   H                      1.217598             -5.345474            0.267756
| 23> *
| 24>
| 25> #Run DFT-D3 single point of the molecule with dimer basis set
| 26> $new_job
| 27> %base "8-145_DFT_A"
| 28> ! wB97X-D3 def2-TZVP TIGHTSCF CHELPG PMODEL
| 29>
| 30> %scf
| 31> MaxIter 1000
| 32> end
| 33>
| 34> * xyz 0 1
| 35>   C                      3.227038             0.299315             2.583247
| 36>   O                      2.666419             0.055697             1.319139
| 37>   H                      2.532418             -0.879725            1.086573
| 38>   H                      4.019190             -0.355166            2.838296
| 39>   H                      3.630524             1.336282             2.668777
| 40>   H                      2.489073             0.331264             3.443880
| 41>   C                    : 1.148353             -5.134750            1.359061
| 42>   O                    : 0.677754             -3.844119            1.665310
| 43>   H                    : 1.365600             -3.185171            1.347727
| 44>   H                    : 2.072571             -5.434069            1.815294
| 45>   H                    : 0.388310             -5.865048            1.713499
| 46>   H                    : 1.217598             -5.345474            0.267756
| 47> *
| 48>
| 49> #Run DFT-D3 single point of the particle with dimer basis set
| 50> $new_job
| 51> %base "8-145_DFT_B"
| 52> ! wB97X-D3 def2-TZVP TIGHTSCF CHELPG PMODEL
| 53>
| 54> %scf
| 55> MaxIter 1000
| 56> end
| 57>
| 58> * xyz 0 1
| 59>   C                    : 3.227038             0.299315             2.583247
| 60>   O                    : 2.666419             0.055697             1.319139
| 61>   H                    : 2.532418             -0.879725            1.086573
| 62>   H                    : 4.019190             -0.355166            2.838296
| 63>   H                    : 3.630524             1.336282             2.668777
| 64>   H                    : 2.489073             0.331264             3.443880
| 65>   C                      1.148353             -5.134750            1.359061
| 66>   O                      0.677754             -3.844119            1.665310
| 67>   H                      1.365600             -3.185171            1.347727
| 68>   H                      2.072571             -5.434069            1.815294
| 69>   H                      0.388310             -5.865048            1.713499
| 70>   H                      1.217598             -5.345474            0.267756
| 71> *
| 72>
| 73>                          ****END OF INPUT****
 Total Charge           Charge          ....    0
 Multiplicity           Mult            ....    1
 Number of Electrons    NEL             ....   36
Dispersion correction           -0.001007127
FINAL SINGLE POINT ENERGY      -231.463164386934
Dispersion correction           -0.000278452
FINAL SINGLE POINT ENERGY      -115.731106832121

CARTESIAN COORDINATES (ANGSTROEM)
---------------------------------
  C      3.227038    0.299315    2.583247
  O      2.666419    0.055697    1.319139
  H      2.532418   -0.879725    1.086573
  H      4.019190   -0.355166    2.838296
  H      3.630524    1.336282    2.668777
  H      2.489073    0.331264    3.443880
  C      1.148353   -5.134750    1.359061
  O      0.677754   -3.844119    1.665310
  H      1.365600   -3.185171    1.347727
  H      2.072571   -5.434069    1.815294
  H      0.388310   -5.865048    1.713499
  H      1.217598   -5.345474    0.267756

 Multiplicity           Mult            ....    1
 Number of Electrons    NEL             ....   18
 Basis Dimension        Dim             ....  172

ORBITAL ENERGIES
----------------

  NO   OCC          E(Eh)            E(eV)
   0   2.0000     -19.237749      -523.4858
   1   2.0000     -10.312916      -280.6287
   2   2.0000      -1.131901       -30.8006
   3   2.0000      -0.791719       -21.5438
   4   2.0000      -0.609235       -16.5781
   5   2.0000      -0.540559       -14.7093
   6   2.0000      -0.522600       -14.2207
   7   2.0000      -0.430816       -11.7231
   8   2.0000      -0.375528       -10.2186
   9   0.0000       0.074649         2.0313
  10   0.0000       0.116825         3.1790
  11   0.0000       0.145709         3.9649
  12   0.0000       0.181818         4.9475
  13   0.0000       0.197510         5.3745

MULLIKEN ATOMIC CHARGES
-----------------------
   0 C :   -0.000259
   1 O :    0.000091
   2 H :   -0.000422
   3 H :    0.000027
   4 H :   -0.000010
   5 H :    0.000018
   6 C :   -0.168238
   7 O :   -0.469063
   8 H :    0.318170
   9 H :    0.103636
  10 H :    0.117259
  11 H :    0.098792
Sum of atomic charges:    0.0000000

LOEWDIN ATOMIC CHARGES
----------------------
   0 C :   -0.000154
   1 O :   -0.000062
   2 H :   -0.002080
   3 H :   -0.000005
   4 H :   -0.000007
   5 H :   -0.000008
   6 C :   -0.404696
   7 O :   -0.085995
   8 H :    0.195370
   9 H :    0.087871
  10 H :    0.113481
  11 H :    0.096285

  Mayer bond orders larger than 0.1
B(  6-C ,  7-O ) :   1.0113 B(  6-C ,  9-H ) :   0.9700 B(  6-C , 10-H ) :   0.9739
B(  6-C , 11-H ) :   0.9745 B(  7-O ,  8-H ) :   0.8928

Dispersion correction           -0.000260212
FINAL SINGLE POINT ENERGY      -115.733871857960

DIPOLE MOMENT
-------------
                                X             Y             Z
Electronic contribution:     -0.64663       1.72957       0.50836
Nuclear contribution   :      1.24770      -1.82747      -0.81089
                        -----------------------------------------
Total Dipole Moment    :      0.60107      -0.09790      -0.30253
                        -----------------------------------------
Magnitude (a.u.)       :      0.68000
Magnitude (Debye)      :      1.72842

Rotational constants in cm-1:     4.284000     0.826012     0.795883
Rotational constants in MHz : 128431.100120 24763.215473 23859.969349

                             ****ORCA TERMINATED NORMALLY****
TOTAL RUN TIME: 0 days 0 hours 0 minutes 43 seconds 811 msec
