                         Program Version 4.1.2  - RELEASE  -
|  1> #Run DFT-D3 single point of the dimer
|  2> ! wB97X-D3 def2-TZVP TIGHTSCF CHELPG PMODEL PAL8
|  3>
|  4> %base "4-68_DFT_AB"
|  5>
|  6> %scf
|  7> MaxIter 1000
|  8> end
|  9>
| 10> * xyz 0 1
| 11>   C                      3.051319             10.744531            -1.095731
| 12>   O                      4.041918             9.795528             -1.066697
| 13>   H                      3.695005             9.045905             -1.508227
| 14>   H                      2.823380             11.193484            -2.079917
| 15>   H                      2.116573             10.257582            -0.937231
| 16>   H                      3.298022             11.551580            -0.358631
| 17>   C                      5.147577             7.515241             -3.265000
| 18>   O                      3.716713             7.577363             -3.335981
| 19>   H                      3.412833             6.771940             -3.793769
| 20>   H                      5.660477             8.347349             -2.790045
| 21>   H                      5.521592             6.700084             -2.687815
| 22>   H                      5.589001             7.427400             -4.268107
| 23> *
| 24>
| 25> #Run DFT-D3 single point of the molecule with dimer basis set
| 26> $new_job
| 27> %base "4-68_DFT_A"
| 28> ! wB97X-D3 def2-TZVP TIGHTSCF CHELPG PMODEL
| 29>
| 30> %scf
| 31> MaxIter 1000
| 32> end
| 33>
| 34> * xyz 0 1
| 35>   C                      3.051319             10.744531            -1.095731
| 36>   O                      4.041918             9.795528             -1.066697
| 37>   H                      3.695005             9.045905             -1.508227
| 38>   H                      2.823380             11.193484            -2.079917
| 39>   H                      2.116573             10.257582            -0.937231
| 40>   H                      3.298022             11.551580            -0.358631
| 41>   C                    : 5.147577             7.515241             -3.265000
| 42>   O                    : 3.716713             7.577363             -3.335981
| 43>   H                    : 3.412833             6.771940             -3.793769
| 44>   H                    : 5.660477             8.347349             -2.790045
| 45>   H                    : 5.521592             6.700084             -2.687815
| 46>   H                    : 5.589001             7.427400             -4.268107
| 47> *
| 48>
| 49> #Run DFT-D3 single point of the particle with dimer basis set
| 50> $new_job
| 51> %base "4-68_DFT_B"
| 52> ! wB97X-D3 def2-TZVP TIGHTSCF CHELPG PMODEL
| 53>
| 54> %scf
| 55> MaxIter 1000
| 56> end
| 57>
| 58> * xyz 0 1
| 59>   C                    : 3.051319             10.744531            -1.095731
| 60>   O                    : 4.041918             9.795528             -1.066697
| 61>   H                    : 3.695005             9.045905             -1.508227
| 62>   H                    : 2.823380             11.193484            -2.079917
| 63>   H                    : 2.116573             10.257582            -0.937231
| 64>   H                    : 3.298022             11.551580            -0.358631
| 65>   C                      5.147577             7.515241             -3.265000
| 66>   O                      3.716713             7.577363             -3.335981
| 67>   H                      3.412833             6.771940             -3.793769
| 68>   H                      5.660477             8.347349             -2.790045
| 69>   H                      5.521592             6.700084             -2.687815
| 70>   H                      5.589001             7.427400             -4.268107
| 71> *
| 72>
| 73>                          ****END OF INPUT****
 Total Charge           Charge          ....    0
 Multiplicity           Mult            ....    1
 Number of Electrons    NEL             ....   36
Dispersion correction           -0.001709470
FINAL SINGLE POINT ENERGY      -231.468357076277
Dispersion correction           -0.000214605
FINAL SINGLE POINT ENERGY      -115.729759443192

CARTESIAN COORDINATES (ANGSTROEM)
---------------------------------
  C      3.051319   10.744531   -1.095731
  O      4.041918    9.795528   -1.066697
  H      3.695005    9.045905   -1.508227
  H      2.823380   11.193484   -2.079917
  H      2.116573   10.257582   -0.937231
  H      3.298022   11.551580   -0.358631
  C      5.147577    7.515241   -3.265000
  O      3.716713    7.577363   -3.335981
  H      3.412833    6.771940   -3.793769
  H      5.660477    8.347349   -2.790045
  H      5.521592    6.700084   -2.687815
  H      5.589001    7.427400   -4.268107

 Multiplicity           Mult            ....    1
 Number of Electrons    NEL             ....   18
 Basis Dimension        Dim             ....  172

ORBITAL ENERGIES
----------------

  NO   OCC          E(Eh)            E(eV)
   0   2.0000     -19.234720      -523.4033
   1   2.0000     -10.311629      -280.5937
   2   2.0000      -1.128661       -30.7124
   3   2.0000      -0.800408       -21.7802
   4   2.0000      -0.606797       -16.5118
   5   2.0000      -0.540899       -14.7186
   6   2.0000      -0.527558       -14.3556
   7   2.0000      -0.432488       -11.7686
   8   2.0000      -0.375998       -10.2314
   9   0.0000       0.097843         2.6625
  10   0.0000       0.120959         3.2915
  11   0.0000       0.146558         3.9880
  12   0.0000       0.187664         5.1066
  13   0.0000       0.203176         5.5287

MULLIKEN ATOMIC CHARGES
-----------------------
   0 C :   -0.000159
   1 O :    0.000451
   2 H :   -0.003096
   3 H :   -0.000325
   4 H :   -0.000306
   5 H :   -0.000052
   6 C :   -0.182505
   7 O :   -0.470728
   8 H :    0.316461
   9 H :    0.123568
  10 H :    0.109463
  11 H :    0.107229
Sum of atomic charges:   -0.0000000

LOEWDIN ATOMIC CHARGES
----------------------
   0 C :   -0.001095
   1 O :   -0.002695
   2 H :   -0.014287
   3 H :   -0.000127
   4 H :   -0.000112
   5 H :   -0.000009
   6 C :   -0.373932
   7 O :   -0.084046
   8 H :    0.178696
   9 H :    0.109724
  10 H :    0.090005
  11 H :    0.097879

  Mayer bond orders larger than 0.1
B(  6-C ,  7-O ) :   0.9919 B(  6-C ,  9-H ) :   0.9746 B(  6-C , 10-H ) :   0.9748
B(  6-C , 11-H ) :   0.9788 B(  7-O ,  8-H ) :   0.8942

Dispersion correction           -0.000256831
FINAL SINGLE POINT ENERGY      -115.732019792073

DIPOLE MOMENT
-------------
                                X             Y             Z
Electronic contribution:     -1.92904       0.24832       0.01246
Nuclear contribution   :      2.33741      -0.78330      -0.26074
                        -----------------------------------------
Total Dipole Moment    :      0.40837      -0.53497      -0.24828
                        -----------------------------------------
Magnitude (a.u.)       :      0.71736
Magnitude (Debye)      :      1.82339

Rotational constants in cm-1:     4.505478     0.800237     0.773750
Rotational constants in MHz : 135070.845806 23990.507079 23196.431734

                             ****ORCA TERMINATED NORMALLY****
TOTAL RUN TIME: 0 days 0 hours 1 minutes 37 seconds 94 msec
