                         Program Version 4.1.2  - RELEASE  -
|  1> #Run DFT-D3 single point of the dimer
|  2> ! wB97X-D3 def2-TZVP TIGHTSCF CHELPG PMODEL PAL8
|  3>
|  4> %base "12-82_DFT_AB"
|  5>
|  6> %scf
|  7> MaxIter 1000
|  8> end
|  9>
| 10> * xyz 0 1
| 11>   C                      -4.658780            -2.037883            7.649658
| 12>   O                      -5.337638            -1.572166            6.540238
| 13>   H                      -6.235660            -1.469603            6.901389
| 14>   H                      -3.612432            -1.652803            7.614765
| 15>   H                      -5.188026            -1.588476            8.460927
| 16>   H                      -4.629709            -3.094023            7.716798
| 17>   C                      -1.790233            0.172093             10.154279
| 18>   O                      -2.124499            -0.564440            11.309131
| 19>   H                      -1.614151            -1.358078            11.279760
| 20>   H                      -0.758646            0.288029             10.128916
| 21>   H                      -2.035263            -0.321948            9.247113
| 22>   H                      -2.313642            1.182961             10.018220
| 23> *
| 24>
| 25> #Run DFT-D3 single point of the molecule with dimer basis set
| 26> $new_job
| 27> %base "12-82_DFT_A"
| 28> ! wB97X-D3 def2-TZVP TIGHTSCF CHELPG PMODEL
| 29>
| 30> %scf
| 31> MaxIter 1000
| 32> end
| 33>
| 34> * xyz 0 1
| 35>   C                      -4.658780            -2.037883            7.649658
| 36>   O                      -5.337638            -1.572166            6.540238
| 37>   H                      -6.235660            -1.469603            6.901389
| 38>   H                      -3.612432            -1.652803            7.614765
| 39>   H                      -5.188026            -1.588476            8.460927
| 40>   H                      -4.629709            -3.094023            7.716798
| 41>   C                    : -1.790233            0.172093             10.154279
| 42>   O                    : -2.124499            -0.564440            11.309131
| 43>   H                    : -1.614151            -1.358078            11.279760
| 44>   H                    : -0.758646            0.288029             10.128916
| 45>   H                    : -2.035263            -0.321948            9.247113
| 46>   H                    : -2.313642            1.182961             10.018220
| 47> *
| 48>
| 49> #Run DFT-D3 single point of the particle with dimer basis set
| 50> $new_job
| 51> %base "12-82_DFT_B"
| 52> ! wB97X-D3 def2-TZVP TIGHTSCF CHELPG PMODEL
| 53>
| 54> %scf
| 55> MaxIter 1000
| 56> end
| 57>
| 58> * xyz 0 1
| 59>   C                    : -4.658780            -2.037883            7.649658
| 60>   O                    : -5.337638            -1.572166            6.540238
| 61>   H                    : -6.235660            -1.469603            6.901389
| 62>   H                    : -3.612432            -1.652803            7.614765
| 63>   H                    : -5.188026            -1.588476            8.460927
| 64>   H                    : -4.629709            -3.094023            7.716798
| 65>   C                      -1.790233            0.172093             10.154279
| 66>   O                      -2.124499            -0.564440            11.309131
| 67>   H                      -1.614151            -1.358078            11.279760
| 68>   H                      -0.758646            0.288029             10.128916
| 69>   H                      -2.035263            -0.321948            9.247113
| 70>   H                      -2.313642            1.182961             10.018220
| 71> *
| 72>
| 73>                          ****END OF INPUT****
 Total Charge           Charge          ....    0
 Multiplicity           Mult            ....    1
 Number of Electrons    NEL             ....   36
Dispersion correction           -0.001086729
FINAL SINGLE POINT ENERGY      -231.457007371309
Dispersion correction           -0.000197371
FINAL SINGLE POINT ENERGY      -115.728050645313

CARTESIAN COORDINATES (ANGSTROEM)
---------------------------------
  C     -4.658780   -2.037883    7.649658
  O     -5.337638   -1.572166    6.540238
  H     -6.235660   -1.469603    6.901389
  H     -3.612432   -1.652803    7.614765
  H     -5.188026   -1.588476    8.460927
  H     -4.629709   -3.094023    7.716798
  C     -1.790233    0.172093   10.154279
  O     -2.124499   -0.564440   11.309131
  H     -1.614151   -1.358078   11.279760
  H     -0.758646    0.288029   10.128916
  H     -2.035263   -0.321948    9.247113
  H     -2.313642    1.182961   10.018220

 Multiplicity           Mult            ....    1
 Number of Electrons    NEL             ....   18
 Basis Dimension        Dim             ....  172

ORBITAL ENERGIES
----------------

  NO   OCC          E(Eh)            E(eV)
   0   2.0000     -19.229221      -523.2537
   1   2.0000     -10.308746      -280.5152
   2   2.0000      -1.141943       -31.0739
   3   2.0000      -0.800271       -21.7765
   4   2.0000      -0.617200       -16.7949
   5   2.0000      -0.549876       -14.9629
   6   2.0000      -0.524043       -14.2599
   7   2.0000      -0.433652       -11.8003
   8   2.0000      -0.373736       -10.1699
   9   0.0000       0.087489         2.3807
  10   0.0000       0.120819         3.2877
  11   0.0000       0.150883         4.1057
  12   0.0000       0.171444         4.6652
  13   0.0000       0.193200         5.2572

MULLIKEN ATOMIC CHARGES
-----------------------
   0 C :    0.000053
   1 O :    0.000077
   2 H :    0.000008
   3 H :    0.000797
   4 H :   -0.000110
   5 H :   -0.000007
   6 C :   -0.168684
   7 O :   -0.472938
   8 H :    0.313295
   9 H :    0.112724
  10 H :    0.099531
  11 H :    0.115254
Sum of atomic charges:   -0.0000000

LOEWDIN ATOMIC CHARGES
----------------------
   0 C :   -0.001012
   1 O :   -0.000014
   2 H :   -0.000001
   3 H :   -0.002523
   4 H :   -0.000094
   5 H :   -0.000007
   6 C :   -0.384788
   7 O :   -0.065658
   8 H :    0.161523
   9 H :    0.083728
  10 H :    0.087711
  11 H :    0.121135

  Mayer bond orders larger than 0.1
B(  6-C ,  7-O ) :   0.9906 B(  6-C ,  9-H ) :   0.9887 B(  6-C , 10-H ) :   0.9732
B(  6-C , 11-H ) :   0.9703 B(  7-O ,  8-H ) :   0.9010

Dispersion correction           -0.000227863
FINAL SINGLE POINT ENERGY      -115.728131044980

DIPOLE MOMENT
-------------
                                X             Y             Z
Electronic contribution:     -0.51131      -0.86030       1.60728
Nuclear contribution   :      0.98388       0.63908      -2.10875
                        -----------------------------------------
Total Dipole Moment    :      0.47257      -0.22122      -0.50147
                        -----------------------------------------
Magnitude (a.u.)       :      0.72369
Magnitude (Debye)      :      1.83948

Rotational constants in cm-1:     4.527867     0.835115     0.797423
Rotational constants in MHz : 135742.047405 25036.127024 23906.132138

                             ****ORCA TERMINATED NORMALLY****
TOTAL RUN TIME: 0 days 0 hours 1 minutes 4 seconds 613 msec
