                         Program Version 4.1.2  - RELEASE  -
|  1> #Run DFT-D3 single point of the dimer
|  2> ! wB97X-D3 def2-TZVP TIGHTSCF CHELPG PMODEL PAL8
|  3>
|  4> %base "7-201_DFT_AB"
|  5>
|  6> %scf
|  7> MaxIter 1000
|  8> end
|  9>
| 10> * xyz 0 1
| 11>   C                      -10.347060           -0.296101            8.831213
| 12>   O                      -9.959354            0.903798             9.510219
| 13>   H                      -9.588058            1.615518             8.938938
| 14>   H                      -9.510789            -0.780903            8.363430
| 15>   H                      -10.909738           -1.078842            9.385918
| 16>   H                      -11.084347           -0.023327            8.082978
| 17>   C                      -9.181369            2.122025             5.814508
| 18>   O                      -8.904246            2.536516             7.146417
| 19>   H                      -8.288244            3.301824             7.207093
| 20>   H                      -8.213815            2.199684             5.235665
| 21>   H                      -9.506973            1.100846             5.833280
| 22>   H                      -9.931350            2.722090             5.355694
| 23> *
| 24>
| 25> #Run DFT-D3 single point of the molecule with dimer basis set
| 26> $new_job
| 27> %base "7-201_DFT_A"
| 28> ! wB97X-D3 def2-TZVP TIGHTSCF CHELPG PMODEL
| 29>
| 30> %scf
| 31> MaxIter 1000
| 32> end
| 33>
| 34> * xyz 0 1
| 35>   C                      -10.347060           -0.296101            8.831213
| 36>   O                      -9.959354            0.903798             9.510219
| 37>   H                      -9.588058            1.615518             8.938938
| 38>   H                      -9.510789            -0.780903            8.363430
| 39>   H                      -10.909738           -1.078842            9.385918
| 40>   H                      -11.084347           -0.023327            8.082978
| 41>   C                    : -9.181369            2.122025             5.814508
| 42>   O                    : -8.904246            2.536516             7.146417
| 43>   H                    : -8.288244            3.301824             7.207093
| 44>   H                    : -8.213815            2.199684             5.235665
| 45>   H                    : -9.506973            1.100846             5.833280
| 46>   H                    : -9.931350            2.722090             5.355694
| 47> *
| 48>
| 49> #Run DFT-D3 single point of the particle with dimer basis set
| 50> $new_job
| 51> %base "7-201_DFT_B"
| 52> ! wB97X-D3 def2-TZVP TIGHTSCF CHELPG PMODEL
| 53>
| 54> %scf
| 55> MaxIter 1000
| 56> end
| 57>
| 58> * xyz 0 1
| 59>   C                    : -10.347060           -0.296101            8.831213
| 60>   O                    : -9.959354            0.903798             9.510219
| 61>   H                    : -9.588058            1.615518             8.938938
| 62>   H                    : -9.510789            -0.780903            8.363430
| 63>   H                    : -10.909738           -1.078842            9.385918
| 64>   H                    : -11.084347           -0.023327            8.082978
| 65>   C                      -9.181369            2.122025             5.814508
| 66>   O                      -8.904246            2.536516             7.146417
| 67>   H                      -8.288244            3.301824             7.207093
| 68>   H                      -8.213815            2.199684             5.235665
| 69>   H                      -9.506973            1.100846             5.833280
| 70>   H                      -9.931350            2.722090             5.355694
| 71> *
| 72>
| 73>                          ****END OF INPUT****
 Total Charge           Charge          ....    0
 Multiplicity           Mult            ....    1
 Number of Electrons    NEL             ....   36
Dispersion correction           -0.001950863
FINAL SINGLE POINT ENERGY      -231.469319772276
Dispersion correction           -0.000268470
FINAL SINGLE POINT ENERGY      -115.727518949883

CARTESIAN COORDINATES (ANGSTROEM)
---------------------------------
  C    -10.347060   -0.296101    8.831213
  O     -9.959354    0.903798    9.510219
  H     -9.588058    1.615518    8.938938
  H     -9.510789   -0.780903    8.363430
  H    -10.909738   -1.078842    9.385918
  H    -11.084347   -0.023327    8.082978
  C     -9.181369    2.122025    5.814508
  O     -8.904246    2.536516    7.146417
  H     -8.288244    3.301824    7.207093
  H     -8.213815    2.199684    5.235665
  H     -9.506973    1.100846    5.833280
  H     -9.931350    2.722090    5.355694

 Multiplicity           Mult            ....    1
 Number of Electrons    NEL             ....   18
 Basis Dimension        Dim             ....  172

ORBITAL ENERGIES
----------------

  NO   OCC          E(Eh)            E(eV)
   0   2.0000     -19.227103      -523.1961
   1   2.0000     -10.312277      -280.6113
   2   2.0000      -1.124169       -30.5902
   3   2.0000      -0.796583       -21.6761
   4   2.0000      -0.603857       -16.4318
   5   2.0000      -0.543358       -14.7855
   6   2.0000      -0.531773       -14.4703
   7   2.0000      -0.423252       -11.5173
   8   2.0000      -0.371600       -10.1117
   9   0.0000       0.095677         2.6035
  10   0.0000       0.121035         3.2935
  11   0.0000       0.153460         4.1759
  12   0.0000       0.189864         5.1665
  13   0.0000       0.197857         5.3840

MULLIKEN ATOMIC CHARGES
-----------------------
   0 C :    0.001481
   1 O :   -0.000280
   2 H :   -0.008648
   3 H :   -0.000997
   4 H :   -0.000031
   5 H :   -0.000409
   6 C :   -0.149074
   7 O :   -0.488335
   8 H :    0.317691
   9 H :    0.098509
  10 H :    0.123875
  11 H :    0.106218
Sum of atomic charges:   -0.0000000

LOEWDIN ATOMIC CHARGES
----------------------
   0 C :   -0.002630
   1 O :   -0.003053
   2 H :   -0.030172
   3 H :   -0.000358
   4 H :   -0.000020
   5 H :   -0.000525
   6 C :   -0.367957
   7 O :   -0.071243
   8 H :    0.179495
   9 H :    0.104236
  10 H :    0.103838
  11 H :    0.088389

  Mayer bond orders larger than 0.1
B(  6-C ,  7-O ) :   0.9908 B(  6-C ,  9-H ) :   0.9833 B(  6-C , 10-H ) :   0.9742
B(  6-C , 11-H ) :   0.9715 B(  7-O ,  8-H ) :   0.8900

Dispersion correction           -0.000247364
FINAL SINGLE POINT ENERGY      -115.733490082352

DIPOLE MOMENT
-------------
                                X             Y             Z
Electronic contribution:      0.15002       0.40289       1.65991
Nuclear contribution   :      0.12629      -0.08808      -2.17953
                        -----------------------------------------
Total Dipole Moment    :      0.27632       0.31481      -0.51962
                        -----------------------------------------
Magnitude (a.u.)       :      0.66743
Magnitude (Debye)      :      1.69646

Rotational constants in cm-1:     4.289858     0.822976     0.792936
Rotational constants in MHz : 128606.696242 24672.184807 23771.618518

                             ****ORCA TERMINATED NORMALLY****
TOTAL RUN TIME: 0 days 0 hours 1 minutes 1 seconds 898 msec
