                         Program Version 4.1.2  - RELEASE  -
|  1> #Run DFT-D3 single point of the dimer
|  2> ! wB97X-D3 def2-TZVP TIGHTSCF CHELPG PMODEL PAL8
|  3>
|  4> %base "11-176_DFT_AB"
|  5>
|  6> %scf
|  7> MaxIter 1000
|  8> end
|  9>
| 10> * xyz 0 1
| 11>   C                      1.667350             4.230115             -4.770633
| 12>   O                      2.497562             3.758316             -3.705646
| 13>   H                      2.343543             2.804127             -3.892640
| 14>   H                      0.683906             3.752380             -4.754503
| 15>   H                      1.363030             5.346442             -4.652662
| 16>   H                      2.077796             4.162670             -5.784399
| 17>   C                      1.492828             0.368408             -5.091656
| 18>   O                      1.961456             0.876587             -3.881381
| 19>   H                      2.572465             0.270275             -3.456347
| 20>   H                      2.162575             0.620419             -5.884801
| 21>   H                      1.356467             -0.711084            -4.939639
| 22>   H                      0.515742             0.725289             -5.371675
| 23> *
| 24>
| 25> #Run DFT-D3 single point of the molecule with dimer basis set
| 26> $new_job
| 27> %base "11-176_DFT_A"
| 28> ! wB97X-D3 def2-TZVP TIGHTSCF CHELPG PMODEL
| 29>
| 30> %scf
| 31> MaxIter 1000
| 32> end
| 33>
| 34> * xyz 0 1
| 35>   C                      1.667350             4.230115             -4.770633
| 36>   O                      2.497562             3.758316             -3.705646
| 37>   H                      2.343543             2.804127             -3.892640
| 38>   H                      0.683906             3.752380             -4.754503
| 39>   H                      1.363030             5.346442             -4.652662
| 40>   H                      2.077796             4.162670             -5.784399
| 41>   C                    : 1.492828             0.368408             -5.091656
| 42>   O                    : 1.961456             0.876587             -3.881381
| 43>   H                    : 2.572465             0.270275             -3.456347
| 44>   H                    : 2.162575             0.620419             -5.884801
| 45>   H                    : 1.356467             -0.711084            -4.939639
| 46>   H                    : 0.515742             0.725289             -5.371675
| 47> *
| 48>
| 49> #Run DFT-D3 single point of the particle with dimer basis set
| 50> $new_job
| 51> %base "11-176_DFT_B"
| 52> ! wB97X-D3 def2-TZVP TIGHTSCF CHELPG PMODEL
| 53>
| 54> %scf
| 55> MaxIter 1000
| 56> end
| 57>
| 58> * xyz 0 1
| 59>   C                    : 1.667350             4.230115             -4.770633
| 60>   O                    : 2.497562             3.758316             -3.705646
| 61>   H                    : 2.343543             2.804127             -3.892640
| 62>   H                    : 0.683906             3.752380             -4.754503
| 63>   H                    : 1.363030             5.346442             -4.652662
| 64>   H                    : 2.077796             4.162670             -5.784399
| 65>   C                      1.492828             0.368408             -5.091656
| 66>   O                      1.961456             0.876587             -3.881381
| 67>   H                      2.572465             0.270275             -3.456347
| 68>   H                      2.162575             0.620419             -5.884801
| 69>   H                      1.356467             -0.711084            -4.939639
| 70>   H                      0.515742             0.725289             -5.371675
| 71> *
| 72>
| 73>                          ****END OF INPUT****
 Total Charge           Charge          ....    0
 Multiplicity           Mult            ....    1
 Number of Electrons    NEL             ....   36
Dispersion correction           -0.002010985
FINAL SINGLE POINT ENERGY      -231.468885655996
Dispersion correction           -0.000245955
FINAL SINGLE POINT ENERGY      -115.726696407745

CARTESIAN COORDINATES (ANGSTROEM)
---------------------------------
  C      1.667350    4.230115   -4.770633
  O      2.497562    3.758316   -3.705646
  H      2.343543    2.804127   -3.892640
  H      0.683906    3.752380   -4.754503
  H      1.363030    5.346442   -4.652662
  H      2.077796    4.162670   -5.784399
  C      1.492828    0.368408   -5.091656
  O      1.961456    0.876587   -3.881381
  H      2.572465    0.270275   -3.456347
  H      2.162575    0.620419   -5.884801
  H      1.356467   -0.711084   -4.939639
  H      0.515742    0.725289   -5.371675

 Multiplicity           Mult            ....    1
 Number of Electrons    NEL             ....   18
 Basis Dimension        Dim             ....  172

ORBITAL ENERGIES
----------------

  NO   OCC          E(Eh)            E(eV)
   0   2.0000     -19.226403      -523.1770
   1   2.0000     -10.307396      -280.4785
   2   2.0000      -1.139491       -31.0071
   3   2.0000      -0.798718       -21.7342
   4   2.0000      -0.611229       -16.6324
   5   2.0000      -0.553613       -15.0646
   6   2.0000      -0.535815       -14.5803
   7   2.0000      -0.420139       -11.4326
   8   2.0000      -0.373330       -10.1588
   9   0.0000       0.096370         2.6223
  10   0.0000       0.124546         3.3891
  11   0.0000       0.154635         4.2078
  12   0.0000       0.189338         5.1521
  13   0.0000       0.195360         5.3160

MULLIKEN ATOMIC CHARGES
-----------------------
   0 C :    0.003667
   1 O :   -0.000758
   2 H :   -0.011598
   3 H :   -0.000878
   4 H :   -0.000002
   5 H :   -0.000491
   6 C :   -0.148844
   7 O :   -0.481983
   8 H :    0.319921
   9 H :    0.107043
  10 H :    0.102002
  11 H :    0.111920
Sum of atomic charges:   -0.0000000

LOEWDIN ATOMIC CHARGES
----------------------
   0 C :   -0.002753
   1 O :   -0.004892
   2 H :   -0.042872
   3 H :   -0.000561
   4 H :   -0.000021
   5 H :   -0.000095
   6 C :   -0.388784
   7 O :   -0.026365
   8 H :    0.170404
   9 H :    0.091659
  10 H :    0.101386
  11 H :    0.102896

  Mayer bond orders larger than 0.1
B(  6-C ,  7-O ) :   0.9851 B(  6-C ,  9-H ) :   0.9801 B(  6-C , 10-H ) :   0.9835
B(  6-C , 11-H ) :   0.9735 B(  7-O ,  8-H ) :   0.8930

Dispersion correction           -0.000226568
FINAL SINGLE POINT ENERGY      -115.733018323310

DIPOLE MOMENT
-------------
                                X             Y             Z
Electronic contribution:      0.53802       0.80514       1.46886
Nuclear contribution   :     -0.35338      -1.41462      -1.67346
                        -----------------------------------------
Total Dipole Moment    :      0.18464      -0.60948      -0.20460
                        -----------------------------------------
Magnitude (a.u.)       :      0.66889
Magnitude (Debye)      :      1.70018

Rotational constants in cm-1:     4.417311     0.848509     0.824887
Rotational constants in MHz : 132427.664498 25437.666272 24729.501016

                             ****ORCA TERMINATED NORMALLY****
TOTAL RUN TIME: 0 days 0 hours 1 minutes 15 seconds 921 msec
