                         Program Version 4.1.2  - RELEASE  -
|  1> #Run DFT-D3 single point of the dimer
|  2> ! wB97X-D3 def2-TZVP TIGHTSCF CHELPG PMODEL PAL8
|  3>
|  4> %base "18-127_DFT_AB"
|  5>
|  6> %scf
|  7> MaxIter 1000
|  8> end
|  9>
| 10> * xyz 0 1
| 11>   C                      -7.406621            -1.062606            -5.903901
| 12>   O                      -6.974387            0.219346             -6.228345
| 13>   H                      -7.660141            0.893785             -5.989689
| 14>   H                      -7.602370            -1.107406            -4.873669
| 15>   H                      -8.227226            -1.407391            -6.541051
| 16>   H                      -6.599956            -1.807910            -5.961405
| 17>   C                      -4.918628            1.185095             -3.716477
| 18>   O                      -4.672259            0.000038             -4.366445
| 19>   H                      -4.953604            0.228841             -5.286936
| 20>   H                      -5.340126            1.935895             -4.329332
| 21>   H                      -5.471046            0.979331             -2.770990
| 22>   H                      -3.906583            1.564866             -3.351105
| 23> *
| 24>
| 25> #Run DFT-D3 single point of the molecule with dimer basis set
| 26> $new_job
| 27> %base "18-127_DFT_A"
| 28> ! wB97X-D3 def2-TZVP TIGHTSCF CHELPG PMODEL
| 29>
| 30> %scf
| 31> MaxIter 1000
| 32> end
| 33>
| 34> * xyz 0 1
| 35>   C                      -7.406621            -1.062606            -5.903901
| 36>   O                      -6.974387            0.219346             -6.228345
| 37>   H                      -7.660141            0.893785             -5.989689
| 38>   H                      -7.602370            -1.107406            -4.873669
| 39>   H                      -8.227226            -1.407391            -6.541051
| 40>   H                      -6.599956            -1.807910            -5.961405
| 41>   C                    : -4.918628            1.185095             -3.716477
| 42>   O                    : -4.672259            0.000038             -4.366445
| 43>   H                    : -4.953604            0.228841             -5.286936
| 44>   H                    : -5.340126            1.935895             -4.329332
| 45>   H                    : -5.471046            0.979331             -2.770990
| 46>   H                    : -3.906583            1.564866             -3.351105
| 47> *
| 48>
| 49> #Run DFT-D3 single point of the particle with dimer basis set
| 50> $new_job
| 51> %base "18-127_DFT_B"
| 52> ! wB97X-D3 def2-TZVP TIGHTSCF CHELPG PMODEL
| 53>
| 54> %scf
| 55> MaxIter 1000
| 56> end
| 57>
| 58> * xyz 0 1
| 59>   C                    : -7.406621            -1.062606            -5.903901
| 60>   O                    : -6.974387            0.219346             -6.228345
| 61>   H                    : -7.660141            0.893785             -5.989689
| 62>   H                    : -7.602370            -1.107406            -4.873669
| 63>   H                    : -8.227226            -1.407391            -6.541051
| 64>   H                    : -6.599956            -1.807910            -5.961405
| 65>   C                      -4.918628            1.185095             -3.716477
| 66>   O                      -4.672259            0.000038             -4.366445
| 67>   H                      -4.953604            0.228841             -5.286936
| 68>   H                      -5.340126            1.935895             -4.329332
| 69>   H                      -5.471046            0.979331             -2.770990
| 70>   H                      -3.906583            1.564866             -3.351105
| 71> *
| 72>
| 73>                          ****END OF INPUT****
 Total Charge           Charge          ....    0
 Multiplicity           Mult            ....    1
 Number of Electrons    NEL             ....   36
Dispersion correction           -0.002201010
FINAL SINGLE POINT ENERGY      -231.466569667715
Dispersion correction           -0.000235523
FINAL SINGLE POINT ENERGY      -115.731536816421

CARTESIAN COORDINATES (ANGSTROEM)
---------------------------------
  C     -7.406621   -1.062606   -5.903901
  O     -6.974387    0.219346   -6.228345
  H     -7.660141    0.893785   -5.989689
  H     -7.602370   -1.107406   -4.873669
  H     -8.227226   -1.407391   -6.541051
  H     -6.599956   -1.807910   -5.961405
  C     -4.918628    1.185095   -3.716477
  O     -4.672259    0.000038   -4.366445
  H     -4.953604    0.228841   -5.286936
  H     -5.340126    1.935895   -4.329332
  H     -5.471046    0.979331   -2.770990
  H     -3.906583    1.564866   -3.351105

 Multiplicity           Mult            ....    1
 Number of Electrons    NEL             ....   18
 Basis Dimension        Dim             ....  172

ORBITAL ENERGIES
----------------

  NO   OCC          E(Eh)            E(eV)
   0   2.0000     -19.235435      -523.4228
   1   2.0000     -10.312495      -280.6173
   2   2.0000      -1.150905       -31.3177
   3   2.0000      -0.785142       -21.3648
   4   2.0000      -0.623963       -16.9789
   5   2.0000      -0.536807       -14.6073
   6   2.0000      -0.529194       -14.4001
   7   2.0000      -0.446755       -12.1568
   8   2.0000      -0.363899        -9.9022
   9   0.0000       0.075124         2.0442
  10   0.0000       0.129991         3.5372
  11   0.0000       0.150460         4.0942
  12   0.0000       0.165213         4.4957
  13   0.0000       0.193366         5.2618

MULLIKEN ATOMIC CHARGES
-----------------------
   0 C :   -0.007815
   1 O :   -0.003631
   2 H :    0.000076
   3 H :   -0.000393
   4 H :   -0.000635
   5 H :   -0.000982
   6 C :   -0.168938
   7 O :   -0.444585
   8 H :    0.319422
   9 H :    0.108828
  10 H :    0.106467
  11 H :    0.092185
Sum of atomic charges:    0.0000000

LOEWDIN ATOMIC CHARGES
----------------------
   0 C :   -0.012325
   1 O :   -0.010303
   2 H :   -0.000788
   3 H :   -0.001857
   4 H :   -0.000238
   5 H :   -0.002352
   6 C :   -0.425595
   7 O :   -0.042581
   8 H :    0.198196
   9 H :    0.087548
  10 H :    0.105528
  11 H :    0.104768

  Mayer bond orders larger than 0.1
B(  6-C ,  7-O ) :   1.0068 B(  6-C ,  9-H ) :   0.9829 B(  6-C , 10-H ) :   0.9773
B(  6-C , 11-H ) :   0.9813 B(  7-O ,  8-H ) :   0.8982

Dispersion correction           -0.000221365
FINAL SINGLE POINT ENERGY      -115.727542253030

DIPOLE MOMENT
-------------
                                X             Y             Z
Electronic contribution:      0.19450      -1.61638      -0.84710
Nuclear contribution   :     -0.45723       2.18598       0.49797
                        -----------------------------------------
Total Dipole Moment    :     -0.26273       0.56961      -0.34913
                        -----------------------------------------
Magnitude (a.u.)       :      0.71789
Magnitude (Debye)      :      1.82473

Rotational constants in cm-1:     4.088138     0.885852     0.842157
Rotational constants in MHz : 122559.307175 26557.180116 25247.221389

                             ****ORCA TERMINATED NORMALLY****
TOTAL RUN TIME: 0 days 0 hours 1 minutes 2 seconds 431 msec
