                         Program Version 4.1.2  - RELEASE  -
|  1> #Run DFT-D3 single point of the dimer
|  2> ! wB97X-D3 def2-TZVP TIGHTSCF CHELPG PMODEL PAL8
|  3>
|  4> %base "1-99_DFT_AB"
|  5>
|  6> %scf
|  7> MaxIter 1000
|  8> end
|  9>
| 10> * xyz 0 1
| 11>   C                      -6.076476            10.396994            8.572423
| 12>   O                      -4.913337            11.136352            8.302519
| 13>   H                      -4.968444            12.080275            8.375493
| 14>   H                      -6.294389            9.678972             7.724420
| 15>   H                      -6.081936            9.823034             9.605426
| 16>   H                      -6.905947            11.125597            8.466702
| 17>   C                      -3.751348            7.724670             11.700995
| 18>   O                      -4.453875            6.674924             11.098791
| 19>   H                      -5.358480            6.778151             10.744223
| 20>   H                      -3.543185            7.647209             12.744406
| 21>   H                      -2.809373            7.828789             11.178415
| 22>   H                      -4.311834            8.673764             11.468796
| 23> *
| 24>
| 25> #Run DFT-D3 single point of the molecule with dimer basis set
| 26> $new_job
| 27> %base "1-99_DFT_A"
| 28> ! wB97X-D3 def2-TZVP TIGHTSCF CHELPG PMODEL
| 29>
| 30> %scf
| 31> MaxIter 1000
| 32> end
| 33>
| 34> * xyz 0 1
| 35>   C                      -6.076476            10.396994            8.572423
| 36>   O                      -4.913337            11.136352            8.302519
| 37>   H                      -4.968444            12.080275            8.375493
| 38>   H                      -6.294389            9.678972             7.724420
| 39>   H                      -6.081936            9.823034             9.605426
| 40>   H                      -6.905947            11.125597            8.466702
| 41>   C                    : -3.751348            7.724670             11.700995
| 42>   O                    : -4.453875            6.674924             11.098791
| 43>   H                    : -5.358480            6.778151             10.744223
| 44>   H                    : -3.543185            7.647209             12.744406
| 45>   H                    : -2.809373            7.828789             11.178415
| 46>   H                    : -4.311834            8.673764             11.468796
| 47> *
| 48>
| 49> #Run DFT-D3 single point of the particle with dimer basis set
| 50> $new_job
| 51> %base "1-99_DFT_B"
| 52> ! wB97X-D3 def2-TZVP TIGHTSCF CHELPG PMODEL
| 53>
| 54> %scf
| 55> MaxIter 1000
| 56> end
| 57>
| 58> * xyz 0 1
| 59>   C                    : -6.076476            10.396994            8.572423
| 60>   O                    : -4.913337            11.136352            8.302519
| 61>   H                    : -4.968444            12.080275            8.375493
| 62>   H                    : -6.294389            9.678972             7.724420
| 63>   H                    : -6.081936            9.823034             9.605426
| 64>   H                    : -6.905947            11.125597            8.466702
| 65>   C                      -3.751348            7.724670             11.700995
| 66>   O                      -4.453875            6.674924             11.098791
| 67>   H                      -5.358480            6.778151             10.744223
| 68>   H                      -3.543185            7.647209             12.744406
| 69>   H                      -2.809373            7.828789             11.178415
| 70>   H                      -4.311834            8.673764             11.468796
| 71> *
| 72>
| 73>                          ****END OF INPUT****
 Total Charge           Charge          ....    0
 Multiplicity           Mult            ....    1
 Number of Electrons    NEL             ....   36
Dispersion correction           -0.001148733
FINAL SINGLE POINT ENERGY      -231.452217066509
Dispersion correction           -0.000271579
FINAL SINGLE POINT ENERGY      -115.724967747279

CARTESIAN COORDINATES (ANGSTROEM)
---------------------------------
  C     -6.076476   10.396994    8.572423
  O     -4.913337   11.136352    8.302519
  H     -4.968444   12.080275    8.375493
  H     -6.294389    9.678972    7.724420
  H     -6.081936    9.823034    9.605426
  H     -6.905947   11.125597    8.466702
  C     -3.751348    7.724670   11.700995
  O     -4.453875    6.674924   11.098791
  H     -5.358480    6.778151   10.744223
  H     -3.543185    7.647209   12.744406
  H     -2.809373    7.828789   11.178415
  H     -4.311834    8.673764   11.468796

 Multiplicity           Mult            ....    1
 Number of Electrons    NEL             ....   18
 Basis Dimension        Dim             ....  172

ORBITAL ENERGIES
----------------

  NO   OCC          E(Eh)            E(eV)
   0   2.0000     -19.222910      -523.0820
   1   2.0000     -10.312873      -280.6275
   2   2.0000      -1.126979       -30.6667
   3   2.0000      -0.799958       -21.7680
   4   2.0000      -0.611716       -16.6457
   5   2.0000      -0.546516       -14.8714
   6   2.0000      -0.531673       -14.4676
   7   2.0000      -0.406371       -11.0579
   8   2.0000      -0.371196       -10.1008
   9   0.0000       0.077102         2.0981
  10   0.0000       0.115997         3.1564
  11   0.0000       0.149543         4.0693
  12   0.0000       0.167166         4.5488
  13   0.0000       0.187135         5.0922

MULLIKEN ATOMIC CHARGES
-----------------------
   0 C :   -0.000552
   1 O :   -0.000004
   2 H :   -0.000004
   3 H :   -0.000003
   4 H :    0.000660
   5 H :    0.000039
   6 C :   -0.132127
   7 O :   -0.517567
   8 H :    0.332019
   9 H :    0.113423
  10 H :    0.111105
  11 H :    0.093008
Sum of atomic charges:   -0.0000000

LOEWDIN ATOMIC CHARGES
----------------------
   0 C :   -0.000593
   1 O :   -0.000026
   2 H :   -0.000002
   3 H :   -0.000010
   4 H :   -0.001131
   5 H :   -0.000008
   6 C :   -0.386845
   7 O :   -0.085677
   8 H :    0.178111
   9 H :    0.091971
  10 H :    0.101112
  11 H :    0.103096

  Mayer bond orders larger than 0.1
B(  6-C ,  7-O ) :   0.9915 B(  6-C ,  9-H ) :   0.9678 B(  6-C , 10-H ) :   0.9766
B(  6-C , 11-H ) :   0.9892 B(  7-O ,  8-H ) :   0.8802

Dispersion correction           -0.000261333
FINAL SINGLE POINT ENERGY      -115.726824886994

DIPOLE MOMENT
-------------
                                X             Y             Z
Electronic contribution:     -0.79667      -1.46460      -0.57681
Nuclear contribution   :      0.47719       1.98318       0.57629
                        -----------------------------------------
Total Dipole Moment    :     -0.31948       0.51858      -0.00052
                        -----------------------------------------
Magnitude (a.u.)       :      0.60909
Magnitude (Debye)      :      1.54819

Rotational constants in cm-1:     4.509753     0.827304     0.800922
Rotational constants in MHz : 135199.007891 24801.936859 24011.034077

                             ****ORCA TERMINATED NORMALLY****
TOTAL RUN TIME: 0 days 0 hours 4 minutes 39 seconds 686 msec
