                         Program Version 4.1.2  - RELEASE  -
|  1> #Run DFT-D3 single point of the dimer
|  2> ! wB97X-D3 def2-TZVP TIGHTSCF CHELPG PMODEL PAL8
|  3>
|  4> %base "15-195_DFT_AB"
|  5>
|  6> %scf
|  7> MaxIter 1000
|  8> end
|  9>
| 10> * xyz 0 1
| 11>   C                      10.860286            -5.282682            -5.811758
| 12>   O                      12.082115            -5.966277            -5.602407
| 13>   H                      12.361763            -6.338035            -6.449908
| 14>   H                      10.445701            -4.972029            -4.799911
| 15>   H                      10.944732            -4.482547            -6.595003
| 16>   H                      10.141677            -5.984801            -6.157158
| 17>   C                      10.222651            -6.865187            -9.434324
| 18>   O                      10.338440            -7.570229            -8.272993
| 19>   H                      11.199313            -8.019206            -8.337695
| 20>   H                      11.219913            -6.901676            -9.961368
| 21>   H                      9.505957             -7.287844            -10.153554
| 22>   H                      9.995374             -5.800123            -9.295569
| 23> *
| 24>
| 25> #Run DFT-D3 single point of the molecule with dimer basis set
| 26> $new_job
| 27> %base "15-195_DFT_A"
| 28> ! wB97X-D3 def2-TZVP TIGHTSCF CHELPG PMODEL
| 29>
| 30> %scf
| 31> MaxIter 1000
| 32> end
| 33>
| 34> * xyz 0 1
| 35>   C                      10.860286            -5.282682            -5.811758
| 36>   O                      12.082115            -5.966277            -5.602407
| 37>   H                      12.361763            -6.338035            -6.449908
| 38>   H                      10.445701            -4.972029            -4.799911
| 39>   H                      10.944732            -4.482547            -6.595003
| 40>   H                      10.141677            -5.984801            -6.157158
| 41>   C                    : 10.222651            -6.865187            -9.434324
| 42>   O                    : 10.338440            -7.570229            -8.272993
| 43>   H                    : 11.199313            -8.019206            -8.337695
| 44>   H                    : 11.219913            -6.901676            -9.961368
| 45>   H                    : 9.505957             -7.287844            -10.153554
| 46>   H                    : 9.995374             -5.800123            -9.295569
| 47> *
| 48>
| 49> #Run DFT-D3 single point of the particle with dimer basis set
| 50> $new_job
| 51> %base "15-195_DFT_B"
| 52> ! wB97X-D3 def2-TZVP TIGHTSCF CHELPG PMODEL
| 53>
| 54> %scf
| 55> MaxIter 1000
| 56> end
| 57>
| 58> * xyz 0 1
| 59>   C                    : 10.860286            -5.282682            -5.811758
| 60>   O                    : 12.082115            -5.966277            -5.602407
| 61>   H                    : 12.361763            -6.338035            -6.449908
| 62>   H                    : 10.445701            -4.972029            -4.799911
| 63>   H                    : 10.944732            -4.482547            -6.595003
| 64>   H                    : 10.141677            -5.984801            -6.157158
| 65>   C                      10.222651            -6.865187            -9.434324
| 66>   O                      10.338440            -7.570229            -8.272993
| 67>   H                      11.199313            -8.019206            -8.337695
| 68>   H                      11.219913            -6.901676            -9.961368
| 69>   H                      9.505957             -7.287844            -10.153554
| 70>   H                      9.995374             -5.800123            -9.295569
| 71> *
| 72>
| 73>                          ****END OF INPUT****
 Total Charge           Charge          ....    0
 Multiplicity           Mult            ....    1
 Number of Electrons    NEL             ....   36
Dispersion correction           -0.002040863
FINAL SINGLE POINT ENERGY      -231.465000649811
Dispersion correction           -0.000234790
FINAL SINGLE POINT ENERGY      -115.732161749168

CARTESIAN COORDINATES (ANGSTROEM)
---------------------------------
  C     10.860286   -5.282682   -5.811758
  O     12.082115   -5.966277   -5.602407
  H     12.361763   -6.338035   -6.449908
  H     10.445701   -4.972029   -4.799911
  H     10.944732   -4.482547   -6.595003
  H     10.141677   -5.984801   -6.157158
  C     10.222651   -6.865187   -9.434324
  O     10.338440   -7.570229   -8.272993
  H     11.199313   -8.019206   -8.337695
  H     11.219913   -6.901676   -9.961368
  H      9.505957   -7.287844  -10.153554
  H      9.995374   -5.800123   -9.295569

 Multiplicity           Mult            ....    1
 Number of Electrons    NEL             ....   18
 Basis Dimension        Dim             ....  172

ORBITAL ENERGIES
----------------

  NO   OCC          E(Eh)            E(eV)
   0   2.0000     -19.234787      -523.4052
   1   2.0000     -10.314203      -280.6637
   2   2.0000      -1.155315       -31.4377
   3   2.0000      -0.787916       -21.4403
   4   2.0000      -0.621469       -16.9110
   5   2.0000      -0.546943       -14.8831
   6   2.0000      -0.537472       -14.6253
   7   2.0000      -0.425252       -11.5717
   8   2.0000      -0.374070       -10.1790
   9   0.0000       0.088260         2.4017
  10   0.0000       0.121507         3.3064
  11   0.0000       0.150975         4.1082
  12   0.0000       0.178549         4.8586
  13   0.0000       0.188686         5.1344

MULLIKEN ATOMIC CHARGES
-----------------------
   0 C :    0.005830
   1 O :    0.000104
   2 H :   -0.007091
   3 H :   -0.000101
   4 H :   -0.001126
   5 H :   -0.006387
   6 C :   -0.173968
   7 O :   -0.450400
   8 H :    0.325559
   9 H :    0.089842
  10 H :    0.104390
  11 H :    0.113349
Sum of atomic charges:    0.0000000

LOEWDIN ATOMIC CHARGES
----------------------
   0 C :   -0.007257
   1 O :   -0.000637
   2 H :   -0.004667
   3 H :   -0.000056
   4 H :   -0.000406
   5 H :   -0.008118
   6 C :   -0.433790
   7 O :   -0.029506
   8 H :    0.187617
   9 H :    0.100241
  10 H :    0.096193
  11 H :    0.100385

  Mayer bond orders larger than 0.1
B(  6-C ,  7-O ) :   1.0112 B(  6-C ,  9-H ) :   0.9971 B(  6-C , 10-H ) :   0.9687
B(  6-C , 11-H ) :   0.9734 B(  7-O ,  8-H ) :   0.8934

Dispersion correction           -0.000229023
FINAL SINGLE POINT ENERGY      -115.731130713028

DIPOLE MOMENT
-------------
                                X             Y             Z
Electronic contribution:     -0.11112      -0.91088       1.71630
Nuclear contribution   :      0.62810       0.86662      -2.17640
                        -----------------------------------------
Total Dipole Moment    :      0.51698      -0.04427      -0.46010
                        -----------------------------------------
Magnitude (a.u.)       :      0.69349
Magnitude (Debye)      :      1.76270

Rotational constants in cm-1:     4.220493     0.878196     0.843507
Rotational constants in MHz : 126527.211243 26327.664011 25287.698892

                             ****ORCA TERMINATED NORMALLY****
TOTAL RUN TIME: 0 days 0 hours 1 minutes 7 seconds 642 msec
