                         Program Version 4.1.2  - RELEASE  -
|  1> #Run DFT-D3 single point of the dimer
|  2> ! wB97X-D3 def2-TZVP TIGHTSCF CHELPG PMODEL PAL8
|  3>
|  4> %base "5-172_DFT_AB"
|  5>
|  6> %scf
|  7> MaxIter 1000
|  8> end
|  9>
| 10> * xyz 0 1
| 11>   C                      2.961884             0.407319             -2.412688
| 12>   O                      2.456259             1.484305             -1.679243
| 13>   H                      2.553771             1.294301             -0.756044
| 14>   H                      3.996649             0.213085             -2.123589
| 15>   H                      2.420544             -0.510132            -2.440008
| 16>   H                      2.934534             0.770478             -3.468027
| 17>   C                      6.349488             1.958305             -0.293641
| 18>   O                      6.402245             1.534939             -1.668295
| 19>   H                      5.500103             1.659178             -2.082639
| 20>   H                      7.230434             2.498772             -0.038362
| 21>   H                      5.513317             2.605014             -0.130240
| 22>   H                      6.275680             1.143591             0.346185
| 23> *
| 24>
| 25> #Run DFT-D3 single point of the molecule with dimer basis set
| 26> $new_job
| 27> %base "5-172_DFT_A"
| 28> ! wB97X-D3 def2-TZVP TIGHTSCF CHELPG PMODEL
| 29>
| 30> %scf
| 31> MaxIter 1000
| 32> end
| 33>
| 34> * xyz 0 1
| 35>   C                      2.961884             0.407319             -2.412688
| 36>   O                      2.456259             1.484305             -1.679243
| 37>   H                      2.553771             1.294301             -0.756044
| 38>   H                      3.996649             0.213085             -2.123589
| 39>   H                      2.420544             -0.510132            -2.440008
| 40>   H                      2.934534             0.770478             -3.468027
| 41>   C                    : 6.349488             1.958305             -0.293641
| 42>   O                    : 6.402245             1.534939             -1.668295
| 43>   H                    : 5.500103             1.659178             -2.082639
| 44>   H                    : 7.230434             2.498772             -0.038362
| 45>   H                    : 5.513317             2.605014             -0.130240
| 46>   H                    : 6.275680             1.143591             0.346185
| 47> *
| 48>
| 49> #Run DFT-D3 single point of the particle with dimer basis set
| 50> $new_job
| 51> %base "5-172_DFT_B"
| 52> ! wB97X-D3 def2-TZVP TIGHTSCF CHELPG PMODEL
| 53>
| 54> %scf
| 55> MaxIter 1000
| 56> end
| 57>
| 58> * xyz 0 1
| 59>   C                    : 2.961884             0.407319             -2.412688
| 60>   O                    : 2.456259             1.484305             -1.679243
| 61>   H                    : 2.553771             1.294301             -0.756044
| 62>   H                    : 3.996649             0.213085             -2.123589
| 63>   H                    : 2.420544             -0.510132            -2.440008
| 64>   H                    : 2.934534             0.770478             -3.468027
| 65>   C                      6.349488             1.958305             -0.293641
| 66>   O                      6.402245             1.534939             -1.668295
| 67>   H                      5.500103             1.659178             -2.082639
| 68>   H                      7.230434             2.498772             -0.038362
| 69>   H                      5.513317             2.605014             -0.130240
| 70>   H                      6.275680             1.143591             0.346185
| 71> *
| 72>
| 73>                          ****END OF INPUT****
 Total Charge           Charge          ....    0
 Multiplicity           Mult            ....    1
 Number of Electrons    NEL             ....   36
Dispersion correction           -0.001880152
FINAL SINGLE POINT ENERGY      -231.468208048539
Dispersion correction           -0.000239720
FINAL SINGLE POINT ENERGY      -115.734157593604

CARTESIAN COORDINATES (ANGSTROEM)
---------------------------------
  C      2.961884    0.407319   -2.412688
  O      2.456259    1.484305   -1.679243
  H      2.553771    1.294301   -0.756044
  H      3.996649    0.213085   -2.123589
  H      2.420544   -0.510132   -2.440008
  H      2.934534    0.770478   -3.468027
  C      6.349488    1.958305   -0.293641
  O      6.402245    1.534939   -1.668295
  H      5.500103    1.659178   -2.082639
  H      7.230434    2.498772   -0.038362
  H      5.513317    2.605014   -0.130240
  H      6.275680    1.143591    0.346185

 Multiplicity           Mult            ....    1
 Number of Electrons    NEL             ....   18
 Basis Dimension        Dim             ....  172

ORBITAL ENERGIES
----------------

  NO   OCC          E(Eh)            E(eV)
   0   2.0000     -19.231637      -523.3195
   1   2.0000     -10.303080      -280.3610
   2   2.0000      -1.119462       -30.4621
   3   2.0000      -0.802749       -21.8439
   4   2.0000      -0.603247       -16.4152
   5   2.0000      -0.545784       -14.8515
   6   2.0000      -0.528556       -14.3827
   7   2.0000      -0.433252       -11.7894
   8   2.0000      -0.374390       -10.1877
   9   0.0000       0.070674         1.9231
  10   0.0000       0.135213         3.6793
  11   0.0000       0.142209         3.8697
  12   0.0000       0.171683         4.6717
  13   0.0000       0.183327         4.9886

MULLIKEN ATOMIC CHARGES
-----------------------
   0 C :    0.003715
   1 O :    0.000009
   2 H :    0.000067
   3 H :   -0.015582
   4 H :   -0.000719
   5 H :    0.000193
   6 C :   -0.161425
   7 O :   -0.486106
   8 H :    0.319893
   9 H :    0.120780
  10 H :    0.107268
  11 H :    0.111907
Sum of atomic charges:   -0.0000000

LOEWDIN ATOMIC CHARGES
----------------------
   0 C :   -0.006110
   1 O :   -0.000312
   2 H :   -0.000288
   3 H :   -0.009374
   4 H :   -0.000087
   5 H :   -0.000217
   6 C :   -0.351512
   7 O :   -0.106518
   8 H :    0.192200
   9 H :    0.100862
  10 H :    0.094603
  11 H :    0.086754

  Mayer bond orders larger than 0.1
B(  6-C ,  7-O ) :   0.9935 B(  6-C ,  9-H ) :   0.9771 B(  6-C , 10-H ) :   0.9863
B(  6-C , 11-H ) :   0.9771 B(  7-O ,  8-H ) :   0.8963

Dispersion correction           -0.000244145
FINAL SINGLE POINT ENERGY      -115.731875497940

DIPOLE MOMENT
-------------
                                X             Y             Z
Electronic contribution:      0.23900      -0.57563      -1.62946
Nuclear contribution   :     -0.81846       0.85027       1.96686
                        -----------------------------------------
Total Dipole Moment    :     -0.57946       0.27464       0.33740
                        -----------------------------------------
Magnitude (a.u.)       :      0.72460
Magnitude (Debye)      :      1.84178

Rotational constants in cm-1:     4.462845     0.813205     0.780907
Rotational constants in MHz : 133792.723314 24379.281866 23411.006381

                             ****ORCA TERMINATED NORMALLY****
TOTAL RUN TIME: 0 days 0 hours 0 minutes 55 seconds 944 msec
