                         Program Version 4.1.2  - RELEASE  -
|  1> #Run DFT-D3 single point of the dimer
|  2> ! wB97X-D3 def2-TZVP TIGHTSCF  CHELPG PAL8
|  3>
|  4> %base "185_charges"
|  5>
|  6> %scf
|  7> MaxIter 1000
|  8> end
|  9> %output
| 10>   Print[ P_Mayer ] 1
| 11>   Print[ P_NatPop ] 1
| 12>   Print[ P_Hirshfeld ] 1
| 13>   Print[ P_Mulliken ] 1
| 14>   Print [ P_Loewdin ] 1
| 15> end
| 16>
| 17> * xyz 0 1
| 18>   C                      9.154724             -11.721413           -6.804512
| 19>   O                      9.141616             -12.929495           -6.090259
| 20>   H                      8.803279             -12.746357           -5.189906
| 21>   H                      10.221706            -11.446662           -7.018588
| 22>   H                      8.790033             -11.772553           -7.824847
| 23>   H                      8.734817             -10.981306           -6.165708
| 24> *
| 25>
| 26>                          ****END OF INPUT****

CARTESIAN COORDINATES (ANGSTROEM)
---------------------------------
  C      9.154724  -11.721413   -6.804512
  O      9.141616  -12.929495   -6.090259
  H      8.803279  -12.746357   -5.189906
  H     10.221706  -11.446662   -7.018588
  H      8.790033  -11.772553   -7.824847
  H      8.734817  -10.981306   -6.165708

 Total Charge           Charge          ....    0
 Multiplicity           Mult            ....    1
 Number of Electrons    NEL             ....   18
 Basis Dimension        Dim             ....   86

ORBITAL ENERGIES
----------------

  NO   OCC          E(Eh)            E(eV)
   0   2.0000     -19.229790      -523.2692
   1   2.0000     -10.310969      -280.5757
   2   2.0000      -1.135923       -30.9100
   3   2.0000      -0.793687       -21.5973
   4   2.0000      -0.613386       -16.6911
   5   2.0000      -0.548055       -14.9133
   6   2.0000      -0.525210       -14.2917
   7   2.0000      -0.434496       -11.8232
   8   2.0000      -0.364966        -9.9312
   9   0.0000       0.109567         2.9815
  10   0.0000       0.155068         4.2196
  11   0.0000       0.199712         5.4344
  12   0.0000       0.209290         5.6951
  13   0.0000       0.233756         6.3608

MULLIKEN ATOMIC CHARGES
-----------------------
   0 C :   -0.157981
   1 O :   -0.473640
   2 H :    0.319721
   3 H :    0.094595
   4 H :    0.113845
   5 H :    0.103460
Sum of atomic charges:   -0.0000000

LOEWDIN ATOMIC CHARGES
----------------------
   0 C :   -0.393864
   1 O :   -0.082036
   2 H :    0.182397
   3 H :    0.101634
   4 H :    0.100206
   5 H :    0.091663

  Mayer bond orders larger than 0.1
B(  0-C ,  1-O ) :   1.0162 B(  0-C ,  3-H ) :   0.9791 B(  0-C ,  4-H ) :   0.9719
B(  0-C ,  5-H ) :   0.9919 B(  1-O ,  2-H ) :   0.8963

Dispersion correction           -0.000237498
FINAL SINGLE POINT ENERGY      -115.728413353854

DIPOLE MOMENT
-------------
                                X             Y             Z
Electronic contribution:     -0.18450      -1.61153       0.79871
Nuclear contribution   :     -0.03214       2.20455      -0.49783
                        -----------------------------------------
Total Dipole Moment    :     -0.21664       0.59302       0.30088
                        -----------------------------------------
Magnitude (a.u.)       :      0.69938
Magnitude (Debye)      :      1.77768

Rotational constants in cm-1:     4.312362     0.849250     0.805308
Rotational constants in MHz : 129281.350297 25459.887389 24142.520705

                             ****ORCA TERMINATED NORMALLY****
TOTAL RUN TIME: 0 days 0 hours 0 minutes 41 seconds 424 msec
