                         Program Version 4.1.2  - RELEASE  -
|  1> #Run DFT-D3 single point of the dimer
|  2> ! wB97X-D3 def2-TZVP TIGHTSCF  CHELPG PAL8
|  3>
|  4> %base "110_charges"
|  5>
|  6> %scf
|  7> MaxIter 1000
|  8> end
|  9> %output
| 10>   Print[ P_Mayer ] 1
| 11>   Print[ P_NatPop ] 1
| 12>   Print[ P_Hirshfeld ] 1
| 13>   Print[ P_Mulliken ] 1
| 14>   Print [ P_Loewdin ] 1
| 15> end
| 16>
| 17> * xyz 0 1
| 18>   C                      -7.376008            -9.255412            -0.328323
| 19>   O                      -6.533919            -10.332615           0.042456
| 20>   H                      -6.480554            -10.999285           -0.666862
| 21>   H                      -7.055635            -8.948872            -1.318007
| 22>   H                      -8.416867            -9.502043            -0.301169
| 23>   H                      -7.237659            -8.391894            0.344737
| 24> *
| 25>
| 26>                          ****END OF INPUT****

CARTESIAN COORDINATES (ANGSTROEM)
---------------------------------
  C     -7.376008   -9.255412   -0.328323
  O     -6.533919  -10.332615    0.042456
  H     -6.480554  -10.999285   -0.666862
  H     -7.055635   -8.948872   -1.318007
  H     -8.416867   -9.502043   -0.301169
  H     -7.237659   -8.391894    0.344737

 Total Charge           Charge          ....    0
 Multiplicity           Mult            ....    1
 Number of Electrons    NEL             ....   18
 Basis Dimension        Dim             ....   86

ORBITAL ENERGIES
----------------

  NO   OCC          E(Eh)            E(eV)
   0   2.0000     -19.227022      -523.1939
   1   2.0000     -10.310922      -280.5745
   2   2.0000      -1.129005       -30.7218
   3   2.0000      -0.796362       -21.6701
   4   2.0000      -0.605990       -16.4898
   5   2.0000      -0.548864       -14.9353
   6   2.0000      -0.527615       -14.3571
   7   2.0000      -0.424386       -11.5481
   8   2.0000      -0.372626       -10.1397
   9   0.0000       0.114629         3.1192
  10   0.0000       0.155176         4.2225
  11   0.0000       0.204350         5.5606
  12   0.0000       0.208881         5.6839
  13   0.0000       0.221650         6.0314

MULLIKEN ATOMIC CHARGES
-----------------------
   0 C :   -0.148219
   1 O :   -0.489229
   2 H :    0.317343
   3 H :    0.097605
   4 H :    0.105069
   5 H :    0.117430
Sum of atomic charges:    0.0000000

LOEWDIN ATOMIC CHARGES
----------------------
   0 C :   -0.377715
   1 O :   -0.091827
   2 H :    0.175610
   3 H :    0.094099
   4 H :    0.089055
   5 H :    0.110778

  Mayer bond orders larger than 0.1
B(  0-C ,  1-O ) :   0.9940 B(  0-C ,  3-H ) :   0.9901 B(  0-C ,  4-H ) :   0.9716
B(  0-C ,  5-H ) :   0.9715 B(  1-O ,  2-H ) :   0.8942

Dispersion correction           -0.000238515
FINAL SINGLE POINT ENERGY      -115.734415271445

DIPOLE MOMENT
-------------
                                X             Y             Z
Electronic contribution:      1.00703      -1.31291       0.60154
Nuclear contribution   :     -1.31484       1.33798      -1.20676
                        -----------------------------------------
Total Dipole Moment    :     -0.30781       0.02507      -0.60522
                        -----------------------------------------
Magnitude (a.u.)       :      0.67946
Magnitude (Debye)      :      1.72705

Rotational constants in cm-1:     4.352126     0.826610     0.799570
Rotational constants in MHz : 130473.455444 24781.152230 23970.494238

                             ****ORCA TERMINATED NORMALLY****
TOTAL RUN TIME: 0 days 0 hours 0 minutes 42 seconds 370 msec
