                         Program Version 4.1.2  - RELEASE  -
|  1> #Run DFT-D3 single point of the dimer
|  2> ! wB97X-D3 def2-TZVP TIGHTSCF CHELPG PMODEL PAL8
|  3>
|  4> %base "22-37_DFT_AB"
|  5>
|  6> %scf
|  7> MaxIter 1000
|  8> end
|  9>
| 10> * xyz 0 1
| 11>   C                      -7.103731            6.653923             -1.669574
| 12>   O                      -6.894566            5.210805             -1.789627
| 13>   H                      -7.334692            4.689197             -1.072243
| 14>   H                      -8.194465            6.918869             -1.815733
| 15>   H                      -6.801057            7.072376             -0.661411
| 16>   H                      -6.560077            7.160748             -2.438667
| 17>   C                      -10.114085           10.009507            -2.844951
| 18>   O                      -10.634974           9.728531             -1.532701
| 19>   H                      -10.093719           10.314812            -1.026609
| 20>   H                      -10.566298           10.919197            -3.225854
| 21>   H                      -9.039783            10.152510            -2.915477
| 22>   H                      -10.263614           9.199331             -3.494467
| 23> *
| 24>
| 25> #Run DFT-D3 single point of the molecule with dimer basis set
| 26> $new_job
| 27> %base "22-37_DFT_A"
| 28> ! wB97X-D3 def2-TZVP TIGHTSCF CHELPG PMODEL
| 29>
| 30> %scf
| 31> MaxIter 1000
| 32> end
| 33>
| 34> * xyz 0 1
| 35>   C                      -7.103731            6.653923             -1.669574
| 36>   O                      -6.894566            5.210805             -1.789627
| 37>   H                      -7.334692            4.689197             -1.072243
| 38>   H                      -8.194465            6.918869             -1.815733
| 39>   H                      -6.801057            7.072376             -0.661411
| 40>   H                      -6.560077            7.160748             -2.438667
| 41>   C                    : -10.114085           10.009507            -2.844951
| 42>   O                    : -10.634974           9.728531             -1.532701
| 43>   H                    : -10.093719           10.314812            -1.026609
| 44>   H                    : -10.566298           10.919197            -3.225854
| 45>   H                    : -9.039783            10.152510            -2.915477
| 46>   H                    : -10.263614           9.199331             -3.494467
| 47> *
| 48>
| 49> #Run DFT-D3 single point of the particle with dimer basis set
| 50> $new_job
| 51> %base "22-37_DFT_B"
| 52> ! wB97X-D3 def2-TZVP TIGHTSCF CHELPG PMODEL
| 53>
| 54> %scf
| 55> MaxIter 1000
| 56> end
| 57>
| 58> * xyz 0 1
| 59>   C                    : -7.103731            6.653923             -1.669574
| 60>   O                    : -6.894566            5.210805             -1.789627
| 61>   H                    : -7.334692            4.689197             -1.072243
| 62>   H                    : -8.194465            6.918869             -1.815733
| 63>   H                    : -6.801057            7.072376             -0.661411
| 64>   H                    : -6.560077            7.160748             -2.438667
| 65>   C                      -10.114085           10.009507            -2.844951
| 66>   O                      -10.634974           9.728531             -1.532701
| 67>   H                      -10.093719           10.314812            -1.026609
| 68>   H                      -10.566298           10.919197            -3.225854
| 69>   H                      -9.039783            10.152510            -2.915477
| 70>   H                      -10.263614           9.199331             -3.494467
| 71> *
| 72>
| 73>                          ****END OF INPUT****
 Total Charge           Charge          ....    0
 Multiplicity           Mult            ....    1
 Number of Electrons    NEL             ....   36
Dispersion correction           -0.001072149
FINAL SINGLE POINT ENERGY      -231.463448639622
Dispersion correction           -0.000295650
FINAL SINGLE POINT ENERGY      -115.731624509275

CARTESIAN COORDINATES (ANGSTROEM)
---------------------------------
  C     -7.103731    6.653923   -1.669574
  O     -6.894566    5.210805   -1.789627
  H     -7.334692    4.689197   -1.072243
  H     -8.194465    6.918869   -1.815733
  H     -6.801057    7.072376   -0.661411
  H     -6.560077    7.160748   -2.438667
  C    -10.114085   10.009507   -2.844951
  O    -10.634974    9.728531   -1.532701
  H    -10.093719   10.314812   -1.026609
  H    -10.566298   10.919197   -3.225854
  H     -9.039783   10.152510   -2.915477
  H    -10.263614    9.199331   -3.494467

 Multiplicity           Mult            ....    1
 Number of Electrons    NEL             ....   18
 Basis Dimension        Dim             ....  172

ORBITAL ENERGIES
----------------

  NO   OCC          E(Eh)            E(eV)
   0   2.0000     -19.232676      -523.3477
   1   2.0000     -10.308431      -280.5067
   2   2.0000      -1.138081       -30.9687
   3   2.0000      -0.801416       -21.8076
   4   2.0000      -0.608474       -16.5574
   5   2.0000      -0.548454       -14.9242
   6   2.0000      -0.519431       -14.1344
   7   2.0000      -0.447302       -12.1717
   8   2.0000      -0.377855       -10.2819
   9   0.0000       0.084711         2.3051
  10   0.0000       0.118254         3.2178
  11   0.0000       0.149245         4.0612
  12   0.0000       0.169936         4.6242
  13   0.0000       0.188776         5.1368

MULLIKEN ATOMIC CHARGES
-----------------------
   0 C :    0.000426
   1 O :    0.000002
   2 H :   -0.000005
   3 H :   -0.001290
   4 H :   -0.000047
   5 H :   -0.000097
   6 C :   -0.190975
   7 O :   -0.461115
   8 H :    0.310613
   9 H :    0.109501
  10 H :    0.108157
  11 H :    0.124829
Sum of atomic charges:   -0.0000000

LOEWDIN ATOMIC CHARGES
----------------------
   0 C :   -0.000301
   1 O :   -0.000005
   2 H :   -0.000000
   3 H :   -0.000705
   4 H :   -0.000016
   5 H :   -0.000059
   6 C :   -0.367831
   7 O :   -0.082694
   8 H :    0.161637
   9 H :    0.096401
  10 H :    0.095791
  11 H :    0.097783

  Mayer bond orders larger than 0.1
B(  6-C ,  7-O ) :   0.9947 B(  6-C ,  9-H ) :   0.9779 B(  6-C , 10-H ) :   0.9762
B(  6-C , 11-H ) :   0.9768 B(  7-O ,  8-H ) :   0.9090

Dispersion correction           -0.000228542
FINAL SINGLE POINT ENERGY      -115.731000974900

DIPOLE MOMENT
-------------
                                X             Y             Z
Electronic contribution:     -0.81497      -0.50993       1.64290
Nuclear contribution   :      1.37620       0.97343      -1.86113
                        -----------------------------------------
Total Dipole Moment    :      0.56124       0.46350      -0.21823
                        -----------------------------------------
Magnitude (a.u.)       :      0.75990
Magnitude (Debye)      :      1.93150

Rotational constants in cm-1:     4.444866     0.813213     0.788984
Rotational constants in MHz : 133253.741045 24379.522805 23653.148501

                             ****ORCA TERMINATED NORMALLY****
TOTAL RUN TIME: 0 days 0 hours 0 minutes 59 seconds 252 msec
