                         Program Version 4.1.2  - RELEASE  -
|  1> #Run DFT-D3 single point of the dimer
|  2> ! wB97X-D3 def2-TZVP TIGHTSCF CHELPG PMODEL PAL8
|  3>
|  4> %base "19-209_DFT_AB"
|  5>
|  6> %scf
|  7> MaxIter 1000
|  8> end
|  9>
| 10> * xyz 0 1
| 11>   C                      -3.568566            -9.598080            -10.059931
| 12>   O                      -4.597329            -8.866514            -10.646825
| 13>   H                      -4.919343            -8.140897            -10.067423
| 14>   H                      -3.689647            -9.914778            -9.010878
| 15>   H                      -3.248369            -10.484339           -10.657611
| 16>   H                      -2.735738            -8.972272            -10.003115
| 17>   C                      -5.645100            -5.265609            -10.577145
| 18>   O                      -5.475820            -6.298376            -9.712009
| 19>   H                      -4.949007            -6.002710            -8.940312
| 20>   H                      -6.556035            -5.316734            -11.159871
| 21>   H                      -5.682167            -4.306870            -9.981822
| 22>   H                      -4.769615            -5.084458            -11.263776
| 23> *
| 24>
| 25> #Run DFT-D3 single point of the molecule with dimer basis set
| 26> $new_job
| 27> %base "19-209_DFT_A"
| 28> ! wB97X-D3 def2-TZVP TIGHTSCF CHELPG PMODEL
| 29>
| 30> %scf
| 31> MaxIter 1000
| 32> end
| 33>
| 34> * xyz 0 1
| 35>   C                      -3.568566            -9.598080            -10.059931
| 36>   O                      -4.597329            -8.866514            -10.646825
| 37>   H                      -4.919343            -8.140897            -10.067423
| 38>   H                      -3.689647            -9.914778            -9.010878
| 39>   H                      -3.248369            -10.484339           -10.657611
| 40>   H                      -2.735738            -8.972272            -10.003115
| 41>   C                    : -5.645100            -5.265609            -10.577145
| 42>   O                    : -5.475820            -6.298376            -9.712009
| 43>   H                    : -4.949007            -6.002710            -8.940312
| 44>   H                    : -6.556035            -5.316734            -11.159871
| 45>   H                    : -5.682167            -4.306870            -9.981822
| 46>   H                    : -4.769615            -5.084458            -11.263776
| 47> *
| 48>
| 49> #Run DFT-D3 single point of the particle with dimer basis set
| 50> $new_job
| 51> %base "19-209_DFT_B"
| 52> ! wB97X-D3 def2-TZVP TIGHTSCF CHELPG PMODEL
| 53>
| 54> %scf
| 55> MaxIter 1000
| 56> end
| 57>
| 58> * xyz 0 1
| 59>   C                    : -3.568566            -9.598080            -10.059931
| 60>   O                    : -4.597329            -8.866514            -10.646825
| 61>   H                    : -4.919343            -8.140897            -10.067423
| 62>   H                    : -3.689647            -9.914778            -9.010878
| 63>   H                    : -3.248369            -10.484339           -10.657611
| 64>   H                    : -2.735738            -8.972272            -10.003115
| 65>   C                      -5.645100            -5.265609            -10.577145
| 66>   O                      -5.475820            -6.298376            -9.712009
| 67>   H                      -4.949007            -6.002710            -8.940312
| 68>   H                      -6.556035            -5.316734            -11.159871
| 69>   H                      -5.682167            -4.306870            -9.981822
| 70>   H                      -4.769615            -5.084458            -11.263776
| 71> *
| 72>
| 73>                          ****END OF INPUT****
 Total Charge           Charge          ....    0
 Multiplicity           Mult            ....    1
 Number of Electrons    NEL             ....   36
Dispersion correction           -0.001518758
FINAL SINGLE POINT ENERGY      -231.467805170472
Dispersion correction           -0.000245814
FINAL SINGLE POINT ENERGY      -115.729907947103

CARTESIAN COORDINATES (ANGSTROEM)
---------------------------------
  C     -3.568566   -9.598080  -10.059931
  O     -4.597329   -8.866514  -10.646825
  H     -4.919343   -8.140897  -10.067423
  H     -3.689647   -9.914778   -9.010878
  H     -3.248369  -10.484339  -10.657611
  H     -2.735738   -8.972272  -10.003115
  C     -5.645100   -5.265609  -10.577145
  O     -5.475820   -6.298376   -9.712009
  H     -4.949007   -6.002710   -8.940312
  H     -6.556035   -5.316734  -11.159871
  H     -5.682167   -4.306870   -9.981822
  H     -4.769615   -5.084458  -11.263776

 Multiplicity           Mult            ....    1
 Number of Electrons    NEL             ....   18
 Basis Dimension        Dim             ....  172

ORBITAL ENERGIES
----------------

  NO   OCC          E(Eh)            E(eV)
   0   2.0000     -19.234391      -523.3944
   1   2.0000     -10.314988      -280.6851
   2   2.0000      -1.152623       -31.3645
   3   2.0000      -0.789228       -21.4760
   4   2.0000      -0.622114       -16.9286
   5   2.0000      -0.544380       -14.8133
   6   2.0000      -0.536849       -14.6084
   7   2.0000      -0.425907       -11.5895
   8   2.0000      -0.368295       -10.0218
   9   0.0000       0.093045         2.5319
  10   0.0000       0.117760         3.2044
  11   0.0000       0.153480         4.1764
  12   0.0000       0.188783         5.1370
  13   0.0000       0.199711         5.4344

MULLIKEN ATOMIC CHARGES
-----------------------
   0 C :   -0.000879
   1 O :   -0.000341
   2 H :   -0.008068
   3 H :    0.000036
   4 H :   -0.000159
   5 H :   -0.000489
   6 C :   -0.151833
   7 O :   -0.461488
   8 H :    0.325925
   9 H :    0.120683
  10 H :    0.085490
  11 H :    0.091124
Sum of atomic charges:    0.0000000

LOEWDIN ATOMIC CHARGES
----------------------
   0 C :   -0.001517
   1 O :   -0.006409
   2 H :   -0.043204
   3 H :   -0.000027
   4 H :   -0.000039
   5 H :   -0.000245
   6 C :   -0.435454
   7 O :   -0.001788
   8 H :    0.190407
   9 H :    0.103155
  10 H :    0.099578
  11 H :    0.095544

  Mayer bond orders larger than 0.1
B(  6-C ,  7-O ) :   1.0013 B(  6-C ,  9-H ) :   0.9728 B(  6-C , 10-H ) :   0.9848
B(  6-C , 11-H ) :   0.9692 B(  7-O ,  8-H ) :   0.8863

Dispersion correction           -0.000232531
FINAL SINGLE POINT ENERGY      -115.731197154622

DIPOLE MOMENT
-------------
                                X             Y             Z
Electronic contribution:      0.05438      -1.64686       1.03222
Nuclear contribution   :      0.19518       2.21577      -0.82550
                        -----------------------------------------
Total Dipole Moment    :      0.24956       0.56891       0.20672
                        -----------------------------------------
Magnitude (a.u.)       :      0.65473
Magnitude (Debye)      :      1.66419

Rotational constants in cm-1:     4.237738     0.876489     0.840951
Rotational constants in MHz : 127044.174424 26276.476539 25211.085080

                             ****ORCA TERMINATED NORMALLY****
TOTAL RUN TIME: 0 days 0 hours 0 minutes 51 seconds 356 msec
