                         Program Version 4.1.2  - RELEASE  -
|  1> #Run DFT-D3 single point of the dimer
|  2> ! wB97X-D3 def2-TZVP TIGHTSCF CHELPG PMODEL PAL8
|  3>
|  4> %base "21-79_DFT_AB"
|  5>
|  6> %scf
|  7> MaxIter 1000
|  8> end
|  9>
| 10> * xyz 0 1
| 11>   C                      3.842016             6.695679             2.250202
| 12>   O                      2.873278             7.246164             1.343030
| 13>   H                      3.031708             6.919436             0.425400
| 14>   H                      3.817862             5.565453             2.173094
| 15>   H                      4.822762             6.953849             1.878522
| 16>   H                      3.663193             7.138407             3.241986
| 17>   C                      3.450812             6.522536             -2.033908
| 18>   O                      4.501881             6.873083             -1.171610
| 19>   H                      5.252924             6.560564             -1.657881
| 20>   H                      3.163740             7.347433             -2.747425
| 21>   H                      3.712419             5.630406             -2.509050
| 22>   H                      2.634691             6.326015             -1.366200
| 23> *
| 24>
| 25> #Run DFT-D3 single point of the molecule with dimer basis set
| 26> $new_job
| 27> %base "21-79_DFT_A"
| 28> ! wB97X-D3 def2-TZVP TIGHTSCF CHELPG PMODEL
| 29>
| 30> %scf
| 31> MaxIter 1000
| 32> end
| 33>
| 34> * xyz 0 1
| 35>   C                      3.842016             6.695679             2.250202
| 36>   O                      2.873278             7.246164             1.343030
| 37>   H                      3.031708             6.919436             0.425400
| 38>   H                      3.817862             5.565453             2.173094
| 39>   H                      4.822762             6.953849             1.878522
| 40>   H                      3.663193             7.138407             3.241986
| 41>   C                    : 3.450812             6.522536             -2.033908
| 42>   O                    : 4.501881             6.873083             -1.171610
| 43>   H                    : 5.252924             6.560564             -1.657881
| 44>   H                    : 3.163740             7.347433             -2.747425
| 45>   H                    : 3.712419             5.630406             -2.509050
| 46>   H                    : 2.634691             6.326015             -1.366200
| 47> *
| 48>
| 49> #Run DFT-D3 single point of the particle with dimer basis set
| 50> $new_job
| 51> %base "21-79_DFT_B"
| 52> ! wB97X-D3 def2-TZVP TIGHTSCF CHELPG PMODEL
| 53>
| 54> %scf
| 55> MaxIter 1000
| 56> end
| 57>
| 58> * xyz 0 1
| 59>   C                    : 3.842016             6.695679             2.250202
| 60>   O                    : 2.873278             7.246164             1.343030
| 61>   H                    : 3.031708             6.919436             0.425400
| 62>   H                    : 3.817862             5.565453             2.173094
| 63>   H                    : 4.822762             6.953849             1.878522
| 64>   H                    : 3.663193             7.138407             3.241986
| 65>   C                      3.450812             6.522536             -2.033908
| 66>   O                      4.501881             6.873083             -1.171610
| 67>   H                      5.252924             6.560564             -1.657881
| 68>   H                      3.163740             7.347433             -2.747425
| 69>   H                      3.712419             5.630406             -2.509050
| 70>   H                      2.634691             6.326015             -1.366200
| 71> *
| 72>
| 73>                          ****END OF INPUT****
 Total Charge           Charge          ....    0
 Multiplicity           Mult            ....    1
 Number of Electrons    NEL             ....   36
Dispersion correction           -0.001866897
FINAL SINGLE POINT ENERGY      -231.465573378258
Dispersion correction           -0.000238932
FINAL SINGLE POINT ENERGY      -115.732480001947

CARTESIAN COORDINATES (ANGSTROEM)
---------------------------------
  C      3.842016    6.695679    2.250202
  O      2.873278    7.246164    1.343030
  H      3.031708    6.919436    0.425400
  H      3.817862    5.565453    2.173094
  H      4.822762    6.953849    1.878522
  H      3.663193    7.138407    3.241986
  C      3.450812    6.522536   -2.033908
  O      4.501881    6.873083   -1.171610
  H      5.252924    6.560564   -1.657881
  H      3.163740    7.347433   -2.747425
  H      3.712419    5.630406   -2.509050
  H      2.634691    6.326015   -1.366200

 Multiplicity           Mult            ....    1
 Number of Electrons    NEL             ....   18
 Basis Dimension        Dim             ....  172

ORBITAL ENERGIES
----------------

  NO   OCC          E(Eh)            E(eV)
   0   2.0000     -19.228359      -523.2303
   1   2.0000     -10.307251      -280.4746
   2   2.0000      -1.146763       -31.2050
   3   2.0000      -0.794392       -21.6165
   4   2.0000      -0.617263       -16.7966
   5   2.0000      -0.547564       -14.9000
   6   2.0000      -0.525000       -14.2860
   7   2.0000      -0.442048       -12.0287
   8   2.0000      -0.373867       -10.1734
   9   0.0000       0.099203         2.6994
  10   0.0000       0.125289         3.4093
  11   0.0000       0.157845         4.2952
  12   0.0000       0.184702         5.0260
  13   0.0000       0.199441         5.4271

MULLIKEN ATOMIC CHARGES
-----------------------
   0 C :    0.003456
   1 O :   -0.000129
   2 H :    0.001054
   3 H :   -0.001324
   4 H :   -0.004387
   5 H :   -0.000259
   6 C :   -0.160507
   7 O :   -0.453029
   8 H :    0.304452
   9 H :    0.096879
  10 H :    0.105831
  11 H :    0.107962
Sum of atomic charges:    0.0000000

LOEWDIN ATOMIC CHARGES
----------------------
   0 C :   -0.005612
   1 O :   -0.002709
   2 H :   -0.019478
   3 H :   -0.000391
   4 H :   -0.002699
   5 H :   -0.000069
   6 C :   -0.380674
   7 O :   -0.046130
   8 H :    0.162677
   9 H :    0.102226
  10 H :    0.086084
  11 H :    0.106776

  Mayer bond orders larger than 0.1
B(  6-C ,  7-O ) :   0.9988 B(  6-C ,  9-H ) :   0.9657 B(  6-C , 10-H ) :   0.9900
B(  6-C , 11-H ) :   0.9884 B(  7-O ,  8-H ) :   0.9094

Dispersion correction           -0.000210627
FINAL SINGLE POINT ENERGY      -115.730493679626

DIPOLE MOMENT
-------------
                                X             Y             Z
Electronic contribution:      1.25033       0.47424       1.10831
Nuclear contribution   :     -1.17438      -0.83927      -1.72816
                        -----------------------------------------
Total Dipole Moment    :      0.07595      -0.36503      -0.61985
                        -----------------------------------------
Magnitude (a.u.)       :      0.72334
Magnitude (Debye)      :      1.83859

Rotational constants in cm-1:     4.243249     0.859383     0.833574
Rotational constants in MHz : 127209.400790 25763.657008 24989.931230

                             ****ORCA TERMINATED NORMALLY****
TOTAL RUN TIME: 0 days 0 hours 1 minutes 3 seconds 868 msec
