                         Program Version 4.1.2  - RELEASE  -
|  1> #Run DFT-D3 single point of the dimer
|  2> ! wB97X-D3 def2-TZVP TIGHTSCF CHELPG PMODEL PAL8
|  3>
|  4> %base "7-131_DFT_AB"
|  5>
|  6> %scf
|  7> MaxIter 1000
|  8> end
|  9>
| 10> * xyz 0 1
| 11>   C                      6.456207             -9.635121            -3.002352
| 12>   O                      5.313552             -8.929165            -2.542253
| 13>   H                      4.539224             -9.296089            -2.995425
| 14>   H                      6.621316             -9.549502            -4.115482
| 15>   H                      7.368162             -9.420814            -2.398574
| 16>   H                      6.249894             -10.692458           -2.982951
| 17>   C                      2.456452             -8.331689            -7.586011
| 18>   O                      2.874135             -8.174088            -6.283950
| 19>   H                      2.866683             -7.217742            -6.105022
| 20>   H                      1.521849             -7.794114            -7.665348
| 21>   H                      3.150249             -8.042174            -8.359437
| 22>   H                      2.292810             -9.379852            -7.728508
| 23> *
| 24>
| 25> #Run DFT-D3 single point of the molecule with dimer basis set
| 26> $new_job
| 27> %base "7-131_DFT_A"
| 28> ! wB97X-D3 def2-TZVP TIGHTSCF CHELPG PMODEL
| 29>
| 30> %scf
| 31> MaxIter 1000
| 32> end
| 33>
| 34> * xyz 0 1
| 35>   C                      6.456207             -9.635121            -3.002352
| 36>   O                      5.313552             -8.929165            -2.542253
| 37>   H                      4.539224             -9.296089            -2.995425
| 38>   H                      6.621316             -9.549502            -4.115482
| 39>   H                      7.368162             -9.420814            -2.398574
| 40>   H                      6.249894             -10.692458           -2.982951
| 41>   C                    : 2.456452             -8.331689            -7.586011
| 42>   O                    : 2.874135             -8.174088            -6.283950
| 43>   H                    : 2.866683             -7.217742            -6.105022
| 44>   H                    : 1.521849             -7.794114            -7.665348
| 45>   H                    : 3.150249             -8.042174            -8.359437
| 46>   H                    : 2.292810             -9.379852            -7.728508
| 47> *
| 48>
| 49> #Run DFT-D3 single point of the particle with dimer basis set
| 50> $new_job
| 51> %base "7-131_DFT_B"
| 52> ! wB97X-D3 def2-TZVP TIGHTSCF CHELPG PMODEL
| 53>
| 54> %scf
| 55> MaxIter 1000
| 56> end
| 57>
| 58> * xyz 0 1
| 59>   C                    : 6.456207             -9.635121            -3.002352
| 60>   O                    : 5.313552             -8.929165            -2.542253
| 61>   H                    : 4.539224             -9.296089            -2.995425
| 62>   H                    : 6.621316             -9.549502            -4.115482
| 63>   H                    : 7.368162             -9.420814            -2.398574
| 64>   H                    : 6.249894             -10.692458           -2.982951
| 65>   C                      2.456452             -8.331689            -7.586011
| 66>   O                      2.874135             -8.174088            -6.283950
| 67>   H                      2.866683             -7.217742            -6.105022
| 68>   H                      1.521849             -7.794114            -7.665348
| 69>   H                      3.150249             -8.042174            -8.359437
| 70>   H                      2.292810             -9.379852            -7.728508
| 71> *
| 72>
| 73>                          ****END OF INPUT****
 Total Charge           Charge          ....    0
 Multiplicity           Mult            ....    1
 Number of Electrons    NEL             ....   36
Dispersion correction           -0.000696288
FINAL SINGLE POINT ENERGY      -231.465444196030
Dispersion correction           -0.000242611
FINAL SINGLE POINT ENERGY      -115.730662745417

CARTESIAN COORDINATES (ANGSTROEM)
---------------------------------
  C      6.456207   -9.635121   -3.002352
  O      5.313552   -8.929165   -2.542253
  H      4.539224   -9.296089   -2.995425
  H      6.621316   -9.549502   -4.115482
  H      7.368162   -9.420814   -2.398574
  H      6.249894  -10.692458   -2.982951
  C      2.456452   -8.331689   -7.586011
  O      2.874135   -8.174088   -6.283950
  H      2.866683   -7.217742   -6.105022
  H      1.521849   -7.794114   -7.665348
  H      3.150249   -8.042174   -8.359437
  H      2.292810   -9.379852   -7.728508

 Multiplicity           Mult            ....    1
 Number of Electrons    NEL             ....   18
 Basis Dimension        Dim             ....  172

ORBITAL ENERGIES
----------------

  NO   OCC          E(Eh)            E(eV)
   0   2.0000     -19.229525      -523.2620
   1   2.0000     -10.302630      -280.3488
   2   2.0000      -1.146736       -31.2043
   3   2.0000      -0.794804       -21.6277
   4   2.0000      -0.615554       -16.7501
   5   2.0000      -0.554530       -15.0895
   6   2.0000      -0.530060       -14.4237
   7   2.0000      -0.431211       -11.7339
   8   2.0000      -0.371547       -10.1103
   9   0.0000       0.093999         2.5578
  10   0.0000       0.114880         3.1261
  11   0.0000       0.158466         4.3121
  12   0.0000       0.179041         4.8720
  13   0.0000       0.198901         5.4124

MULLIKEN ATOMIC CHARGES
-----------------------
   0 C :    0.000221
   1 O :    0.000067
   2 H :   -0.000987
   3 H :   -0.000384
   4 H :   -0.000011
   5 H :    0.000005
   6 C :   -0.148299
   7 O :   -0.467486
   8 H :    0.314240
   9 H :    0.094450
  10 H :    0.094736
  11 H :    0.113447
Sum of atomic charges:   -0.0000000

LOEWDIN ATOMIC CHARGES
----------------------
   0 C :   -0.000086
   1 O :   -0.000029
   2 H :   -0.000618
   3 H :   -0.000121
   4 H :   -0.000002
   5 H :   -0.000001
   6 C :   -0.410429
   7 O :   -0.055661
   8 H :    0.179311
   9 H :    0.093775
  10 H :    0.089083
  11 H :    0.104778

  Mayer bond orders larger than 0.1
B(  6-C ,  7-O ) :   1.0032 B(  6-C ,  9-H ) :   0.9922 B(  6-C , 10-H ) :   0.9659
B(  6-C , 11-H ) :   0.9764 B(  7-O ,  8-H ) :   0.8985

Dispersion correction           -0.000211069
FINAL SINGLE POINT ENERGY      -115.733139388030

DIPOLE MOMENT
-------------
                                X             Y             Z
Electronic contribution:      0.60481       0.08888       1.65474
Nuclear contribution   :     -0.77481       0.43771      -2.03200
                        -----------------------------------------
Total Dipole Moment    :     -0.17000       0.52659      -0.37726
                        -----------------------------------------
Magnitude (a.u.)       :      0.66972
Magnitude (Debye)      :      1.70228

Rotational constants in cm-1:     4.344962     0.878786     0.845476
Rotational constants in MHz : 130258.697310 26345.352626 25346.735760

                             ****ORCA TERMINATED NORMALLY****
TOTAL RUN TIME: 0 days 0 hours 1 minutes 0 seconds 686 msec
