                         Program Version 4.1.2  - RELEASE  -
|  1> #Run DFT-D3 single point of the dimer
|  2> ! wB97X-D3 def2-TZVP TIGHTSCF CHELPG PMODEL PAL8
|  3>
|  4> %base "15-78_DFT_AB"
|  5>
|  6> %scf
|  7> MaxIter 1000
|  8> end
|  9>
| 10> * xyz 0 1
| 11>   C                      3.160590             5.904719             1.409526
| 12>   O                      1.952229             6.513314             1.905539
| 13>   H                      2.203480             7.011722             2.707374
| 14>   H                      3.131705             5.037513             0.685736
| 15>   H                      3.800379             6.728786             1.090960
| 16>   H                      3.782874             5.542182             2.299754
| 17>   C                      -0.864257            9.282511             2.973942
| 18>   O                      -1.675985            10.298137            3.457449
| 19>   H                      -1.283712            11.111861            3.195173
| 20>   H                      -0.078117            8.978090             3.680979
| 21>   H                      -1.401807            8.349232             2.753786
| 22>   H                      -0.348053            9.605425             2.014177
| 23> *
| 24>
| 25> #Run DFT-D3 single point of the molecule with dimer basis set
| 26> $new_job
| 27> %base "15-78_DFT_A"
| 28> ! wB97X-D3 def2-TZVP TIGHTSCF CHELPG PMODEL
| 29>
| 30> %scf
| 31> MaxIter 1000
| 32> end
| 33>
| 34> * xyz 0 1
| 35>   C                      3.160590             5.904719             1.409526
| 36>   O                      1.952229             6.513314             1.905539
| 37>   H                      2.203480             7.011722             2.707374
| 38>   H                      3.131705             5.037513             0.685736
| 39>   H                      3.800379             6.728786             1.090960
| 40>   H                      3.782874             5.542182             2.299754
| 41>   C                    : -0.864257            9.282511             2.973942
| 42>   O                    : -1.675985            10.298137            3.457449
| 43>   H                    : -1.283712            11.111861            3.195173
| 44>   H                    : -0.078117            8.978090             3.680979
| 45>   H                    : -1.401807            8.349232             2.753786
| 46>   H                    : -0.348053            9.605425             2.014177
| 47> *
| 48>
| 49> #Run DFT-D3 single point of the particle with dimer basis set
| 50> $new_job
| 51> %base "15-78_DFT_B"
| 52> ! wB97X-D3 def2-TZVP TIGHTSCF CHELPG PMODEL
| 53>
| 54> %scf
| 55> MaxIter 1000
| 56> end
| 57>
| 58> * xyz 0 1
| 59>   C                    : 3.160590             5.904719             1.409526
| 60>   O                    : 1.952229             6.513314             1.905539
| 61>   H                    : 2.203480             7.011722             2.707374
| 62>   H                    : 3.131705             5.037513             0.685736
| 63>   H                    : 3.800379             6.728786             1.090960
| 64>   H                    : 3.782874             5.542182             2.299754
| 65>   C                      -0.864257            9.282511             2.973942
| 66>   O                      -1.675985            10.298137            3.457449
| 67>   H                      -1.283712            11.111861            3.195173
| 68>   H                      -0.078117            8.978090             3.680979
| 69>   H                      -1.401807            8.349232             2.753786
| 70>   H                      -0.348053            9.605425             2.014177
| 71> *
| 72>
| 73>                          ****END OF INPUT****
 Total Charge           Charge          ....    0
 Multiplicity           Mult            ....    1
 Number of Electrons    NEL             ....   36
Dispersion correction           -0.000994541
FINAL SINGLE POINT ENERGY      -231.458259315886
Dispersion correction           -0.000248475
FINAL SINGLE POINT ENERGY      -115.723702449234

CARTESIAN COORDINATES (ANGSTROEM)
---------------------------------
  C      3.160590    5.904719    1.409526
  O      1.952229    6.513314    1.905539
  H      2.203480    7.011722    2.707374
  H      3.131705    5.037513    0.685736
  H      3.800379    6.728786    1.090960
  H      3.782874    5.542182    2.299754
  C     -0.864257    9.282511    2.973942
  O     -1.675985   10.298137    3.457449
  H     -1.283712   11.111861    3.195173
  H     -0.078117    8.978090    3.680979
  H     -1.401807    8.349232    2.753786
  H     -0.348053    9.605425    2.014177

 Multiplicity           Mult            ....    1
 Number of Electrons    NEL             ....   18
 Basis Dimension        Dim             ....  172

ORBITAL ENERGIES
----------------

  NO   OCC          E(Eh)            E(eV)
   0   2.0000     -19.231109      -523.3051
   1   2.0000     -10.317102      -280.7426
   2   2.0000      -1.150804       -31.3150
   3   2.0000      -0.792978       -21.5780
   4   2.0000      -0.618000       -16.8166
   5   2.0000      -0.540218       -14.7001
   6   2.0000      -0.535095       -14.5607
   7   2.0000      -0.431010       -11.7284
   8   2.0000      -0.373037       -10.1508
   9   0.0000       0.082612         2.2480
  10   0.0000       0.114285         3.1098
  11   0.0000       0.135737         3.6936
  12   0.0000       0.182827         4.9750
  13   0.0000       0.190239         5.1767

MULLIKEN ATOMIC CHARGES
-----------------------
   0 C :    0.000076
   1 O :    0.000100
   2 H :   -0.000568
   3 H :    0.000001
   4 H :   -0.000011
   5 H :   -0.000004
   6 C :   -0.168382
   7 O :   -0.460277
   8 H :    0.317244
   9 H :    0.100409
  10 H :    0.117610
  11 H :    0.093802
Sum of atomic charges:   -0.0000000

LOEWDIN ATOMIC CHARGES
----------------------
   0 C :   -0.000013
   1 O :   -0.000145
   2 H :   -0.000721
   3 H :   -0.000000
   4 H :   -0.000001
   5 H :   -0.000001
   6 C :   -0.413807
   7 O :   -0.047343
   8 H :    0.161786
   9 H :    0.093341
  10 H :    0.105678
  11 H :    0.101227

  Mayer bond orders larger than 0.1
B(  6-C ,  7-O ) :   1.0097 B(  6-C ,  9-H ) :   0.9714 B(  6-C , 10-H ) :   0.9715
B(  6-C , 11-H ) :   0.9872 B(  7-O ,  8-H ) :   0.9010

Dispersion correction           -0.000241343
FINAL SINGLE POINT ENERGY      -115.733786669471

DIPOLE MOMENT
-------------
                                X             Y             Z
Electronic contribution:     -1.25261       1.28805       0.75192
Nuclear contribution   :      1.79805      -1.14591      -1.10867
                        -----------------------------------------
Total Dipole Moment    :      0.54543       0.14214      -0.35675
                        -----------------------------------------
Magnitude (a.u.)       :      0.66706
Magnitude (Debye)      :      1.69554

Rotational constants in cm-1:     4.292230     0.850710     0.816762
Rotational constants in MHz : 128677.822273 25503.652685 24485.916844

                             ****ORCA TERMINATED NORMALLY****
TOTAL RUN TIME: 0 days 0 hours 1 minutes 4 seconds 365 msec
