                         Program Version 4.1.2  - RELEASE  -
|  1> #Run DFT-D3 single point of the dimer
|  2> ! wB97X-D3 def2-TZVP TIGHTSCF CHELPG PMODEL PAL8
|  3>
|  4> %base "7-206_DFT_AB"
|  5>
|  6> %scf
|  7> MaxIter 1000
|  8> end
|  9>
| 10> * xyz 0 1
| 11>   C                      0.951974             2.416142             4.191653
| 12>   O                      1.141761             2.891847             5.490232
| 13>   H                      1.060901             2.174047             6.127462
| 14>   H                      1.329369             3.066310             3.438177
| 15>   H                      1.284872             1.400295             3.955974
| 16>   H                      -0.073623            2.426151             3.974505
| 17>   C                      1.133568             -0.516884            6.785558
| 18>   O                      1.915771             0.504868             7.331157
| 19>   H                      2.600641             0.127832             7.936668
| 20>   H                      0.461457             -0.935861            7.569601
| 21>   H                      0.563237             -0.144390            5.969614
| 22>   H                      1.757236             -1.298917            6.418166
| 23> *
| 24>
| 25> #Run DFT-D3 single point of the molecule with dimer basis set
| 26> $new_job
| 27> %base "7-206_DFT_A"
| 28> ! wB97X-D3 def2-TZVP TIGHTSCF CHELPG PMODEL
| 29>
| 30> %scf
| 31> MaxIter 1000
| 32> end
| 33>
| 34> * xyz 0 1
| 35>   C                      0.951974             2.416142             4.191653
| 36>   O                      1.141761             2.891847             5.490232
| 37>   H                      1.060901             2.174047             6.127462
| 38>   H                      1.329369             3.066310             3.438177
| 39>   H                      1.284872             1.400295             3.955974
| 40>   H                      -0.073623            2.426151             3.974505
| 41>   C                    : 1.133568             -0.516884            6.785558
| 42>   O                    : 1.915771             0.504868             7.331157
| 43>   H                    : 2.600641             0.127832             7.936668
| 44>   H                    : 0.461457             -0.935861            7.569601
| 45>   H                    : 0.563237             -0.144390            5.969614
| 46>   H                    : 1.757236             -1.298917            6.418166
| 47> *
| 48>
| 49> #Run DFT-D3 single point of the particle with dimer basis set
| 50> $new_job
| 51> %base "7-206_DFT_B"
| 52> ! wB97X-D3 def2-TZVP TIGHTSCF CHELPG PMODEL
| 53>
| 54> %scf
| 55> MaxIter 1000
| 56> end
| 57>
| 58> * xyz 0 1
| 59>   C                    : 0.951974             2.416142             4.191653
| 60>   O                    : 1.141761             2.891847             5.490232
| 61>   H                    : 1.060901             2.174047             6.127462
| 62>   H                    : 1.329369             3.066310             3.438177
| 63>   H                    : 1.284872             1.400295             3.955974
| 64>   H                    : -0.073623            2.426151             3.974505
| 65>   C                      1.133568             -0.516884            6.785558
| 66>   O                      1.915771             0.504868             7.331157
| 67>   H                      2.600641             0.127832             7.936668
| 68>   H                      0.461457             -0.935861            7.569601
| 69>   H                      0.563237             -0.144390            5.969614
| 70>   H                      1.757236             -1.298917            6.418166
| 71> *
| 72>
| 73>                          ****END OF INPUT****
 Total Charge           Charge          ....    0
 Multiplicity           Mult            ....    1
 Number of Electrons    NEL             ....   36
Dispersion correction           -0.001929208
FINAL SINGLE POINT ENERGY      -231.470530818013
Dispersion correction           -0.000244381
FINAL SINGLE POINT ENERGY      -115.731223739058

CARTESIAN COORDINATES (ANGSTROEM)
---------------------------------
  C      0.951974    2.416142    4.191653
  O      1.141761    2.891847    5.490232
  H      1.060901    2.174047    6.127462
  H      1.329369    3.066310    3.438177
  H      1.284872    1.400295    3.955974
  H     -0.073623    2.426151    3.974505
  C      1.133568   -0.516884    6.785558
  O      1.915771    0.504868    7.331157
  H      2.600641    0.127832    7.936668
  H      0.461457   -0.935861    7.569601
  H      0.563237   -0.144390    5.969614
  H      1.757236   -1.298917    6.418166

 Multiplicity           Mult            ....    1
 Number of Electrons    NEL             ....   18
 Basis Dimension        Dim             ....  172

ORBITAL ENERGIES
----------------

  NO   OCC          E(Eh)            E(eV)
   0   2.0000     -19.229126      -523.2511
   1   2.0000     -10.306723      -280.4602
   2   2.0000      -1.133632       -30.8477
   3   2.0000      -0.795350       -21.6426
   4   2.0000      -0.610295       -16.6070
   5   2.0000      -0.543707       -14.7950
   6   2.0000      -0.533951       -14.5296
   7   2.0000      -0.429816       -11.6959
   8   2.0000      -0.369656       -10.0589
   9   0.0000       0.094477         2.5708
  10   0.0000       0.118295         3.2190
  11   0.0000       0.157362         4.2820
  12   0.0000       0.190228         5.1764
  13   0.0000       0.199754         5.4356

MULLIKEN ATOMIC CHARGES
-----------------------
   0 C :   -0.000407
   1 O :    0.000490
   2 H :   -0.005620
   3 H :    0.000026
   4 H :    0.000142
   5 H :   -0.000238
   6 C :   -0.154556
   7 O :   -0.476688
   8 H :    0.313880
   9 H :    0.097704
  10 H :    0.121550
  11 H :    0.103717
Sum of atomic charges:   -0.0000000

LOEWDIN ATOMIC CHARGES
----------------------
   0 C :   -0.003520
   1 O :   -0.002432
   2 H :   -0.018277
   3 H :   -0.000015
   4 H :   -0.001249
   5 H :   -0.000123
   6 C :   -0.386485
   7 O :   -0.065354
   8 H :    0.185043
   9 H :    0.098382
  10 H :    0.104158
  11 H :    0.089872

  Mayer bond orders larger than 0.1
B(  6-C ,  7-O ) :   0.9915 B(  6-C ,  9-H ) :   0.9796 B(  6-C , 10-H ) :   0.9741
B(  6-C , 11-H ) :   0.9797 B(  7-O ,  8-H ) :   0.8921

Dispersion correction           -0.000226876
FINAL SINGLE POINT ENERGY      -115.734646443332

DIPOLE MOMENT
-------------
                                X             Y             Z
Electronic contribution:      0.90537       1.41022       0.54567
Nuclear contribution   :     -0.76457      -2.05762      -0.40206
                        -----------------------------------------
Total Dipole Moment    :      0.14080      -0.64740       0.14361
                        -----------------------------------------
Magnitude (a.u.)       :      0.67792
Magnitude (Debye)      :      1.72314

Rotational constants in cm-1:     4.314747     0.848337     0.819511
Rotational constants in MHz : 129352.850836 25432.504256 24568.331706

                             ****ORCA TERMINATED NORMALLY****
TOTAL RUN TIME: 0 days 0 hours 1 minutes 7 seconds 849 msec
