                         Program Version 4.1.2  - RELEASE  -
|  1> #Run DFT-D3 single point of the dimer
|  2> ! wB97X-D3 def2-TZVP TIGHTSCF CHELPG PMODEL PAL8
|  3>
|  4> %base "1-13_DFT_AB"
|  5>
|  6> %scf
|  7> MaxIter 1000
|  8> end
|  9>
| 10> * xyz 0 1
| 11>   C                      9.259421             10.062301            8.811759
| 12>   O                      8.381720             10.141234            7.690191
| 13>   H                      7.835794             9.333430             7.697897
| 14>   H                      9.945951             9.205096             8.643888
| 15>   H                      9.913457             10.956592            8.943988
| 16>   H                      8.689230             10.048208            9.744641
| 17>   C                      7.654375             9.034261             11.217984
| 18>   O                      8.965698             8.771154             11.090597
| 19>   H                      9.479362             9.602774             11.240163
| 20>   H                      7.076352             8.057591             11.030231
| 21>   H                      7.451069             9.525736             12.240782
| 22>   H                      7.312384             9.704604             10.421742
| 23> *
| 24>
| 25> #Run DFT-D3 single point of the molecule with dimer basis set
| 26> $new_job
| 27> %base "1-13_DFT_A"
| 28> ! wB97X-D3 def2-TZVP TIGHTSCF CHELPG PMODEL
| 29>
| 30> %scf
| 31> MaxIter 1000
| 32> end
| 33>
| 34> * xyz 0 1
| 35>   C                      9.259421             10.062301            8.811759
| 36>   O                      8.381720             10.141234            7.690191
| 37>   H                      7.835794             9.333430             7.697897
| 38>   H                      9.945951             9.205096             8.643888
| 39>   H                      9.913457             10.956592            8.943988
| 40>   H                      8.689230             10.048208            9.744641
| 41>   C                    : 7.654375             9.034261             11.217984
| 42>   O                    : 8.965698             8.771154             11.090597
| 43>   H                    : 9.479362             9.602774             11.240163
| 44>   H                    : 7.076352             8.057591             11.030231
| 45>   H                    : 7.451069             9.525736             12.240782
| 46>   H                    : 7.312384             9.704604             10.421742
| 47> *
| 48>
| 49> #Run DFT-D3 single point of the particle with dimer basis set
| 50> $new_job
| 51> %base "1-13_DFT_B"
| 52> ! wB97X-D3 def2-TZVP TIGHTSCF CHELPG PMODEL
| 53>
| 54> %scf
| 55> MaxIter 1000
| 56> end
| 57>
| 58> * xyz 0 1
| 59>   C                    : 9.259421             10.062301            8.811759
| 60>   O                    : 8.381720             10.141234            7.690191
| 61>   H                    : 7.835794             9.333430             7.697897
| 62>   H                    : 9.945951             9.205096             8.643888
| 63>   H                    : 9.913457             10.956592            8.943988
| 64>   H                    : 8.689230             10.048208            9.744641
| 65>   C                      7.654375             9.034261             11.217984
| 66>   O                      8.965698             8.771154             11.090597
| 67>   H                      9.479362             9.602774             11.240163
| 68>   H                      7.076352             8.057591             11.030231
| 69>   H                      7.451069             9.525736             12.240782
| 70>   H                      7.312384             9.704604             10.421742
| 71> *
| 72>
| 73>                          ****END OF INPUT****
 Total Charge           Charge          ....    0
 Multiplicity           Mult            ....    1
 Number of Electrons    NEL             ....   36
Dispersion correction           -0.002213734
FINAL SINGLE POINT ENERGY      -231.439959841245
Dispersion correction           -0.000244237
FINAL SINGLE POINT ENERGY      -115.733271584213

CARTESIAN COORDINATES (ANGSTROEM)
---------------------------------
  C      9.259421   10.062301    8.811759
  O      8.381720   10.141234    7.690191
  H      7.835794    9.333430    7.697897
  H      9.945951    9.205096    8.643888
  H      9.913457   10.956592    8.943988
  H      8.689230   10.048208    9.744641
  C      7.654375    9.034261   11.217984
  O      8.965698    8.771154   11.090597
  H      9.479362    9.602774   11.240163
  H      7.076352    8.057591   11.030231
  H      7.451069    9.525736   12.240782
  H      7.312384    9.704604   10.421742

 Multiplicity           Mult            ....    1
 Number of Electrons    NEL             ....   18
 Basis Dimension        Dim             ....  172

ORBITAL ENERGIES
----------------

  NO   OCC          E(Eh)            E(eV)
   0   2.0000     -19.234395      -523.3945
   1   2.0000     -10.319138      -280.7980
   2   2.0000      -1.157079       -31.4857
   3   2.0000      -0.781976       -21.2786
   4   2.0000      -0.619614       -16.8606
   5   2.0000      -0.550862       -14.9897
   6   2.0000      -0.530629       -14.4391
   7   2.0000      -0.423589       -11.5264
   8   2.0000      -0.367463        -9.9992
   9   0.0000       0.083747         2.2789
  10   0.0000       0.133402         3.6300
  11   0.0000       0.146213         3.9787
  12   0.0000       0.182194         4.9578
  13   0.0000       0.193501         5.2654

MULLIKEN ATOMIC CHARGES
-----------------------
   0 C :   -0.001868
   1 O :   -0.000519
   2 H :   -0.000208
   3 H :   -0.001467
   4 H :    0.000226
   5 H :   -0.012914
   6 C :   -0.167418
   7 O :   -0.441591
   8 H :    0.325002
   9 H :    0.115031
  10 H :    0.094982
  11 H :    0.090743
Sum of atomic charges:   -0.0000000

LOEWDIN ATOMIC CHARGES
----------------------
   0 C :   -0.051212
   1 O :   -0.000530
   2 H :   -0.000621
   3 H :   -0.005971
   4 H :   -0.001065
   5 H :   -0.049519
   6 C :   -0.434134
   7 O :    0.013475
   8 H :    0.203725
   9 H :    0.120125
  10 H :    0.101155
  11 H :    0.104572

  Mayer bond orders larger than 0.1
B(  6-C ,  7-O ) :   1.0072 B(  6-C ,  9-H ) :   0.9711 B(  6-C , 10-H ) :   0.9795
B(  6-C , 11-H ) :   0.9802 B(  7-O ,  8-H ) :   0.8852

Dispersion correction           -0.000219827
FINAL SINGLE POINT ENERGY      -115.728672129222

DIPOLE MOMENT
-------------
                                X             Y             Z
Electronic contribution:      1.76312      -0.51466      -0.17189
Nuclear contribution   :     -1.87229       1.10880       0.28774
                        -----------------------------------------
Total Dipole Moment    :     -0.10917       0.59414       0.11584
                        -----------------------------------------
Magnitude (a.u.)       :      0.61509
Magnitude (Debye)      :      1.56344

Rotational constants in cm-1:     3.974241     0.902859     0.858603
Rotational constants in MHz : 119144.748699 27067.039088 25740.263989

                             ****ORCA TERMINATED NORMALLY****
TOTAL RUN TIME: 0 days 0 hours 5 minutes 51 seconds 351 msec
