                         Program Version 4.1.2  - RELEASE  -
|  1> #Run DFT-D3 single point of the dimer
|  2> ! wB97X-D3 def2-TZVP TIGHTSCF CHELPG PMODEL PAL8
|  3>
|  4> %base "6-78_DFT_AB"
|  5>
|  6> %scf
|  7> MaxIter 1000
|  8> end
|  9>
| 10> * xyz 0 1
| 11>   C                      -4.592135            -8.778354            -4.672863
| 12>   O                      -4.996036            -7.685713            -3.782804
| 13>   H                      -4.696775            -7.821721            -2.928204
| 14>   H                      -3.534098            -9.010149            -4.638917
| 15>   H                      -5.112055            -9.688766            -4.343416
| 16>   H                      -4.938609            -8.647915            -5.698391
| 17>   C                      -3.913443            -10.367593           -0.619006
| 18>   O                      -3.032838            -11.467707           -0.763594
| 19>   H                      -2.533344            -11.548166           0.061452
| 20>   H                      -4.537743            -10.150779           -1.524708
| 21>   H                      -4.580331            -10.547433           0.262675
| 22>   H                      -3.330481            -9.510521            -0.349726
| 23> *
| 24>
| 25> #Run DFT-D3 single point of the molecule with dimer basis set
| 26> $new_job
| 27> %base "6-78_DFT_A"
| 28> ! wB97X-D3 def2-TZVP TIGHTSCF CHELPG PMODEL
| 29>
| 30> %scf
| 31> MaxIter 1000
| 32> end
| 33>
| 34> * xyz 0 1
| 35>   C                      -4.592135            -8.778354            -4.672863
| 36>   O                      -4.996036            -7.685713            -3.782804
| 37>   H                      -4.696775            -7.821721            -2.928204
| 38>   H                      -3.534098            -9.010149            -4.638917
| 39>   H                      -5.112055            -9.688766            -4.343416
| 40>   H                      -4.938609            -8.647915            -5.698391
| 41>   C                    : -3.913443            -10.367593           -0.619006
| 42>   O                    : -3.032838            -11.467707           -0.763594
| 43>   H                    : -2.533344            -11.548166           0.061452
| 44>   H                    : -4.537743            -10.150779           -1.524708
| 45>   H                    : -4.580331            -10.547433           0.262675
| 46>   H                    : -3.330481            -9.510521            -0.349726
| 47> *
| 48>
| 49> #Run DFT-D3 single point of the particle with dimer basis set
| 50> $new_job
| 51> %base "6-78_DFT_B"
| 52> ! wB97X-D3 def2-TZVP TIGHTSCF CHELPG PMODEL
| 53>
| 54> %scf
| 55> MaxIter 1000
| 56> end
| 57>
| 58> * xyz 0 1
| 59>   C                    : -4.592135            -8.778354            -4.672863
| 60>   O                    : -4.996036            -7.685713            -3.782804
| 61>   H                    : -4.696775            -7.821721            -2.928204
| 62>   H                    : -3.534098            -9.010149            -4.638917
| 63>   H                    : -5.112055            -9.688766            -4.343416
| 64>   H                    : -4.938609            -8.647915            -5.698391
| 65>   C                      -3.913443            -10.367593           -0.619006
| 66>   O                      -3.032838            -11.467707           -0.763594
| 67>   H                      -2.533344            -11.548166           0.061452
| 68>   H                      -4.537743            -10.150779           -1.524708
| 69>   H                      -4.580331            -10.547433           0.262675
| 70>   H                      -3.330481            -9.510521            -0.349726
| 71> *
| 72>
| 73>                          ****END OF INPUT****
 Total Charge           Charge          ....    0
 Multiplicity           Mult            ....    1
 Number of Electrons    NEL             ....   36
Dispersion correction           -0.001381735
FINAL SINGLE POINT ENERGY      -231.464370375907
Dispersion correction           -0.000267042
FINAL SINGLE POINT ENERGY      -115.730531490761

CARTESIAN COORDINATES (ANGSTROEM)
---------------------------------
  C     -4.592135   -8.778354   -4.672863
  O     -4.996036   -7.685713   -3.782804
  H     -4.696775   -7.821721   -2.928204
  H     -3.534098   -9.010149   -4.638917
  H     -5.112055   -9.688766   -4.343416
  H     -4.938609   -8.647915   -5.698391
  C     -3.913443  -10.367593   -0.619006
  O     -3.032838  -11.467707   -0.763594
  H     -2.533344  -11.548166    0.061452
  H     -4.537743  -10.150779   -1.524708
  H     -4.580331  -10.547433    0.262675
  H     -3.330481   -9.510521   -0.349726

 Multiplicity           Mult            ....    1
 Number of Electrons    NEL             ....   18
 Basis Dimension        Dim             ....  172

ORBITAL ENERGIES
----------------

  NO   OCC          E(Eh)            E(eV)
   0   2.0000     -19.229030      -523.2485
   1   2.0000     -10.316570      -280.7281
   2   2.0000      -1.134027       -30.8584
   3   2.0000      -0.791271       -21.5316
   4   2.0000      -0.609336       -16.5809
   5   2.0000      -0.538199       -14.6451
   6   2.0000      -0.530136       -14.4257
   7   2.0000      -0.433750       -11.8029
   8   2.0000      -0.369155       -10.0452
   9   0.0000       0.086321         2.3489
  10   0.0000       0.114752         3.1226
  11   0.0000       0.147630         4.0172
  12   0.0000       0.176491         4.8026
  13   0.0000       0.188405         5.1268

MULLIKEN ATOMIC CHARGES
-----------------------
   0 C :    0.000418
   1 O :   -0.000058
   2 H :   -0.000922
   3 H :   -0.000010
   4 H :   -0.000017
   5 H :    0.000047
   6 C :   -0.175670
   7 O :   -0.474362
   8 H :    0.316156
   9 H :    0.129071
  10 H :    0.098821
  11 H :    0.106526
Sum of atomic charges:   -0.0000000

LOEWDIN ATOMIC CHARGES
----------------------
   0 C :   -0.001392
   1 O :   -0.000141
   2 H :   -0.001694
   3 H :   -0.000072
   4 H :   -0.000768
   5 H :   -0.000005
   6 C :   -0.387078
   7 O :   -0.086781
   8 H :    0.174243
   9 H :    0.116035
  10 H :    0.097830
  11 H :    0.089823

  Mayer bond orders larger than 0.1
B(  6-C ,  7-O ) :   0.9930 B(  6-C ,  9-H ) :   0.9661 B(  6-C , 10-H ) :   0.9781
B(  6-C , 11-H ) :   0.9822 B(  7-O ,  8-H ) :   0.8966

Dispersion correction           -0.000227806
FINAL SINGLE POINT ENERGY      -115.733019563379

DIPOLE MOMENT
-------------
                                X             Y             Z
Electronic contribution:      1.06739      -1.41863      -0.45312
Nuclear contribution   :     -1.09283       1.81837       1.02862
                        -----------------------------------------
Total Dipole Moment    :     -0.02544       0.39974       0.57550
                        -----------------------------------------
Magnitude (a.u.)       :      0.70117
Magnitude (Debye)      :      1.78223

Rotational constants in cm-1:     4.213316     0.832563     0.794681
Rotational constants in MHz : 126312.039100 24959.599304 23823.929090

                             ****ORCA TERMINATED NORMALLY****
TOTAL RUN TIME: 0 days 0 hours 1 minutes 4 seconds 801 msec
