                         Program Version 4.1.2  - RELEASE  -
|  1> #Run DFT-D3 single point of the dimer
|  2> ! wB97X-D3 def2-TZVP TIGHTSCF CHELPG PMODEL PAL8
|  3>
|  4> %base "7-75_DFT_AB"
|  5>
|  6> %scf
|  7> MaxIter 1000
|  8> end
|  9>
| 10> * xyz 0 1
| 11>   C                      7.285926             0.821066             2.316241
| 12>   O                      7.532912             0.471736             1.007627
| 13>   H                      8.045949             -0.406475            0.930814
| 14>   H                      7.486048             -0.087081            3.004934
| 15>   H                      7.841240             1.695538             2.765298
| 16>   H                      6.188296             0.937388             2.320612
| 17>   C                      5.433083             -0.164466            5.139578
| 18>   O                      4.435677             -1.192578            5.131222
| 19>   H                      3.708831             -0.760089            4.699284
| 20>   H                      5.218809             0.632496             4.407749
| 21>   H                      5.430330             0.409471             6.073263
| 22>   H                      6.494510             -0.553591            4.881932
| 23> *
| 24>
| 25> #Run DFT-D3 single point of the molecule with dimer basis set
| 26> $new_job
| 27> %base "7-75_DFT_A"
| 28> ! wB97X-D3 def2-TZVP TIGHTSCF CHELPG PMODEL
| 29>
| 30> %scf
| 31> MaxIter 1000
| 32> end
| 33>
| 34> * xyz 0 1
| 35>   C                      7.285926             0.821066             2.316241
| 36>   O                      7.532912             0.471736             1.007627
| 37>   H                      8.045949             -0.406475            0.930814
| 38>   H                      7.486048             -0.087081            3.004934
| 39>   H                      7.841240             1.695538             2.765298
| 40>   H                      6.188296             0.937388             2.320612
| 41>   C                    : 5.433083             -0.164466            5.139578
| 42>   O                    : 4.435677             -1.192578            5.131222
| 43>   H                    : 3.708831             -0.760089            4.699284
| 44>   H                    : 5.218809             0.632496             4.407749
| 45>   H                    : 5.430330             0.409471             6.073263
| 46>   H                    : 6.494510             -0.553591            4.881932
| 47> *
| 48>
| 49> #Run DFT-D3 single point of the particle with dimer basis set
| 50> $new_job
| 51> %base "7-75_DFT_B"
| 52> ! wB97X-D3 def2-TZVP TIGHTSCF CHELPG PMODEL
| 53>
| 54> %scf
| 55> MaxIter 1000
| 56> end
| 57>
| 58> * xyz 0 1
| 59>   C                    : 7.285926             0.821066             2.316241
| 60>   O                    : 7.532912             0.471736             1.007627
| 61>   H                    : 8.045949             -0.406475            0.930814
| 62>   H                    : 7.486048             -0.087081            3.004934
| 63>   H                    : 7.841240             1.695538             2.765298
| 64>   H                    : 6.188296             0.937388             2.320612
| 65>   C                      5.433083             -0.164466            5.139578
| 66>   O                      4.435677             -1.192578            5.131222
| 67>   H                      3.708831             -0.760089            4.699284
| 68>   H                      5.218809             0.632496             4.407749
| 69>   H                      5.430330             0.409471             6.073263
| 70>   H                      6.494510             -0.553591            4.881932
| 71> *
| 72>
| 73>                          ****END OF INPUT****
 Total Charge           Charge          ....    0
 Multiplicity           Mult            ....    1
 Number of Electrons    NEL             ....   36
Dispersion correction           -0.001714890
FINAL SINGLE POINT ENERGY      -231.453045874484
Dispersion correction           -0.000256815
FINAL SINGLE POINT ENERGY      -115.723541024101

CARTESIAN COORDINATES (ANGSTROEM)
---------------------------------
  C      7.285926    0.821066    2.316241
  O      7.532912    0.471736    1.007627
  H      8.045949   -0.406475    0.930814
  H      7.486048   -0.087081    3.004934
  H      7.841240    1.695538    2.765298
  H      6.188296    0.937388    2.320612
  C      5.433083   -0.164466    5.139578
  O      4.435677   -1.192578    5.131222
  H      3.708831   -0.760089    4.699284
  H      5.218809    0.632496    4.407749
  H      5.430330    0.409471    6.073263
  H      6.494510   -0.553591    4.881932

 Multiplicity           Mult            ....    1
 Number of Electrons    NEL             ....   18
 Basis Dimension        Dim             ....  172

ORBITAL ENERGIES
----------------

  NO   OCC          E(Eh)            E(eV)
   0   2.0000     -19.234571      -523.3993
   1   2.0000     -10.323233      -280.9094
   2   2.0000      -1.138935       -30.9920
   3   2.0000      -0.790226       -21.5031
   4   2.0000      -0.612524       -16.6676
   5   2.0000      -0.536574       -14.6009
   6   2.0000      -0.519131       -14.1263
   7   2.0000      -0.439247       -11.9525
   8   2.0000      -0.377059       -10.2603
   9   0.0000       0.084240         2.2923
  10   0.0000       0.116503         3.1702
  11   0.0000       0.149969         4.0809
  12   0.0000       0.165203         4.4954
  13   0.0000       0.189798         5.1647

MULLIKEN ATOMIC CHARGES
-----------------------
   0 C :   -0.007174
   1 O :   -0.000163
   2 H :   -0.000045
   3 H :    0.001249
   4 H :    0.001073
   5 H :    0.001783
   6 C :   -0.183004
   7 O :   -0.455437
   8 H :    0.315515
   9 H :    0.105402
  10 H :    0.107570
  11 H :    0.113231
Sum of atomic charges:    0.0000000

LOEWDIN ATOMIC CHARGES
----------------------
   0 C :   -0.011359
   1 O :   -0.000037
   2 H :   -0.000012
   3 H :   -0.007726
   4 H :   -0.000208
   5 H :   -0.004952
   6 C :   -0.380483
   7 O :   -0.080392
   8 H :    0.165544
   9 H :    0.101610
  10 H :    0.095984
  11 H :    0.122032

  Mayer bond orders larger than 0.1
B(  6-C ,  7-O ) :   1.0144 B(  6-C ,  9-H ) :   0.9851 B(  6-C , 10-H ) :   0.9644
B(  6-C , 11-H ) :   0.9697 B(  7-O ,  8-H ) :   0.9036

Dispersion correction           -0.000256948
FINAL SINGLE POINT ENERGY      -115.729964729581

DIPOLE MOMENT
-------------
                                X             Y             Z
Electronic contribution:     -1.23957      -1.54254       0.10349
Nuclear contribution   :      1.14035       2.23535      -0.39102
                        -----------------------------------------
Total Dipole Moment    :     -0.09922       0.69281      -0.28753
                        -----------------------------------------
Magnitude (a.u.)       :      0.75664
Magnitude (Debye)      :      1.92323

Rotational constants in cm-1:     4.181940     0.809419     0.778646
Rotational constants in MHz : 125371.398372 24265.765679 23343.229149

                             ****ORCA TERMINATED NORMALLY****
TOTAL RUN TIME: 0 days 0 hours 1 minutes 7 seconds 577 msec
