                         Program Version 4.1.2  - RELEASE  -
|  1> #Run DFT-D3 single point of the dimer
|  2> ! wB97X-D3 def2-TZVP TIGHTSCF CHELPG PMODEL PAL8
|  3>
|  4> %base "6-214_DFT_AB"
|  5>
|  6> %scf
|  7> MaxIter 1000
|  8> end
|  9>
| 10> * xyz 0 1
| 11>   C                      8.866434             -5.670255            1.599576
| 12>   O                      8.826219             -6.242115            0.320138
| 13>   H                      9.201282             -7.120479            0.479184
| 14>   H                      9.917216             -5.639698            2.097436
| 15>   H                      8.590138             -4.618633            1.682096
| 16>   H                      8.329119             -6.216930            2.375969
| 17>   C                      5.214555             -5.719470            -0.540958
| 18>   O                      6.435239             -6.211418            -0.983080
| 19>   H                      7.137188             -5.637817            -0.659574
| 20>   H                      5.152850             -4.633872            -0.732966
| 21>   H                      4.397840             -6.244215            -1.078387
| 22>   H                      5.083328             -5.960183            0.535244
| 23> *
| 24>
| 25> #Run DFT-D3 single point of the molecule with dimer basis set
| 26> $new_job
| 27> %base "6-214_DFT_A"
| 28> ! wB97X-D3 def2-TZVP TIGHTSCF CHELPG PMODEL
| 29>
| 30> %scf
| 31> MaxIter 1000
| 32> end
| 33>
| 34> * xyz 0 1
| 35>   C                      8.866434             -5.670255            1.599576
| 36>   O                      8.826219             -6.242115            0.320138
| 37>   H                      9.201282             -7.120479            0.479184
| 38>   H                      9.917216             -5.639698            2.097436
| 39>   H                      8.590138             -4.618633            1.682096
| 40>   H                      8.329119             -6.216930            2.375969
| 41>   C                    : 5.214555             -5.719470            -0.540958
| 42>   O                    : 6.435239             -6.211418            -0.983080
| 43>   H                    : 7.137188             -5.637817            -0.659574
| 44>   H                    : 5.152850             -4.633872            -0.732966
| 45>   H                    : 4.397840             -6.244215            -1.078387
| 46>   H                    : 5.083328             -5.960183            0.535244
| 47> *
| 48>
| 49> #Run DFT-D3 single point of the particle with dimer basis set
| 50> $new_job
| 51> %base "6-214_DFT_B"
| 52> ! wB97X-D3 def2-TZVP TIGHTSCF CHELPG PMODEL
| 53>
| 54> %scf
| 55> MaxIter 1000
| 56> end
| 57>
| 58> * xyz 0 1
| 59>   C                    : 8.866434             -5.670255            1.599576
| 60>   O                    : 8.826219             -6.242115            0.320138
| 61>   H                    : 9.201282             -7.120479            0.479184
| 62>   H                    : 9.917216             -5.639698            2.097436
| 63>   H                    : 8.590138             -4.618633            1.682096
| 64>   H                    : 8.329119             -6.216930            2.375969
| 65>   C                      5.214555             -5.719470            -0.540958
| 66>   O                      6.435239             -6.211418            -0.983080
| 67>   H                      7.137188             -5.637817            -0.659574
| 68>   H                      5.152850             -4.633872            -0.732966
| 69>   H                      4.397840             -6.244215            -1.078387
| 70>   H                      5.083328             -5.960183            0.535244
| 71> *
| 72>
| 73>                          ****END OF INPUT****
 Total Charge           Charge          ....    0
 Multiplicity           Mult            ....    1
 Number of Electrons    NEL             ....   36
Dispersion correction           -0.001732487
FINAL SINGLE POINT ENERGY      -231.467155322267
Dispersion correction           -0.000252858
FINAL SINGLE POINT ENERGY      -115.728841869491

CARTESIAN COORDINATES (ANGSTROEM)
---------------------------------
  C      8.866434   -5.670255    1.599576
  O      8.826219   -6.242115    0.320138
  H      9.201282   -7.120479    0.479184
  H      9.917216   -5.639698    2.097436
  H      8.590138   -4.618633    1.682096
  H      8.329119   -6.216930    2.375969
  C      5.214555   -5.719470   -0.540958
  O      6.435239   -6.211418   -0.983080
  H      7.137188   -5.637817   -0.659574
  H      5.152850   -4.633872   -0.732966
  H      4.397840   -6.244215   -1.078387
  H      5.083328   -5.960183    0.535244

 Multiplicity           Mult            ....    1
 Number of Electrons    NEL             ....   18
 Basis Dimension        Dim             ....  172

ORBITAL ENERGIES
----------------

  NO   OCC          E(Eh)            E(eV)
   0   2.0000     -19.229844      -523.2707
   1   2.0000     -10.314916      -280.6831
   2   2.0000      -1.143934       -31.1280
   3   2.0000      -0.790600       -21.5133
   4   2.0000      -0.612487       -16.6666
   5   2.0000      -0.546909       -14.8821
   6   2.0000      -0.530351       -14.4316
   7   2.0000      -0.429032       -11.6745
   8   2.0000      -0.371566       -10.1108
   9   0.0000       0.072609         1.9758
  10   0.0000       0.131931         3.5900
  11   0.0000       0.150796         4.1034
  12   0.0000       0.168826         4.5940
  13   0.0000       0.184721         5.0265

MULLIKEN ATOMIC CHARGES
-----------------------
   0 C :   -0.006093
   1 O :   -0.002521
   2 H :   -0.000921
   3 H :   -0.000242
   4 H :    0.000280
   5 H :    0.000407
   6 C :   -0.160979
   7 O :   -0.458256
   8 H :    0.314930
   9 H :    0.101881
  10 H :    0.114675
  11 H :    0.096839
Sum of atomic charges:   -0.0000000

LOEWDIN ATOMIC CHARGES
----------------------
   0 C :   -0.006167
   1 O :   -0.019499
   2 H :   -0.001686
   3 H :   -0.000141
   4 H :   -0.000408
   5 H :   -0.000172
   6 C :   -0.407390
   7 O :   -0.046492
   8 H :    0.178708
   9 H :    0.096229
  10 H :    0.111167
  11 H :    0.095850

  Mayer bond orders larger than 0.1
B(  6-C ,  7-O ) :   1.0080 B(  6-C ,  9-H ) :   0.9828 B(  6-C , 10-H ) :   0.9727
B(  6-C , 11-H ) :   0.9729 B(  7-O ,  8-H ) :   0.8983

Dispersion correction           -0.000227256
FINAL SINGLE POINT ENERGY      -115.736433174818

DIPOLE MOMENT
-------------
                                X             Y             Z
Electronic contribution:      1.49545      -0.70464      -0.66130
Nuclear contribution   :     -1.52992       1.24749       1.01217
                        -----------------------------------------
Total Dipole Moment    :     -0.03446       0.54285       0.35087
                        -----------------------------------------
Magnitude (a.u.)       :      0.64729
Magnitude (Debye)      :      1.64528

Rotational constants in cm-1:     4.161050     0.857091     0.827452
Rotational constants in MHz : 124745.131805 25694.936222 24806.382956

                             ****ORCA TERMINATED NORMALLY****
TOTAL RUN TIME: 0 days 0 hours 1 minutes 8 seconds 544 msec
