                         Program Version 4.1.2  - RELEASE  -
|  1> #Run DFT-D3 single point of the dimer
|  2> ! wB97X-D3 def2-TZVP TIGHTSCF CHELPG PMODEL PAL8
|  3>
|  4> %base "18-46_DFT_AB"
|  5>
|  6> %scf
|  7> MaxIter 1000
|  8> end
|  9>
| 10> * xyz 0 1
| 11>   C                      -2.012563            4.665636             -1.975602
| 12>   O                      -2.587163            3.443356             -2.387225
| 13>   H                      -2.699769            2.832937             -1.683804
| 14>   H                      -1.104865            4.452574             -1.373677
| 15>   H                      -1.693675            5.183946             -2.882772
| 16>   H                      -2.766827            5.318061             -1.491630
| 17>   C                      -4.918628            1.185095             -3.716477
| 18>   O                      -4.672259            0.000038             -4.366445
| 19>   H                      -4.953604            0.228841             -5.286936
| 20>   H                      -5.340126            1.935895             -4.329332
| 21>   H                      -5.471046            0.979331             -2.770990
| 22>   H                      -3.906583            1.564866             -3.351105
| 23> *
| 24>
| 25> #Run DFT-D3 single point of the molecule with dimer basis set
| 26> $new_job
| 27> %base "18-46_DFT_A"
| 28> ! wB97X-D3 def2-TZVP TIGHTSCF CHELPG PMODEL
| 29>
| 30> %scf
| 31> MaxIter 1000
| 32> end
| 33>
| 34> * xyz 0 1
| 35>   C                      -2.012563            4.665636             -1.975602
| 36>   O                      -2.587163            3.443356             -2.387225
| 37>   H                      -2.699769            2.832937             -1.683804
| 38>   H                      -1.104865            4.452574             -1.373677
| 39>   H                      -1.693675            5.183946             -2.882772
| 40>   H                      -2.766827            5.318061             -1.491630
| 41>   C                    : -4.918628            1.185095             -3.716477
| 42>   O                    : -4.672259            0.000038             -4.366445
| 43>   H                    : -4.953604            0.228841             -5.286936
| 44>   H                    : -5.340126            1.935895             -4.329332
| 45>   H                    : -5.471046            0.979331             -2.770990
| 46>   H                    : -3.906583            1.564866             -3.351105
| 47> *
| 48>
| 49> #Run DFT-D3 single point of the particle with dimer basis set
| 50> $new_job
| 51> %base "18-46_DFT_B"
| 52> ! wB97X-D3 def2-TZVP TIGHTSCF CHELPG PMODEL
| 53>
| 54> %scf
| 55> MaxIter 1000
| 56> end
| 57>
| 58> * xyz 0 1
| 59>   C                    : -2.012563            4.665636             -1.975602
| 60>   O                    : -2.587163            3.443356             -2.387225
| 61>   H                    : -2.699769            2.832937             -1.683804
| 62>   H                    : -1.104865            4.452574             -1.373677
| 63>   H                    : -1.693675            5.183946             -2.882772
| 64>   H                    : -2.766827            5.318061             -1.491630
| 65>   C                      -4.918628            1.185095             -3.716477
| 66>   O                      -4.672259            0.000038             -4.366445
| 67>   H                      -4.953604            0.228841             -5.286936
| 68>   H                      -5.340126            1.935895             -4.329332
| 69>   H                      -5.471046            0.979331             -2.770990
| 70>   H                      -3.906583            1.564866             -3.351105
| 71> *
| 72>
| 73>                          ****END OF INPUT****
 Total Charge           Charge          ....    0
 Multiplicity           Mult            ....    1
 Number of Electrons    NEL             ....   36
Dispersion correction           -0.001268215
FINAL SINGLE POINT ENERGY      -231.462723441583
Dispersion correction           -0.000246454
FINAL SINGLE POINT ENERGY      -115.735317846477

CARTESIAN COORDINATES (ANGSTROEM)
---------------------------------
  C     -2.012563    4.665636   -1.975602
  O     -2.587163    3.443356   -2.387225
  H     -2.699769    2.832937   -1.683804
  H     -1.104865    4.452574   -1.373677
  H     -1.693675    5.183946   -2.882772
  H     -2.766827    5.318061   -1.491630
  C     -4.918628    1.185095   -3.716477
  O     -4.672259    0.000038   -4.366445
  H     -4.953604    0.228841   -5.286936
  H     -5.340126    1.935895   -4.329332
  H     -5.471046    0.979331   -2.770990
  H     -3.906583    1.564866   -3.351105

 Multiplicity           Mult            ....    1
 Number of Electrons    NEL             ....   18
 Basis Dimension        Dim             ....  172

ORBITAL ENERGIES
----------------

  NO   OCC          E(Eh)            E(eV)
   0   2.0000     -19.233517      -523.3706
   1   2.0000     -10.312001      -280.6038
   2   2.0000      -1.149856       -31.2892
   3   2.0000      -0.784548       -21.3486
   4   2.0000      -0.623218       -16.9586
   5   2.0000      -0.536107       -14.5882
   6   2.0000      -0.528357       -14.3773
   7   2.0000      -0.445920       -12.1341
   8   2.0000      -0.362776        -9.8716
   9   0.0000       0.087060         2.3690
  10   0.0000       0.108556         2.9540
  11   0.0000       0.147536         4.0147
  12   0.0000       0.182802         4.9743
  13   0.0000       0.192538         5.2392

MULLIKEN ATOMIC CHARGES
-----------------------
   0 C :   -0.000779
   1 O :   -0.000512
   2 H :   -0.000632
   3 H :    0.000022
   4 H :    0.000024
   5 H :    0.000002
   6 C :   -0.168259
   7 O :   -0.450319
   8 H :    0.317546
   9 H :    0.107581
  10 H :    0.102185
  11 H :    0.093141
Sum of atomic charges:   -0.0000000

LOEWDIN ATOMIC CHARGES
----------------------
   0 C :   -0.000539
   1 O :   -0.008366
   2 H :   -0.004598
   3 H :   -0.000014
   4 H :   -0.000025
   5 H :   -0.000018
   6 C :   -0.425272
   7 O :   -0.058900
   8 H :    0.194376
   9 H :    0.087310
  10 H :    0.105274
  11 H :    0.110773

  Mayer bond orders larger than 0.1
B(  6-C ,  7-O ) :   1.0160 B(  6-C ,  9-H ) :   0.9848 B(  6-C , 10-H ) :   0.9716
B(  6-C , 11-H ) :   0.9821 B(  7-O ,  8-H ) :   0.8987

Dispersion correction           -0.000221365
FINAL SINGLE POINT ENERGY      -115.726801663655

DIPOLE MOMENT
-------------
                                X             Y             Z
Electronic contribution:      0.17956      -1.62686      -0.86857
Nuclear contribution   :     -0.45723       2.18598       0.49797
                        -----------------------------------------
Total Dipole Moment    :     -0.27767       0.55912      -0.37060
                        -----------------------------------------
Magnitude (a.u.)       :      0.72599
Magnitude (Debye)      :      1.84532

Rotational constants in cm-1:     4.088138     0.885852     0.842157
Rotational constants in MHz : 122559.307175 26557.180116 25247.221389

                             ****ORCA TERMINATED NORMALLY****
TOTAL RUN TIME: 0 days 0 hours 0 minutes 54 seconds 450 msec
