                         Program Version 4.1.2  - RELEASE  -
|  1> #Run DFT-D3 single point of the dimer
|  2> ! wB97X-D3 def2-TZVP TIGHTSCF CHELPG PMODEL PAL8
|  3>
|  4> %base "8-5_DFT_AB"
|  5>
|  6> %scf
|  7> MaxIter 1000
|  8> end
|  9>
| 10> * xyz 0 1
| 11>   C                      3.233414             -3.571402            3.480505
| 12>   O                      2.255676             -2.570167            3.219103
| 13>   H                      1.566001             -2.787145            3.844910
| 14>   H                      2.766447             -4.558397            3.518261
| 15>   H                      4.083400             -3.498807            2.869667
| 16>   H                      3.649298             -3.340378            4.517966
| 17>   C                      -0.915505            -1.309823            3.665352
| 18>   O                      -0.468235            -0.920352            5.001852
| 19>   H                      0.109127             -0.150071            5.001110
| 20>   H                      -1.528910            -2.242467            3.688094
| 21>   H                      -1.449078            -0.451866            3.227574
| 22>   H                      -0.109767            -1.463050            2.909293
| 23> *
| 24>
| 25> #Run DFT-D3 single point of the molecule with dimer basis set
| 26> $new_job
| 27> %base "8-5_DFT_A"
| 28> ! wB97X-D3 def2-TZVP TIGHTSCF CHELPG PMODEL
| 29>
| 30> %scf
| 31> MaxIter 1000
| 32> end
| 33>
| 34> * xyz 0 1
| 35>   C                      3.233414             -3.571402            3.480505
| 36>   O                      2.255676             -2.570167            3.219103
| 37>   H                      1.566001             -2.787145            3.844910
| 38>   H                      2.766447             -4.558397            3.518261
| 39>   H                      4.083400             -3.498807            2.869667
| 40>   H                      3.649298             -3.340378            4.517966
| 41>   C                    : -0.915505            -1.309823            3.665352
| 42>   O                    : -0.468235            -0.920352            5.001852
| 43>   H                    : 0.109127             -0.150071            5.001110
| 44>   H                    : -1.528910            -2.242467            3.688094
| 45>   H                    : -1.449078            -0.451866            3.227574
| 46>   H                    : -0.109767            -1.463050            2.909293
| 47> *
| 48>
| 49> #Run DFT-D3 single point of the particle with dimer basis set
| 50> $new_job
| 51> %base "8-5_DFT_B"
| 52> ! wB97X-D3 def2-TZVP TIGHTSCF CHELPG PMODEL
| 53>
| 54> %scf
| 55> MaxIter 1000
| 56> end
| 57>
| 58> * xyz 0 1
| 59>   C                    : 3.233414             -3.571402            3.480505
| 60>   O                    : 2.255676             -2.570167            3.219103
| 61>   H                    : 1.566001             -2.787145            3.844910
| 62>   H                    : 2.766447             -4.558397            3.518261
| 63>   H                    : 4.083400             -3.498807            2.869667
| 64>   H                    : 3.649298             -3.340378            4.517966
| 65>   C                      -0.915505            -1.309823            3.665352
| 66>   O                      -0.468235            -0.920352            5.001852
| 67>   H                      0.109127             -0.150071            5.001110
| 68>   H                      -1.528910            -2.242467            3.688094
| 69>   H                      -1.449078            -0.451866            3.227574
| 70>   H                      -0.109767            -1.463050            2.909293
| 71> *
| 72>
| 73>                          ****END OF INPUT****
 Total Charge           Charge          ....    0
 Multiplicity           Mult            ....    1
 Number of Electrons    NEL             ....   36
Dispersion correction           -0.001602741
FINAL SINGLE POINT ENERGY      -231.465022552137
Dispersion correction           -0.000215901
FINAL SINGLE POINT ENERGY      -115.730874769405

CARTESIAN COORDINATES (ANGSTROEM)
---------------------------------
  C      3.233414   -3.571402    3.480505
  O      2.255676   -2.570167    3.219103
  H      1.566001   -2.787145    3.844910
  H      2.766447   -4.558397    3.518261
  H      4.083400   -3.498807    2.869667
  H      3.649298   -3.340378    4.517966
  C     -0.915505   -1.309823    3.665352
  O     -0.468235   -0.920352    5.001852
  H      0.109127   -0.150071    5.001110
  H     -1.528910   -2.242467    3.688094
  H     -1.449078   -0.451866    3.227574
  H     -0.109767   -1.463050    2.909293

 Multiplicity           Mult            ....    1
 Number of Electrons    NEL             ....   18
 Basis Dimension        Dim             ....  172

ORBITAL ENERGIES
----------------

  NO   OCC          E(Eh)            E(eV)
   0   2.0000     -19.229770      -523.2686
   1   2.0000     -10.324311      -280.9388
   2   2.0000      -1.118981       -30.4490
   3   2.0000      -0.796233       -21.6666
   4   2.0000      -0.606255       -16.4970
   5   2.0000      -0.533241       -14.5102
   6   2.0000      -0.516617       -14.0579
   7   2.0000      -0.433866       -11.8061
   8   2.0000      -0.371611       -10.1121
   9   0.0000       0.087954         2.3934
  10   0.0000       0.118622         3.2279
  11   0.0000       0.144443         3.9305
  12   0.0000       0.181918         4.9502
  13   0.0000       0.189804         5.1648

MULLIKEN ATOMIC CHARGES
-----------------------
   0 C :   -0.000125
   1 O :    0.000310
   2 H :    0.000452
   3 H :    0.000032
   4 H :   -0.000038
   5 H :   -0.000086
   6 C :   -0.175384
   7 O :   -0.493841
   8 H :    0.316315
   9 H :    0.132337
  10 H :    0.118053
  11 H :    0.101974
Sum of atomic charges:   -0.0000000

LOEWDIN ATOMIC CHARGES
----------------------
   0 C :   -0.000218
   1 O :   -0.004078
   2 H :   -0.005932
   3 H :   -0.000007
   4 H :   -0.000007
   5 H :   -0.000016
   6 C :   -0.355767
   7 O :   -0.112909
   8 H :    0.165119
   9 H :    0.116077
  10 H :    0.098312
  11 H :    0.099425

  Mayer bond orders larger than 0.1
B(  6-C ,  7-O ) :   0.9741 B(  6-C ,  9-H ) :   0.9709 B(  6-C , 10-H ) :   0.9800
B(  6-C , 11-H ) :   0.9693 B(  7-O ,  8-H ) :   0.8953

Dispersion correction           -0.000284327
FINAL SINGLE POINT ENERGY      -115.730672525042

DIPOLE MOMENT
-------------
                                X             Y             Z
Electronic contribution:      0.45629       0.30270       1.77715
Nuclear contribution   :     -0.27463       0.03689      -2.35944
                        -----------------------------------------
Total Dipole Moment    :      0.18166       0.33959      -0.58229
                        -----------------------------------------
Magnitude (a.u.)       :      0.69813
Magnitude (Debye)      :      1.77450

Rotational constants in cm-1:     4.296033     0.777888     0.743512
Rotational constants in MHz : 128791.827141 23320.508207 22289.941281

                             ****ORCA TERMINATED NORMALLY****
TOTAL RUN TIME: 0 days 0 hours 0 minutes 44 seconds 941 msec
