                         Program Version 4.1.2  - RELEASE  -
|  1> #Run DFT-D3 single point of the dimer
|  2> ! wB97X-D3 def2-TZVP TIGHTSCF CHELPG PMODEL PAL8
|  3>
|  4> %base "11-99_DFT_AB"
|  5>
|  6> %scf
|  7> MaxIter 1000
|  8> end
|  9>
| 10> * xyz 0 1
| 11>   C                      -3.641882            -6.013494            -3.653541
| 12>   O                      -3.109496            -5.033797            -2.834084
| 13>   H                      -2.177298            -4.956198            -2.865698
| 14>   H                      -3.149717            -6.980031            -3.450855
| 15>   H                      -4.734627            -6.165777            -3.567122
| 16>   H                      -3.537758            -5.813317            -4.687027
| 17>   C                      -5.760055            -8.513829            -0.368279
| 18>   O                      -4.328419            -8.570165            -0.232964
| 19>   H                      -3.882338            -8.895393            -1.060434
| 20>   H                      -6.142381            -9.490656            -0.599843
| 21>   H                      -6.286830            -8.176719            0.543374
| 22>   H                      -6.157992            -7.898399            -1.183509
| 23> *
| 24>
| 25> #Run DFT-D3 single point of the molecule with dimer basis set
| 26> $new_job
| 27> %base "11-99_DFT_A"
| 28> ! wB97X-D3 def2-TZVP TIGHTSCF CHELPG PMODEL
| 29>
| 30> %scf
| 31> MaxIter 1000
| 32> end
| 33>
| 34> * xyz 0 1
| 35>   C                      -3.641882            -6.013494            -3.653541
| 36>   O                      -3.109496            -5.033797            -2.834084
| 37>   H                      -2.177298            -4.956198            -2.865698
| 38>   H                      -3.149717            -6.980031            -3.450855
| 39>   H                      -4.734627            -6.165777            -3.567122
| 40>   H                      -3.537758            -5.813317            -4.687027
| 41>   C                    : -5.760055            -8.513829            -0.368279
| 42>   O                    : -4.328419            -8.570165            -0.232964
| 43>   H                    : -3.882338            -8.895393            -1.060434
| 44>   H                    : -6.142381            -9.490656            -0.599843
| 45>   H                    : -6.286830            -8.176719            0.543374
| 46>   H                    : -6.157992            -7.898399            -1.183509
| 47> *
| 48>
| 49> #Run DFT-D3 single point of the particle with dimer basis set
| 50> $new_job
| 51> %base "11-99_DFT_B"
| 52> ! wB97X-D3 def2-TZVP TIGHTSCF CHELPG PMODEL
| 53>
| 54> %scf
| 55> MaxIter 1000
| 56> end
| 57>
| 58> * xyz 0 1
| 59>   C                    : -3.641882            -6.013494            -3.653541
| 60>   O                    : -3.109496            -5.033797            -2.834084
| 61>   H                    : -2.177298            -4.956198            -2.865698
| 62>   H                    : -3.149717            -6.980031            -3.450855
| 63>   H                    : -4.734627            -6.165777            -3.567122
| 64>   H                    : -3.537758            -5.813317            -4.687027
| 65>   C                      -5.760055            -8.513829            -0.368279
| 66>   O                      -4.328419            -8.570165            -0.232964
| 67>   H                      -3.882338            -8.895393            -1.060434
| 68>   H                      -6.142381            -9.490656            -0.599843
| 69>   H                      -6.286830            -8.176719            0.543374
| 70>   H                      -6.157992            -7.898399            -1.183509
| 71> *
| 72>
| 73>                          ****END OF INPUT****
 Total Charge           Charge          ....    0
 Multiplicity           Mult            ....    1
 Number of Electrons    NEL             ....   36
Dispersion correction           -0.001227887
FINAL SINGLE POINT ENERGY      -231.462905456531
Dispersion correction           -0.000242879
FINAL SINGLE POINT ENERGY      -115.731541895680

CARTESIAN COORDINATES (ANGSTROEM)
---------------------------------
  C     -3.641882   -6.013494   -3.653541
  O     -3.109496   -5.033797   -2.834084
  H     -2.177298   -4.956198   -2.865698
  H     -3.149717   -6.980031   -3.450855
  H     -4.734627   -6.165777   -3.567122
  H     -3.537758   -5.813317   -4.687027
  C     -5.760055   -8.513829   -0.368279
  O     -4.328419   -8.570165   -0.232964
  H     -3.882338   -8.895393   -1.060434
  H     -6.142381   -9.490656   -0.599843
  H     -6.286830   -8.176719    0.543374
  H     -6.157992   -7.898399   -1.183509

 Multiplicity           Mult            ....    1
 Number of Electrons    NEL             ....   18
 Basis Dimension        Dim             ....  172

ORBITAL ENERGIES
----------------

  NO   OCC          E(Eh)            E(eV)
   0   2.0000     -19.234320      -523.3925
   1   2.0000     -10.315118      -280.6886
   2   2.0000      -1.120450       -30.4890
   3   2.0000      -0.798012       -21.7150
   4   2.0000      -0.607217       -16.5232
   5   2.0000      -0.533229       -14.5099
   6   2.0000      -0.524702       -14.2779
   7   2.0000      -0.431128       -11.7316
   8   2.0000      -0.373023       -10.1505
   9   0.0000       0.078213         2.1283
  10   0.0000       0.120662         3.2834
  11   0.0000       0.142106         3.8669
  12   0.0000       0.166363         4.5270
  13   0.0000       0.187826         5.1110

MULLIKEN ATOMIC CHARGES
-----------------------
   0 C :   -0.000954
   1 O :    0.000236
   2 H :    0.000022
   3 H :   -0.001353
   4 H :   -0.000060
   5 H :   -0.000133
   6 C :   -0.167972
   7 O :   -0.487542
   8 H :    0.321382
   9 H :    0.105503
  10 H :    0.125938
  11 H :    0.104935
Sum of atomic charges:    0.0000000

LOEWDIN ATOMIC CHARGES
----------------------
   0 C :   -0.001149
   1 O :   -0.000027
   2 H :   -0.000009
   3 H :   -0.000813
   4 H :   -0.000354
   5 H :   -0.000055
   6 C :   -0.373089
   7 O :   -0.109189
   8 H :    0.187154
   9 H :    0.090548
  10 H :    0.112720
  11 H :    0.094262

  Mayer bond orders larger than 0.1
B(  6-C ,  7-O ) :   0.9957 B(  6-C ,  9-H ) :   0.9834 B(  6-C , 10-H ) :   0.9716
B(  6-C , 11-H ) :   0.9688 B(  7-O ,  8-H ) :   0.8879

Dispersion correction           -0.000276317
FINAL SINGLE POINT ENERGY      -115.731337156094

DIPOLE MOMENT
-------------
                                X             Y             Z
Electronic contribution:      1.87780       0.02901       0.35149
Nuclear contribution   :     -2.20420      -0.22751      -0.93065
                        -----------------------------------------
Total Dipole Moment    :     -0.32641      -0.19851      -0.57915
                        -----------------------------------------
Magnitude (a.u.)       :      0.69380
Magnitude (Debye)      :      1.76351

Rotational constants in cm-1:     4.451196     0.792735     0.760428
Rotational constants in MHz : 133443.497501 23765.609877 22797.051153

                             ****ORCA TERMINATED NORMALLY****
TOTAL RUN TIME: 0 days 0 hours 0 minutes 48 seconds 33 msec
