                         Program Version 4.1.2  - RELEASE  -
|  1> #Run DFT-D3 single point of the dimer
|  2> ! wB97X-D3 def2-TZVP TIGHTSCF CHELPG PMODEL PAL8
|  3>
|  4> %base "14-159_DFT_AB"
|  5>
|  6> %scf
|  7> MaxIter 1000
|  8> end
|  9>
| 10> * xyz 0 1
| 11>   C                      10.678996            8.771194             -7.516484
| 12>   O                      10.671975            9.516892             -6.346500
| 13>   H                      10.764590            8.847367             -5.616443
| 14>   H                      10.695222            7.656437             -7.292155
| 15>   H                      9.869501             8.951080             -8.154115
| 16>   H                      11.614463            9.001513             -8.114070
| 17>   C                      7.306338             6.109725             -4.002123
| 18>   O                      8.248962             6.270038             -5.051369
| 19>   H                      8.749689             7.071986             -4.909805
| 20>   H                      7.643220             6.493225             -3.029229
| 21>   H                      6.357978             6.650363             -4.207706
| 22>   H                      7.229977             5.031350             -3.752700
| 23> *
| 24>
| 25> #Run DFT-D3 single point of the molecule with dimer basis set
| 26> $new_job
| 27> %base "14-159_DFT_A"
| 28> ! wB97X-D3 def2-TZVP TIGHTSCF CHELPG PMODEL
| 29>
| 30> %scf
| 31> MaxIter 1000
| 32> end
| 33>
| 34> * xyz 0 1
| 35>   C                      10.678996            8.771194             -7.516484
| 36>   O                      10.671975            9.516892             -6.346500
| 37>   H                      10.764590            8.847367             -5.616443
| 38>   H                      10.695222            7.656437             -7.292155
| 39>   H                      9.869501             8.951080             -8.154115
| 40>   H                      11.614463            9.001513             -8.114070
| 41>   C                    : 7.306338             6.109725             -4.002123
| 42>   O                    : 8.248962             6.270038             -5.051369
| 43>   H                    : 8.749689             7.071986             -4.909805
| 44>   H                    : 7.643220             6.493225             -3.029229
| 45>   H                    : 6.357978             6.650363             -4.207706
| 46>   H                    : 7.229977             5.031350             -3.752700
| 47> *
| 48>
| 49> #Run DFT-D3 single point of the particle with dimer basis set
| 50> $new_job
| 51> %base "14-159_DFT_B"
| 52> ! wB97X-D3 def2-TZVP TIGHTSCF CHELPG PMODEL
| 53>
| 54> %scf
| 55> MaxIter 1000
| 56> end
| 57>
| 58> * xyz 0 1
| 59>   C                    : 10.678996            8.771194             -7.516484
| 60>   O                    : 10.671975            9.516892             -6.346500
| 61>   H                    : 10.764590            8.847367             -5.616443
| 62>   H                    : 10.695222            7.656437             -7.292155
| 63>   H                    : 9.869501             8.951080             -8.154115
| 64>   H                    : 11.614463            9.001513             -8.114070
| 65>   C                      7.306338             6.109725             -4.002123
| 66>   O                      8.248962             6.270038             -5.051369
| 67>   H                      8.749689             7.071986             -4.909805
| 68>   H                      7.643220             6.493225             -3.029229
| 69>   H                      6.357978             6.650363             -4.207706
| 70>   H                      7.229977             5.031350             -3.752700
| 71> *
| 72>
| 73>                          ****END OF INPUT****
 Total Charge           Charge          ....    0
 Multiplicity           Mult            ....    1
 Number of Electrons    NEL             ....   36
Dispersion correction           -0.001182723
FINAL SINGLE POINT ENERGY      -231.462599094532
Dispersion correction           -0.000241365
FINAL SINGLE POINT ENERGY      -115.729712058118

CARTESIAN COORDINATES (ANGSTROEM)
---------------------------------
  C     10.678996    8.771194   -7.516484
  O     10.671975    9.516892   -6.346500
  H     10.764590    8.847367   -5.616443
  H     10.695222    7.656437   -7.292155
  H      9.869501    8.951080   -8.154115
  H     11.614463    9.001513   -8.114070
  C      7.306338    6.109725   -4.002123
  O      8.248962    6.270038   -5.051369
  H      8.749689    7.071986   -4.909805
  H      7.643220    6.493225   -3.029229
  H      6.357978    6.650363   -4.207706
  H      7.229977    5.031350   -3.752700

 Multiplicity           Mult            ....    1
 Number of Electrons    NEL             ....   18
 Basis Dimension        Dim             ....  172

ORBITAL ENERGIES
----------------

  NO   OCC          E(Eh)            E(eV)
   0   2.0000     -19.230719      -523.2945
   1   2.0000     -10.317504      -280.7536
   2   2.0000      -1.134851       -30.8809
   3   2.0000      -0.794846       -21.6289
   4   2.0000      -0.613265       -16.6878
   5   2.0000      -0.547857       -14.9079
   6   2.0000      -0.513838       -13.9822
   7   2.0000      -0.428266       -11.6537
   8   2.0000      -0.376893       -10.2558
   9   0.0000       0.079676         2.1681
  10   0.0000       0.123970         3.3734
  11   0.0000       0.148709         4.0466
  12   0.0000       0.176690         4.8080
  13   0.0000       0.194177         5.2838

MULLIKEN ATOMIC CHARGES
-----------------------
   0 C :   -0.000918
   1 O :    0.000064
   2 H :   -0.000186
   3 H :   -0.000555
   4 H :    0.000176
   5 H :   -0.000021
   6 C :   -0.165858
   7 O :   -0.473971
   8 H :    0.317660
   9 H :    0.098681
  10 H :    0.105282
  11 H :    0.119645
Sum of atomic charges:    0.0000000

LOEWDIN ATOMIC CHARGES
----------------------
   0 C :   -0.000740
   1 O :   -0.000117
   2 H :   -0.001025
   3 H :   -0.000456
   4 H :   -0.000031
   5 H :   -0.000015
   6 C :   -0.389475
   7 O :   -0.079127
   8 H :    0.165560
   9 H :    0.094178
  10 H :    0.099401
  11 H :    0.111848

  Mayer bond orders larger than 0.1
B(  6-C ,  7-O ) :   1.0036 B(  6-C ,  9-H ) :   0.9794 B(  6-C , 10-H ) :   0.9707
B(  6-C , 11-H ) :   0.9722 B(  7-O ,  8-H ) :   0.8977

Dispersion correction           -0.000259826
FINAL SINGLE POINT ENERGY      -115.732867712467

DIPOLE MOMENT
-------------
                                X             Y             Z
Electronic contribution:      1.11727       0.09192      -1.50190
Nuclear contribution   :     -1.14003       0.36310       2.04767
                        -----------------------------------------
Total Dipole Moment    :     -0.02275       0.45502       0.54576
                        -----------------------------------------
Magnitude (a.u.)       :      0.71093
Magnitude (Debye)      :      1.80704

Rotational constants in cm-1:     4.273724     0.813869     0.794611
Rotational constants in MHz : 128123.028019 24399.173063 23821.839204

                             ****ORCA TERMINATED NORMALLY****
TOTAL RUN TIME: 0 days 0 hours 1 minutes 6 seconds 947 msec
