                         Program Version 4.1.2  - RELEASE  -
|  1> #Run DFT-D3 single point of the dimer
|  2> ! wB97X-D3 def2-TZVP TIGHTSCF CHELPG PMODEL PAL8
|  3>
|  4> %base "20-198_DFT_AB"
|  5>
|  6> %scf
|  7> MaxIter 1000
|  8> end
|  9>
| 10> * xyz 0 1
| 11>   C                      -7.614321            -1.482426            -2.334530
| 12>   O                      -8.009043            -0.873774            -1.125969
| 13>   H                      -7.748097            0.081051             -1.170580
| 14>   H                      -7.865185            -0.945914            -3.205777
| 15>   H                      -6.470210            -1.582579            -2.381032
| 16>   H                      -7.997989            -2.487817            -2.512743
| 17>   C                      -6.054250            -1.819193            2.610629
| 18>   O                      -5.399133            -1.078650            1.587365
| 19>   H                      -5.936089            -1.162187            0.809597
| 20>   H                      -6.005282            -1.230983            3.547607
| 21>   H                      -7.078095            -2.064409            2.357709
| 22>   H                      -5.539380            -2.672812            2.901062
| 23> *
| 24>
| 25> #Run DFT-D3 single point of the molecule with dimer basis set
| 26> $new_job
| 27> %base "20-198_DFT_A"
| 28> ! wB97X-D3 def2-TZVP TIGHTSCF CHELPG PMODEL
| 29>
| 30> %scf
| 31> MaxIter 1000
| 32> end
| 33>
| 34> * xyz 0 1
| 35>   C                      -7.614321            -1.482426            -2.334530
| 36>   O                      -8.009043            -0.873774            -1.125969
| 37>   H                      -7.748097            0.081051             -1.170580
| 38>   H                      -7.865185            -0.945914            -3.205777
| 39>   H                      -6.470210            -1.582579            -2.381032
| 40>   H                      -7.997989            -2.487817            -2.512743
| 41>   C                    : -6.054250            -1.819193            2.610629
| 42>   O                    : -5.399133            -1.078650            1.587365
| 43>   H                    : -5.936089            -1.162187            0.809597
| 44>   H                    : -6.005282            -1.230983            3.547607
| 45>   H                    : -7.078095            -2.064409            2.357709
| 46>   H                    : -5.539380            -2.672812            2.901062
| 47> *
| 48>
| 49> #Run DFT-D3 single point of the particle with dimer basis set
| 50> $new_job
| 51> %base "20-198_DFT_B"
| 52> ! wB97X-D3 def2-TZVP TIGHTSCF CHELPG PMODEL
| 53>
| 54> %scf
| 55> MaxIter 1000
| 56> end
| 57>
| 58> * xyz 0 1
| 59>   C                    : -7.614321            -1.482426            -2.334530
| 60>   O                    : -8.009043            -0.873774            -1.125969
| 61>   H                    : -7.748097            0.081051             -1.170580
| 62>   H                    : -7.865185            -0.945914            -3.205777
| 63>   H                    : -6.470210            -1.582579            -2.381032
| 64>   H                    : -7.997989            -2.487817            -2.512743
| 65>   C                      -6.054250            -1.819193            2.610629
| 66>   O                      -5.399133            -1.078650            1.587365
| 67>   H                      -5.936089            -1.162187            0.809597
| 68>   H                      -6.005282            -1.230983            3.547607
| 69>   H                      -7.078095            -2.064409            2.357709
| 70>   H                      -5.539380            -2.672812            2.901062
| 71> *
| 72>
| 73>                          ****END OF INPUT****
 Total Charge           Charge          ....    0
 Multiplicity           Mult            ....    1
 Number of Electrons    NEL             ....   36
Dispersion correction           -0.001313691
FINAL SINGLE POINT ENERGY      -231.466958417893
Dispersion correction           -0.000252437
FINAL SINGLE POINT ENERGY      -115.731093265749

CARTESIAN COORDINATES (ANGSTROEM)
---------------------------------
  C     -7.614321   -1.482426   -2.334530
  O     -8.009043   -0.873774   -1.125969
  H     -7.748097    0.081051   -1.170580
  H     -7.865185   -0.945914   -3.205777
  H     -6.470210   -1.582579   -2.381032
  H     -7.997989   -2.487817   -2.512743
  C     -6.054250   -1.819193    2.610629
  O     -5.399133   -1.078650    1.587365
  H     -5.936089   -1.162187    0.809597
  H     -6.005282   -1.230983    3.547607
  H     -7.078095   -2.064409    2.357709
  H     -5.539380   -2.672812    2.901062

 Multiplicity           Mult            ....    1
 Number of Electrons    NEL             ....   18
 Basis Dimension        Dim             ....  172

ORBITAL ENERGIES
----------------

  NO   OCC          E(Eh)            E(eV)
   0   2.0000     -19.229216      -523.2536
   1   2.0000     -10.307589      -280.4838
   2   2.0000      -1.136310       -30.9206
   3   2.0000      -0.801814       -21.8185
   4   2.0000      -0.612845       -16.6764
   5   2.0000      -0.544187       -14.8081
   6   2.0000      -0.525056       -14.2875
   7   2.0000      -0.441198       -12.0056
   8   2.0000      -0.371700       -10.1145
   9   0.0000       0.069573         1.8932
  10   0.0000       0.124383         3.3846
  11   0.0000       0.152798         4.1579
  12   0.0000       0.169364         4.6086
  13   0.0000       0.187693         5.1074

MULLIKEN ATOMIC CHARGES
-----------------------
   0 C :   -0.000512
   1 O :   -0.000261
   2 H :   -0.000446
   3 H :   -0.000006
   4 H :   -0.000083
   5 H :    0.000029
   6 C :   -0.162824
   7 O :   -0.470713
   8 H :    0.312282
   9 H :    0.108424
  10 H :    0.104433
  11 H :    0.109678
Sum of atomic charges:   -0.0000000

LOEWDIN ATOMIC CHARGES
----------------------
   0 C :   -0.000763
   1 O :   -0.001394
   2 H :   -0.000673
   3 H :   -0.000016
   4 H :   -0.000234
   5 H :   -0.000005
   6 C :   -0.371506
   7 O :   -0.075589
   8 H :    0.161063
   9 H :    0.108007
  10 H :    0.095882
  11 H :    0.085229

  Mayer bond orders larger than 0.1
B(  6-C ,  7-O ) :   1.0074 B(  6-C ,  9-H ) :   0.9814 B(  6-C , 10-H ) :   0.9834
B(  6-C , 11-H ) :   0.9760 B(  7-O ,  8-H ) :   0.9082

Dispersion correction           -0.000243628
FINAL SINGLE POINT ENERGY      -115.731697703896

DIPOLE MOMENT
-------------
                                X             Y             Z
Electronic contribution:      0.89556       0.89549      -1.31513
Nuclear contribution   :     -1.50289      -1.26215       1.23231
                        -----------------------------------------
Total Dipole Moment    :     -0.60733      -0.36666      -0.08282
                        -----------------------------------------
Magnitude (a.u.)       :      0.71424
Magnitude (Debye)      :      1.81546

Rotational constants in cm-1:     4.450201     0.832631     0.790427
Rotational constants in MHz : 133413.667628 24961.654629 23696.395409

                             ****ORCA TERMINATED NORMALLY****
TOTAL RUN TIME: 0 days 0 hours 1 minutes 5 seconds 823 msec
