                         Program Version 4.1.2  - RELEASE  -
|  1> #Run DFT-D3 single point of the dimer
|  2> ! wB97X-D3 def2-TZVP TIGHTSCF CHELPG PMODEL PAL8
|  3>
|  4> %base "3-113_DFT_AB"
|  5>
|  6> %scf
|  7> MaxIter 1000
|  8> end
|  9>
| 10> * xyz 0 1
| 11>   C                      0.989700             0.103803             9.865704
| 12>   O                      1.265327             0.630240             11.214209
| 13>   H                      0.451374             1.012931             11.587193
| 14>   H                      0.426579             -0.844866            9.908428
| 15>   H                      0.413281             0.719244             9.217680
| 16>   H                      1.945017             -0.202523            9.432650
| 17>   C                      5.244458             -3.146081            8.134721
| 18>   O                      4.330775             -2.100443            8.518283
| 19>   H                      4.833368             -1.300792            8.493139
| 20>   H                      4.728992             -4.120055            8.212679
| 21>   H                      5.591183             -3.082863            7.073099
| 22>   H                      6.195108             -3.208031            8.613289
| 23> *
| 24>
| 25> #Run DFT-D3 single point of the molecule with dimer basis set
| 26> $new_job
| 27> %base "3-113_DFT_A"
| 28> ! wB97X-D3 def2-TZVP TIGHTSCF CHELPG PMODEL
| 29>
| 30> %scf
| 31> MaxIter 1000
| 32> end
| 33>
| 34> * xyz 0 1
| 35>   C                      0.989700             0.103803             9.865704
| 36>   O                      1.265327             0.630240             11.214209
| 37>   H                      0.451374             1.012931             11.587193
| 38>   H                      0.426579             -0.844866            9.908428
| 39>   H                      0.413281             0.719244             9.217680
| 40>   H                      1.945017             -0.202523            9.432650
| 41>   C                    : 5.244458             -3.146081            8.134721
| 42>   O                    : 4.330775             -2.100443            8.518283
| 43>   H                    : 4.833368             -1.300792            8.493139
| 44>   H                    : 4.728992             -4.120055            8.212679
| 45>   H                    : 5.591183             -3.082863            7.073099
| 46>   H                    : 6.195108             -3.208031            8.613289
| 47> *
| 48>
| 49> #Run DFT-D3 single point of the particle with dimer basis set
| 50> $new_job
| 51> %base "3-113_DFT_B"
| 52> ! wB97X-D3 def2-TZVP TIGHTSCF CHELPG PMODEL
| 53>
| 54> %scf
| 55> MaxIter 1000
| 56> end
| 57>
| 58> * xyz 0 1
| 59>   C                    : 0.989700             0.103803             9.865704
| 60>   O                    : 1.265327             0.630240             11.214209
| 61>   H                    : 0.451374             1.012931             11.587193
| 62>   H                    : 0.426579             -0.844866            9.908428
| 63>   H                    : 0.413281             0.719244             9.217680
| 64>   H                    : 1.945017             -0.202523            9.432650
| 65>   C                      5.244458             -3.146081            8.134721
| 66>   O                      4.330775             -2.100443            8.518283
| 67>   H                      4.833368             -1.300792            8.493139
| 68>   H                      4.728992             -4.120055            8.212679
| 69>   H                      5.591183             -3.082863            7.073099
| 70>   H                      6.195108             -3.208031            8.613289
| 71> *
| 72>
| 73>                          ****END OF INPUT****
 Total Charge           Charge          ....    0
 Multiplicity           Mult            ....    1
 Number of Electrons    NEL             ....   36
Dispersion correction           -0.000972235
FINAL SINGLE POINT ENERGY      -231.464438341499
Dispersion correction           -0.000282072
FINAL SINGLE POINT ENERGY      -115.731749574418

CARTESIAN COORDINATES (ANGSTROEM)
---------------------------------
  C      0.989700    0.103803    9.865704
  O      1.265327    0.630240   11.214209
  H      0.451374    1.012931   11.587193
  H      0.426579   -0.844866    9.908428
  H      0.413281    0.719244    9.217680
  H      1.945017   -0.202523    9.432650
  C      5.244458   -3.146081    8.134721
  O      4.330775   -2.100443    8.518283
  H      4.833368   -1.300792    8.493139
  H      4.728992   -4.120055    8.212679
  H      5.591183   -3.082863    7.073099
  H      6.195108   -3.208031    8.613289

 Multiplicity           Mult            ....    1
 Number of Electrons    NEL             ....   18
 Basis Dimension        Dim             ....  172

ORBITAL ENERGIES
----------------

  NO   OCC          E(Eh)            E(eV)
   0   2.0000     -19.235514      -523.4249
   1   2.0000     -10.316273      -280.7201
   2   2.0000      -1.135552       -30.8999
   3   2.0000      -0.799683       -21.7605
   4   2.0000      -0.617097       -16.7921
   5   2.0000      -0.526184       -14.3182
   6   2.0000      -0.522322       -14.2131
   7   2.0000      -0.448041       -12.1918
   8   2.0000      -0.375591       -10.2203
   9   0.0000       0.094097         2.5605
  10   0.0000       0.117601         3.2001
  11   0.0000       0.146709         3.9922
  12   0.0000       0.177002         4.8165
  13   0.0000       0.197387         5.3712

MULLIKEN ATOMIC CHARGES
-----------------------
   0 C :    0.000734
   1 O :    0.000033
   2 H :    0.000002
   3 H :   -0.000096
   4 H :   -0.000064
   5 H :   -0.003336
   6 C :   -0.184405
   7 O :   -0.460634
   8 H :    0.311074
   9 H :    0.126069
  10 H :    0.098331
  11 H :    0.112292
Sum of atomic charges:    0.0000000

LOEWDIN ATOMIC CHARGES
----------------------
   0 C :   -0.000750
   1 O :   -0.000011
   2 H :   -0.000001
   3 H :   -0.000035
   4 H :   -0.000006
   5 H :   -0.002149
   6 C :   -0.376426
   7 O :   -0.079504
   8 H :    0.158765
   9 H :    0.112938
  10 H :    0.098404
  11 H :    0.088775

  Mayer bond orders larger than 0.1
B(  6-C ,  7-O ) :   1.0000 B(  6-C ,  9-H ) :   0.9777 B(  6-C , 10-H ) :   0.9731
B(  6-C , 11-H ) :   0.9653 B(  7-O ,  8-H ) :   0.9037

Dispersion correction           -0.000268144
FINAL SINGLE POINT ENERGY      -115.731724184429

DIPOLE MOMENT
-------------
                                X             Y             Z
Electronic contribution:     -1.30597       1.32088       0.67117
Nuclear contribution   :      2.00922      -1.23633      -0.83609
                        -----------------------------------------
Total Dipole Moment    :      0.70324       0.08455      -0.16492
                        -----------------------------------------
Magnitude (a.u.)       :      0.72725
Magnitude (Debye)      :      1.84853

Rotational constants in cm-1:     4.441063     0.801159     0.764535
Rotational constants in MHz : 133139.727561 24018.154900 22920.185758

                             ****ORCA TERMINATED NORMALLY****
TOTAL RUN TIME: 0 days 0 hours 6 minutes 8 seconds 998 msec
