                         Program Version 4.1.2  - RELEASE  -
|  1> #Run DFT-D3 single point of the dimer
|  2> ! wB97X-D3 def2-TZVP TIGHTSCF CHELPG PMODEL PAL8
|  3>
|  4> %base "9-56_DFT_AB"
|  5>
|  6> %scf
|  7> MaxIter 1000
|  8> end
|  9>
| 10> * xyz 0 1
| 11>   C                      11.104101            1.379980             -2.789674
| 12>   O                      10.501086            1.573904             -4.084412
| 13>   H                      10.985737            2.266012             -4.552232
| 14>   H                      12.067943            1.871421             -2.666359
| 15>   H                      10.426387            1.644756             -2.008202
| 16>   H                      11.529797            0.348971             -2.652523
| 17>   C                      8.271127             3.178132             -6.755067
| 18>   O                      9.593530             3.281223             -7.167820
| 19>   H                      9.967296             4.074480             -6.738436
| 20>   H                      7.716275             4.038205             -7.136075
| 21>   H                      7.796655             2.343239             -7.270622
| 22>   H                      8.064296             3.159911             -5.722429
| 23> *
| 24>
| 25> #Run DFT-D3 single point of the molecule with dimer basis set
| 26> $new_job
| 27> %base "9-56_DFT_A"
| 28> ! wB97X-D3 def2-TZVP TIGHTSCF CHELPG PMODEL
| 29>
| 30> %scf
| 31> MaxIter 1000
| 32> end
| 33>
| 34> * xyz 0 1
| 35>   C                      11.104101            1.379980             -2.789674
| 36>   O                      10.501086            1.573904             -4.084412
| 37>   H                      10.985737            2.266012             -4.552232
| 38>   H                      12.067943            1.871421             -2.666359
| 39>   H                      10.426387            1.644756             -2.008202
| 40>   H                      11.529797            0.348971             -2.652523
| 41>   C                    : 8.271127             3.178132             -6.755067
| 42>   O                    : 9.593530             3.281223             -7.167820
| 43>   H                    : 9.967296             4.074480             -6.738436
| 44>   H                    : 7.716275             4.038205             -7.136075
| 45>   H                    : 7.796655             2.343239             -7.270622
| 46>   H                    : 8.064296             3.159911             -5.722429
| 47> *
| 48>
| 49> #Run DFT-D3 single point of the particle with dimer basis set
| 50> $new_job
| 51> %base "9-56_DFT_B"
| 52> ! wB97X-D3 def2-TZVP TIGHTSCF CHELPG PMODEL
| 53>
| 54> %scf
| 55> MaxIter 1000
| 56> end
| 57>
| 58> * xyz 0 1
| 59>   C                    : 11.104101            1.379980             -2.789674
| 60>   O                    : 10.501086            1.573904             -4.084412
| 61>   H                    : 10.985737            2.266012             -4.552232
| 62>   H                    : 12.067943            1.871421             -2.666359
| 63>   H                    : 10.426387            1.644756             -2.008202
| 64>   H                    : 11.529797            0.348971             -2.652523
| 65>   C                      8.271127             3.178132             -6.755067
| 66>   O                      9.593530             3.281223             -7.167820
| 67>   H                      9.967296             4.074480             -6.738436
| 68>   H                      7.716275             4.038205             -7.136075
| 69>   H                      7.796655             2.343239             -7.270622
| 70>   H                      8.064296             3.159911             -5.722429
| 71> *
| 72>
| 73>                          ****END OF INPUT****
 Total Charge           Charge          ....    0
 Multiplicity           Mult            ....    1
 Number of Electrons    NEL             ....   36
Dispersion correction           -0.001340875
FINAL SINGLE POINT ENERGY      -231.463337459300
Dispersion correction           -0.000272351
FINAL SINGLE POINT ENERGY      -115.729374269305

CARTESIAN COORDINATES (ANGSTROEM)
---------------------------------
  C     11.104101    1.379980   -2.789674
  O     10.501086    1.573904   -4.084412
  H     10.985737    2.266012   -4.552232
  H     12.067943    1.871421   -2.666359
  H     10.426387    1.644756   -2.008202
  H     11.529797    0.348971   -2.652523
  C      8.271127    3.178132   -6.755067
  O      9.593530    3.281223   -7.167820
  H      9.967296    4.074480   -6.738436
  H      7.716275    4.038205   -7.136075
  H      7.796655    2.343239   -7.270622
  H      8.064296    3.159911   -5.722429

 Multiplicity           Mult            ....    1
 Number of Electrons    NEL             ....   18
 Basis Dimension        Dim             ....  172

ORBITAL ENERGIES
----------------

  NO   OCC          E(Eh)            E(eV)
   0   2.0000     -19.233689      -523.3753
   1   2.0000     -10.305097      -280.4159
   2   2.0000      -1.142649       -31.0931
   3   2.0000      -0.797578       -21.7032
   4   2.0000      -0.619273       -16.8513
   5   2.0000      -0.543758       -14.7964
   6   2.0000      -0.529536       -14.4094
   7   2.0000      -0.436403       -11.8751
   8   2.0000      -0.371522       -10.1096
   9   0.0000       0.085967         2.3393
  10   0.0000       0.115893         3.1536
  11   0.0000       0.154370         4.2006
  12   0.0000       0.179082         4.8731
  13   0.0000       0.195373         5.3164

MULLIKEN ATOMIC CHARGES
-----------------------
   0 C :    0.000476
   1 O :    0.000528
   2 H :   -0.005750
   3 H :   -0.000020
   4 H :   -0.000008
   5 H :   -0.000012
   6 C :   -0.167920
   7 O :   -0.468157
   8 H :    0.317210
   9 H :    0.098781
  10 H :    0.117088
  11 H :    0.107784
Sum of atomic charges:   -0.0000000

LOEWDIN ATOMIC CHARGES
----------------------
   0 C :   -0.000049
   1 O :   -0.000857
   2 H :   -0.004048
   3 H :   -0.000002
   4 H :   -0.000005
   5 H :   -0.000001
   6 C :   -0.406216
   7 O :   -0.060514
   8 H :    0.181935
   9 H :    0.094761
  10 H :    0.110347
  11 H :    0.084648

  Mayer bond orders larger than 0.1
B(  6-C ,  7-O ) :   1.0021 B(  6-C ,  9-H ) :   0.9869 B(  6-C , 10-H ) :   0.9747
B(  6-C , 11-H ) :   0.9681 B(  7-O ,  8-H ) :   0.8946

Dispersion correction           -0.000225937
FINAL SINGLE POINT ENERGY      -115.733128376799

DIPOLE MOMENT
-------------
                                X             Y             Z
Electronic contribution:      1.80519      -0.08185      -0.47878
Nuclear contribution   :     -2.09104       0.54799       0.89552
                        -----------------------------------------
Total Dipole Moment    :     -0.28585       0.46615       0.41674
                        -----------------------------------------
Magnitude (a.u.)       :      0.68751
Magnitude (Debye)      :      1.74752

Rotational constants in cm-1:     4.430432     0.857455     0.820090
Rotational constants in MHz : 132821.001953 25705.859122 24585.674890

                             ****ORCA TERMINATED NORMALLY****
TOTAL RUN TIME: 0 days 0 hours 0 minutes 45 seconds 845 msec
