                         Program Version 4.1.2  - RELEASE  -
|  1> #Run DFT-D3 single point of the dimer
|  2> ! wB97X-D3 def2-TZVP TIGHTSCF CHELPG PMODEL PAL8
|  3>
|  4> %base "7-133_DFT_AB"
|  5>
|  6> %scf
|  7> MaxIter 1000
|  8> end
|  9>
| 10> * xyz 0 1
| 11>   C                      6.456207             -9.635121            -3.002352
| 12>   O                      5.313552             -8.929165            -2.542253
| 13>   H                      4.539224             -9.296089            -2.995425
| 14>   H                      6.621316             -9.549502            -4.115482
| 15>   H                      7.368162             -9.420814            -2.398574
| 16>   H                      6.249894             -10.692458           -2.982951
| 17>   C                      2.775365             -11.059201           -4.428406
| 18>   O                      2.782174             -9.685765            -4.104138
| 19>   H                      2.214490             -9.178142            -4.698456
| 20>   H                      1.795818             -11.390671           -4.779482
| 21>   H                      3.590928             -11.242125           -5.133909
| 22>   H                      2.947330             -11.674584           -3.518488
| 23> *
| 24>
| 25> #Run DFT-D3 single point of the molecule with dimer basis set
| 26> $new_job
| 27> %base "7-133_DFT_A"
| 28> ! wB97X-D3 def2-TZVP TIGHTSCF CHELPG PMODEL
| 29>
| 30> %scf
| 31> MaxIter 1000
| 32> end
| 33>
| 34> * xyz 0 1
| 35>   C                      6.456207             -9.635121            -3.002352
| 36>   O                      5.313552             -8.929165            -2.542253
| 37>   H                      4.539224             -9.296089            -2.995425
| 38>   H                      6.621316             -9.549502            -4.115482
| 39>   H                      7.368162             -9.420814            -2.398574
| 40>   H                      6.249894             -10.692458           -2.982951
| 41>   C                    : 2.775365             -11.059201           -4.428406
| 42>   O                    : 2.782174             -9.685765            -4.104138
| 43>   H                    : 2.214490             -9.178142            -4.698456
| 44>   H                    : 1.795818             -11.390671           -4.779482
| 45>   H                    : 3.590928             -11.242125           -5.133909
| 46>   H                    : 2.947330             -11.674584           -3.518488
| 47> *
| 48>
| 49> #Run DFT-D3 single point of the particle with dimer basis set
| 50> $new_job
| 51> %base "7-133_DFT_B"
| 52> ! wB97X-D3 def2-TZVP TIGHTSCF CHELPG PMODEL
| 53>
| 54> %scf
| 55> MaxIter 1000
| 56> end
| 57>
| 58> * xyz 0 1
| 59>   C                    : 6.456207             -9.635121            -3.002352
| 60>   O                    : 5.313552             -8.929165            -2.542253
| 61>   H                    : 4.539224             -9.296089            -2.995425
| 62>   H                    : 6.621316             -9.549502            -4.115482
| 63>   H                    : 7.368162             -9.420814            -2.398574
| 64>   H                    : 6.249894             -10.692458           -2.982951
| 65>   C                      2.775365             -11.059201           -4.428406
| 66>   O                      2.782174             -9.685765            -4.104138
| 67>   H                      2.214490             -9.178142            -4.698456
| 68>   H                      1.795818             -11.390671           -4.779482
| 69>   H                      3.590928             -11.242125           -5.133909
| 70>   H                      2.947330             -11.674584           -3.518488
| 71> *
| 72>
| 73>                          ****END OF INPUT****
 Total Charge           Charge          ....    0
 Multiplicity           Mult            ....    1
 Number of Electrons    NEL             ....   36
Dispersion correction           -0.001841426
FINAL SINGLE POINT ENERGY      -231.473485761880
Dispersion correction           -0.000242611
FINAL SINGLE POINT ENERGY      -115.730893215690

CARTESIAN COORDINATES (ANGSTROEM)
---------------------------------
  C      6.456207   -9.635121   -3.002352
  O      5.313552   -8.929165   -2.542253
  H      4.539224   -9.296089   -2.995425
  H      6.621316   -9.549502   -4.115482
  H      7.368162   -9.420814   -2.398574
  H      6.249894  -10.692458   -2.982951
  C      2.775365  -11.059201   -4.428406
  O      2.782174   -9.685765   -4.104138
  H      2.214490   -9.178142   -4.698456
  H      1.795818  -11.390671   -4.779482
  H      3.590928  -11.242125   -5.133909
  H      2.947330  -11.674584   -3.518488

 Multiplicity           Mult            ....    1
 Number of Electrons    NEL             ....   18
 Basis Dimension        Dim             ....  172

ORBITAL ENERGIES
----------------

  NO   OCC          E(Eh)            E(eV)
   0   2.0000     -19.227863      -523.2168
   1   2.0000     -10.314775      -280.6793
   2   2.0000      -1.132988       -30.8302
   3   2.0000      -0.794584       -21.6217
   4   2.0000      -0.608842       -16.5674
   5   2.0000      -0.547796       -14.9063
   6   2.0000      -0.524951       -14.2846
   7   2.0000      -0.425029       -11.5656
   8   2.0000      -0.373113       -10.1529
   9   0.0000       0.094571         2.5734
  10   0.0000       0.123550         3.3620
  11   0.0000       0.152007         4.1363
  12   0.0000       0.186736         5.0813
  13   0.0000       0.189375         5.1531

MULLIKEN ATOMIC CHARGES
-----------------------
   0 C :   -0.000237
   1 O :   -0.000985
   2 H :   -0.005025
   3 H :   -0.000520
   4 H :   -0.000036
   5 H :    0.000026
   6 C :   -0.155400
   7 O :   -0.482299
   8 H :    0.314604
   9 H :    0.104547
  10 H :    0.108948
  11 H :    0.116376
Sum of atomic charges:   -0.0000000

LOEWDIN ATOMIC CHARGES
----------------------
   0 C :   -0.001116
   1 O :   -0.002953
   2 H :   -0.027954
   3 H :   -0.000158
   4 H :   -0.000020
   5 H :   -0.000180
   6 C :   -0.384972
   7 O :   -0.057769
   8 H :    0.170293
   9 H :    0.096129
  10 H :    0.097533
  11 H :    0.111166

  Mayer bond orders larger than 0.1
B(  6-C ,  7-O ) :   0.9871 B(  6-C ,  9-H ) :   0.9737 B(  6-C , 10-H ) :   0.9790
B(  6-C , 11-H ) :   0.9744 B(  7-O ,  8-H ) :   0.8947

Dispersion correction           -0.000247320
FINAL SINGLE POINT ENERGY      -115.735146835588

DIPOLE MOMENT
-------------
                                X             Y             Z
Electronic contribution:      0.06792       1.71376       0.44183
Nuclear contribution   :     -0.46589      -1.94755      -0.94676
                        -----------------------------------------
Total Dipole Moment    :     -0.39797      -0.23379      -0.50494
                        -----------------------------------------
Magnitude (a.u.)       :      0.68410
Magnitude (Debye)      :      1.73885

Rotational constants in cm-1:     4.271503     0.826768     0.805474
Rotational constants in MHz : 128056.441420 24785.866927 24147.506332

                             ****ORCA TERMINATED NORMALLY****
TOTAL RUN TIME: 0 days 0 hours 0 minutes 59 seconds 884 msec
