                         Program Version 4.1.2  - RELEASE  -
|  1> #Run DFT-D3 single point of the dimer
|  2> ! wB97X-D3 def2-TZVP TIGHTSCF CHELPG PMODEL PAL8
|  3>
|  4> %base "15-37_DFT_AB"
|  5>
|  6> %scf
|  7> MaxIter 1000
|  8> end
|  9>
| 10> * xyz 0 1
| 11>   C                      -6.215711            8.702306             -1.753921
| 12>   O                      -6.204522            7.278721             -1.947713
| 13>   H                      -7.104918            7.064609             -2.073756
| 14>   H                      -5.527617            9.106006             -0.946702
| 15>   H                      -5.940116            9.260479             -2.642426
| 16>   H                      -7.167443            9.114555             -1.494518
| 17>   C                      -5.584144            4.216774             -2.974492
| 18>   O                      -5.488972            2.817848             -2.786760
| 19>   H                      -4.762711            2.523080             -2.276914
| 20>   H                      -4.592497            4.686853             -2.957562
| 21>   H                      -6.122841            4.609606             -3.841734
| 22>   H                      -6.019252            4.673570             -2.114456
| 23> *
| 24>
| 25> #Run DFT-D3 single point of the molecule with dimer basis set
| 26> $new_job
| 27> %base "15-37_DFT_A"
| 28> ! wB97X-D3 def2-TZVP TIGHTSCF CHELPG PMODEL
| 29>
| 30> %scf
| 31> MaxIter 1000
| 32> end
| 33>
| 34> * xyz 0 1
| 35>   C                      -6.215711            8.702306             -1.753921
| 36>   O                      -6.204522            7.278721             -1.947713
| 37>   H                      -7.104918            7.064609             -2.073756
| 38>   H                      -5.527617            9.106006             -0.946702
| 39>   H                      -5.940116            9.260479             -2.642426
| 40>   H                      -7.167443            9.114555             -1.494518
| 41>   C                    : -5.584144            4.216774             -2.974492
| 42>   O                    : -5.488972            2.817848             -2.786760
| 43>   H                    : -4.762711            2.523080             -2.276914
| 44>   H                    : -4.592497            4.686853             -2.957562
| 45>   H                    : -6.122841            4.609606             -3.841734
| 46>   H                    : -6.019252            4.673570             -2.114456
| 47> *
| 48>
| 49> #Run DFT-D3 single point of the particle with dimer basis set
| 50> $new_job
| 51> %base "15-37_DFT_B"
| 52> ! wB97X-D3 def2-TZVP TIGHTSCF CHELPG PMODEL
| 53>
| 54> %scf
| 55> MaxIter 1000
| 56> end
| 57>
| 58> * xyz 0 1
| 59>   C                    : -6.215711            8.702306             -1.753921
| 60>   O                    : -6.204522            7.278721             -1.947713
| 61>   H                    : -7.104918            7.064609             -2.073756
| 62>   H                    : -5.527617            9.106006             -0.946702
| 63>   H                    : -5.940116            9.260479             -2.642426
| 64>   H                    : -7.167443            9.114555             -1.494518
| 65>   C                      -5.584144            4.216774             -2.974492
| 66>   O                      -5.488972            2.817848             -2.786760
| 67>   H                      -4.762711            2.523080             -2.276914
| 68>   H                      -4.592497            4.686853             -2.957562
| 69>   H                      -6.122841            4.609606             -3.841734
| 70>   H                      -6.019252            4.673570             -2.114456
| 71> *
| 72>
| 73>                          ****END OF INPUT****
 Total Charge           Charge          ....    0
 Multiplicity           Mult            ....    1
 Number of Electrons    NEL             ....   36
Dispersion correction           -0.001500324
FINAL SINGLE POINT ENERGY      -231.460056008473
Dispersion correction           -0.000266581
FINAL SINGLE POINT ENERGY      -115.730198826650

CARTESIAN COORDINATES (ANGSTROEM)
---------------------------------
  C     -6.215711    8.702306   -1.753921
  O     -6.204522    7.278721   -1.947713
  H     -7.104918    7.064609   -2.073756
  H     -5.527617    9.106006   -0.946702
  H     -5.940116    9.260479   -2.642426
  H     -7.167443    9.114555   -1.494518
  C     -5.584144    4.216774   -2.974492
  O     -5.488972    2.817848   -2.786760
  H     -4.762711    2.523080   -2.276914
  H     -4.592497    4.686853   -2.957562
  H     -6.122841    4.609606   -3.841734
  H     -6.019252    4.673570   -2.114456

 Multiplicity           Mult            ....    1
 Number of Electrons    NEL             ....   18
 Basis Dimension        Dim             ....  172

ORBITAL ENERGIES
----------------

  NO   OCC          E(Eh)            E(eV)
   0   2.0000     -19.225313      -523.1474
   1   2.0000     -10.312183      -280.6088
   2   2.0000      -1.135674       -30.9033
   3   2.0000      -0.805041       -21.9063
   4   2.0000      -0.620413       -16.8823
   5   2.0000      -0.538769       -14.6606
   6   2.0000      -0.530935       -14.4475
   7   2.0000      -0.425216       -11.5707
   8   2.0000      -0.370576       -10.0839
   9   0.0000       0.082718         2.2509
  10   0.0000       0.118105         3.2138
  11   0.0000       0.138990         3.7821
  12   0.0000       0.182038         4.9535
  13   0.0000       0.193833         5.2745

MULLIKEN ATOMIC CHARGES
-----------------------
   0 C :   -0.000275
   1 O :   -0.000495
   2 H :   -0.000816
   3 H :    0.000006
   4 H :    0.000004
   5 H :    0.000010
   6 C :   -0.162802
   7 O :   -0.488569
   8 H :    0.318164
   9 H :    0.100092
  10 H :    0.127998
  11 H :    0.106684
Sum of atomic charges:   -0.0000000

LOEWDIN ATOMIC CHARGES
----------------------
   0 C :   -0.000225
   1 O :   -0.004844
   2 H :   -0.002348
   3 H :   -0.000006
   4 H :   -0.000007
   5 H :   -0.000004
   6 C :   -0.379379
   7 O :   -0.066689
   8 H :    0.152631
   9 H :    0.098188
  10 H :    0.110109
  11 H :    0.092572

  Mayer bond orders larger than 0.1
B(  6-C ,  7-O ) :   0.9886 B(  6-C ,  9-H ) :   0.9839 B(  6-C , 10-H ) :   0.9664
B(  6-C , 11-H ) :   0.9802 B(  7-O ,  8-H ) :   0.8964

Dispersion correction           -0.000256573
FINAL SINGLE POINT ENERGY      -115.728205290138

DIPOLE MOMENT
-------------
                                X             Y             Z
Electronic contribution:     -0.05034      -1.90393       0.04637
Nuclear contribution   :      0.51029       2.30437       0.22937
                        -----------------------------------------
Total Dipole Moment    :      0.45995       0.40044       0.27574
                        -----------------------------------------
Magnitude (a.u.)       :      0.66928
Magnitude (Debye)      :      1.70118

Rotational constants in cm-1:     4.660790     0.816429     0.784446
Rotational constants in MHz : 139726.967151 24475.929819 23517.085270

                             ****ORCA TERMINATED NORMALLY****
TOTAL RUN TIME: 0 days 0 hours 1 minutes 3 seconds 954 msec
