                         Program Version 4.1.2  - RELEASE  -
|  1> #Run DFT-D3 single point of the dimer
|  2> ! wB97X-D3 def2-TZVP TIGHTSCF CHELPG PMODEL PAL8
|  3>
|  4> %base "3-116_DFT_AB"
|  5>
|  6> %scf
|  7> MaxIter 1000
|  8> end
|  9>
| 10> * xyz 0 1
| 11>   C                      3.223815             -1.120758            5.515775
| 12>   O                      2.667111             -0.042912            6.132013
| 13>   H                      1.858254             0.090101             5.682670
| 14>   H                      3.470362             -1.950153            6.248320
| 15>   H                      2.540332             -1.571278            4.775863
| 16>   H                      4.135189             -0.855422            5.051932
| 17>   C                      4.116040             3.646797             5.150770
| 18>   O                      5.314399             3.405780             4.517782
| 19>   H                      5.522391             4.067591             3.865315
| 20>   H                      4.059715             4.503963             5.810762
| 21>   H                      3.306977             3.937152             4.436309
| 22>   H                      3.812589             2.736741             5.676938
| 23> *
| 24>
| 25> #Run DFT-D3 single point of the molecule with dimer basis set
| 26> $new_job
| 27> %base "3-116_DFT_A"
| 28> ! wB97X-D3 def2-TZVP TIGHTSCF CHELPG PMODEL
| 29>
| 30> %scf
| 31> MaxIter 1000
| 32> end
| 33>
| 34> * xyz 0 1
| 35>   C                      3.223815             -1.120758            5.515775
| 36>   O                      2.667111             -0.042912            6.132013
| 37>   H                      1.858254             0.090101             5.682670
| 38>   H                      3.470362             -1.950153            6.248320
| 39>   H                      2.540332             -1.571278            4.775863
| 40>   H                      4.135189             -0.855422            5.051932
| 41>   C                    : 4.116040             3.646797             5.150770
| 42>   O                    : 5.314399             3.405780             4.517782
| 43>   H                    : 5.522391             4.067591             3.865315
| 44>   H                    : 4.059715             4.503963             5.810762
| 45>   H                    : 3.306977             3.937152             4.436309
| 46>   H                    : 3.812589             2.736741             5.676938
| 47> *
| 48>
| 49> #Run DFT-D3 single point of the particle with dimer basis set
| 50> $new_job
| 51> %base "3-116_DFT_B"
| 52> ! wB97X-D3 def2-TZVP TIGHTSCF CHELPG PMODEL
| 53>
| 54> %scf
| 55> MaxIter 1000
| 56> end
| 57>
| 58> * xyz 0 1
| 59>   C                    : 3.223815             -1.120758            5.515775
| 60>   O                    : 2.667111             -0.042912            6.132013
| 61>   H                    : 1.858254             0.090101             5.682670
| 62>   H                    : 3.470362             -1.950153            6.248320
| 63>   H                    : 2.540332             -1.571278            4.775863
| 64>   H                    : 4.135189             -0.855422            5.051932
| 65>   C                      4.116040             3.646797             5.150770
| 66>   O                      5.314399             3.405780             4.517782
| 67>   H                      5.522391             4.067591             3.865315
| 68>   H                      4.059715             4.503963             5.810762
| 69>   H                      3.306977             3.937152             4.436309
| 70>   H                      3.812589             2.736741             5.676938
| 71> *
| 72>
| 73>                          ****END OF INPUT****
 Total Charge           Charge          ....    0
 Multiplicity           Mult            ....    1
 Number of Electrons    NEL             ....   36
Dispersion correction           -0.001097502
FINAL SINGLE POINT ENERGY      -231.465062838475
Dispersion correction           -0.000219620
FINAL SINGLE POINT ENERGY      -115.730642266631

CARTESIAN COORDINATES (ANGSTROEM)
---------------------------------
  C      3.223815   -1.120758    5.515775
  O      2.667111   -0.042912    6.132013
  H      1.858254    0.090101    5.682670
  H      3.470362   -1.950153    6.248320
  H      2.540332   -1.571278    4.775863
  H      4.135189   -0.855422    5.051932
  C      4.116040    3.646797    5.150770
  O      5.314399    3.405780    4.517782
  H      5.522391    4.067591    3.865315
  H      4.059715    4.503963    5.810762
  H      3.306977    3.937152    4.436309
  H      3.812589    2.736741    5.676938

 Multiplicity           Mult            ....    1
 Number of Electrons    NEL             ....   18
 Basis Dimension        Dim             ....  172

ORBITAL ENERGIES
----------------

  NO   OCC          E(Eh)            E(eV)
   0   2.0000     -19.230674      -523.2932
   1   2.0000     -10.311699      -280.5956
   2   2.0000      -1.148105       -31.2415
   3   2.0000      -0.797649       -21.7051
   4   2.0000      -0.627558       -17.0767
   5   2.0000      -0.535680       -14.5766
   6   2.0000      -0.531722       -14.4689
   7   2.0000      -0.432535       -11.7699
   8   2.0000      -0.369101       -10.0437
   9   0.0000       0.088428         2.4062
  10   0.0000       0.117250         3.1905
  11   0.0000       0.149302         4.0627
  12   0.0000       0.177358         4.8262
  13   0.0000       0.184845         5.0299

MULLIKEN ATOMIC CHARGES
-----------------------
   0 C :   -0.000019
   1 O :   -0.000012
   2 H :   -0.000228
   3 H :    0.000014
   4 H :    0.000004
   5 H :   -0.000016
   6 C :   -0.151839
   7 O :   -0.470196
   8 H :    0.316166
   9 H :    0.094149
  10 H :    0.089367
  11 H :    0.122611
Sum of atomic charges:   -0.0000000

LOEWDIN ATOMIC CHARGES
----------------------
   0 C :   -0.000284
   1 O :   -0.000989
   2 H :   -0.000334
   3 H :   -0.000003
   4 H :   -0.000004
   5 H :   -0.000068
   6 C :   -0.416824
   7 O :   -0.042463
   8 H :    0.166212
   9 H :    0.088179
  10 H :    0.096128
  11 H :    0.110450

  Mayer bond orders larger than 0.1
B(  6-C ,  7-O ) :   1.0105 B(  6-C ,  9-H ) :   0.9676 B(  6-C , 10-H ) :   0.9821
B(  6-C , 11-H ) :   0.9740 B(  7-O ,  8-H ) :   0.8961

Dispersion correction           -0.000245258
FINAL SINGLE POINT ENERGY      -115.733257232383

DIPOLE MOMENT
-------------
                                X             Y             Z
Electronic contribution:      1.72626      -0.46357      -0.70963
Nuclear contribution   :     -2.04190       0.98937       0.51439
                        -----------------------------------------
Total Dipole Moment    :     -0.31564       0.52580      -0.19524
                        -----------------------------------------
Magnitude (a.u.)       :      0.64360
Magnitude (Debye)      :      1.63589

Rotational constants in cm-1:     4.428438     0.860872     0.819211
Rotational constants in MHz : 132761.228129 25808.282488 24559.325845

                             ****ORCA TERMINATED NORMALLY****
TOTAL RUN TIME: 0 days 0 hours 6 minutes 25 seconds 49 msec
