                         Program Version 4.1.2  - RELEASE  -
|  1> #Run DFT-D3 single point of the dimer
|  2> ! wB97X-D3 def2-TZVP TIGHTSCF CHELPG PMODEL PAL8
|  3>
|  4> %base "10-179_DFT_AB"
|  5>
|  6> %scf
|  7> MaxIter 1000
|  8> end
|  9>
| 10> * xyz 0 1
| 11>   C                      -4.577922            7.549913             -6.259814
| 12>   O                      -5.822441            8.040496             -5.765704
| 13>   H                      -6.112907            8.734380             -6.371668
| 14>   H                      -3.982501            6.991980             -5.461943
| 15>   H                      -4.767267            6.902026             -7.134338
| 16>   H                      -3.949636            8.337608             -6.698863
| 17>   C                      -8.880556            9.734789             -3.716481
| 18>   O                      -8.486434            8.886818             -4.747538
| 19>   H                      -7.776537            9.345748             -5.179232
| 20>   H                      -8.133950            9.561247             -2.956723
| 21>   H                      -8.948586            10.842258            -3.961599
| 22>   H                      -9.782943            9.514472             -3.203322
| 23> *
| 24>
| 25> #Run DFT-D3 single point of the molecule with dimer basis set
| 26> $new_job
| 27> %base "10-179_DFT_A"
| 28> ! wB97X-D3 def2-TZVP TIGHTSCF CHELPG PMODEL
| 29>
| 30> %scf
| 31> MaxIter 1000
| 32> end
| 33>
| 34> * xyz 0 1
| 35>   C                      -4.577922            7.549913             -6.259814
| 36>   O                      -5.822441            8.040496             -5.765704
| 37>   H                      -6.112907            8.734380             -6.371668
| 38>   H                      -3.982501            6.991980             -5.461943
| 39>   H                      -4.767267            6.902026             -7.134338
| 40>   H                      -3.949636            8.337608             -6.698863
| 41>   C                    : -8.880556            9.734789             -3.716481
| 42>   O                    : -8.486434            8.886818             -4.747538
| 43>   H                    : -7.776537            9.345748             -5.179232
| 44>   H                    : -8.133950            9.561247             -2.956723
| 45>   H                    : -8.948586            10.842258            -3.961599
| 46>   H                    : -9.782943            9.514472             -3.203322
| 47> *
| 48>
| 49> #Run DFT-D3 single point of the particle with dimer basis set
| 50> $new_job
| 51> %base "10-179_DFT_B"
| 52> ! wB97X-D3 def2-TZVP TIGHTSCF CHELPG PMODEL
| 53>
| 54> %scf
| 55> MaxIter 1000
| 56> end
| 57>
| 58> * xyz 0 1
| 59>   C                    : -4.577922            7.549913             -6.259814
| 60>   O                    : -5.822441            8.040496             -5.765704
| 61>   H                    : -6.112907            8.734380             -6.371668
| 62>   H                    : -3.982501            6.991980             -5.461943
| 63>   H                    : -4.767267            6.902026             -7.134338
| 64>   H                    : -3.949636            8.337608             -6.698863
| 65>   C                      -8.880556            9.734789             -3.716481
| 66>   O                      -8.486434            8.886818             -4.747538
| 67>   H                      -7.776537            9.345748             -5.179232
| 68>   H                      -8.133950            9.561247             -2.956723
| 69>   H                      -8.948586            10.842258            -3.961599
| 70>   H                      -9.782943            9.514472             -3.203322
| 71> *
| 72>
| 73>                          ****END OF INPUT****
 Total Charge           Charge          ....    0
 Multiplicity           Mult            ....    1
 Number of Electrons    NEL             ....   36
Dispersion correction           -0.001283357
FINAL SINGLE POINT ENERGY      -231.457649925716
Dispersion correction           -0.000248812
FINAL SINGLE POINT ENERGY      -115.733124784382

CARTESIAN COORDINATES (ANGSTROEM)
---------------------------------
  C     -4.577922    7.549913   -6.259814
  O     -5.822441    8.040496   -5.765704
  H     -6.112907    8.734380   -6.371668
  H     -3.982501    6.991980   -5.461943
  H     -4.767267    6.902026   -7.134338
  H     -3.949636    8.337608   -6.698863
  C     -8.880556    9.734789   -3.716481
  O     -8.486434    8.886818   -4.747538
  H     -7.776537    9.345748   -5.179232
  H     -8.133950    9.561247   -2.956723
  H     -8.948586   10.842258   -3.961599
  H     -9.782943    9.514472   -3.203322

 Multiplicity           Mult            ....    1
 Number of Electrons    NEL             ....   18
 Basis Dimension        Dim             ....  172

ORBITAL ENERGIES
----------------

  NO   OCC          E(Eh)            E(eV)
   0   2.0000     -19.231568      -523.3176
   1   2.0000     -10.310710      -280.5687
   2   2.0000      -1.149024       -31.2665
   3   2.0000      -0.797244       -21.6941
   4   2.0000      -0.613337       -16.6897
   5   2.0000      -0.547060       -14.8863
   6   2.0000      -0.537233       -14.6188
   7   2.0000      -0.433230       -11.7888
   8   2.0000      -0.370332       -10.0772
   9   0.0000       0.081195         2.2094
  10   0.0000       0.120593         3.2815
  11   0.0000       0.149427         4.0661
  12   0.0000       0.185784         5.0554
  13   0.0000       0.197153         5.3648

MULLIKEN ATOMIC CHARGES
-----------------------
   0 C :   -0.001282
   1 O :   -0.003571
   2 H :   -0.000532
   3 H :    0.000045
   4 H :    0.000055
   5 H :    0.000015
   6 C :   -0.185599
   7 O :   -0.457334
   8 H :    0.320541
   9 H :    0.106324
  10 H :    0.100356
  11 H :    0.120981
Sum of atomic charges:    0.0000000

LOEWDIN ATOMIC CHARGES
----------------------
   0 C :   -0.000502
   1 O :   -0.008193
   2 H :   -0.004250
   3 H :   -0.000012
   4 H :   -0.000011
   5 H :   -0.000012
   6 C :   -0.407347
   7 O :   -0.047819
   8 H :    0.170879
   9 H :    0.095274
  10 H :    0.102404
  11 H :    0.099590

  Mayer bond orders larger than 0.1
B(  6-C ,  7-O ) :   0.9991 B(  6-C ,  9-H ) :   0.9901 B(  6-C , 10-H ) :   0.9748
B(  6-C , 11-H ) :   0.9701 B(  7-O ,  8-H ) :   0.8984

Dispersion correction           -0.000226195
FINAL SINGLE POINT ENERGY      -115.727742534465

DIPOLE MOMENT
-------------
                                X             Y             Z
Electronic contribution:      0.28780      -1.25393      -1.42541
Nuclear contribution   :     -0.01411       1.84866       1.56782
                        -----------------------------------------
Total Dipole Moment    :      0.27369       0.59473       0.14241
                        -----------------------------------------
Magnitude (a.u.)       :      0.66999
Magnitude (Debye)      :      1.70299

Rotational constants in cm-1:     4.429948     0.849370     0.819529
Rotational constants in MHz : 132806.513775 25463.465928 24568.850157

                             ****ORCA TERMINATED NORMALLY****
TOTAL RUN TIME: 0 days 0 hours 1 minutes 3 seconds 823 msec
