                         Program Version 4.1.2  - RELEASE  -
|  1> #Run DFT-D3 single point of the dimer
|  2> ! wB97X-D3 def2-TZVP TIGHTSCF CHELPG PMODEL PAL8
|  3>
|  4> %base "14-155_DFT_AB"
|  5>
|  6> %scf
|  7> MaxIter 1000
|  8> end
|  9>
| 10> * xyz 0 1
| 11>   C                      8.290622             5.239301             -9.015405
| 12>   O                      7.716649             6.173702             -8.101895
| 13>   H                      8.239089             5.969744             -7.352667
| 14>   H                      7.967459             4.219938             -8.846703
| 15>   H                      7.958367             5.425387             -10.042128
| 16>   H                      9.361778             5.266100             -8.805668
| 17>   C                      6.448558             8.923142             -6.774408
| 18>   O                      5.891192             8.446443             -7.965608
| 19>   H                      6.491010             7.771757             -8.353558
| 20>   H                      5.574214             9.168510             -6.101320
| 21>   H                      7.129576             8.252852             -6.263764
| 22>   H                      6.983048             9.888802             -7.045598
| 23> *
| 24>
| 25> #Run DFT-D3 single point of the molecule with dimer basis set
| 26> $new_job
| 27> %base "14-155_DFT_A"
| 28> ! wB97X-D3 def2-TZVP TIGHTSCF CHELPG PMODEL
| 29>
| 30> %scf
| 31> MaxIter 1000
| 32> end
| 33>
| 34> * xyz 0 1
| 35>   C                      8.290622             5.239301             -9.015405
| 36>   O                      7.716649             6.173702             -8.101895
| 37>   H                      8.239089             5.969744             -7.352667
| 38>   H                      7.967459             4.219938             -8.846703
| 39>   H                      7.958367             5.425387             -10.042128
| 40>   H                      9.361778             5.266100             -8.805668
| 41>   C                    : 6.448558             8.923142             -6.774408
| 42>   O                    : 5.891192             8.446443             -7.965608
| 43>   H                    : 6.491010             7.771757             -8.353558
| 44>   H                    : 5.574214             9.168510             -6.101320
| 45>   H                    : 7.129576             8.252852             -6.263764
| 46>   H                    : 6.983048             9.888802             -7.045598
| 47> *
| 48>
| 49> #Run DFT-D3 single point of the particle with dimer basis set
| 50> $new_job
| 51> %base "14-155_DFT_B"
| 52> ! wB97X-D3 def2-TZVP TIGHTSCF CHELPG PMODEL
| 53>
| 54> %scf
| 55> MaxIter 1000
| 56> end
| 57>
| 58> * xyz 0 1
| 59>   C                    : 8.290622             5.239301             -9.015405
| 60>   O                    : 7.716649             6.173702             -8.101895
| 61>   H                    : 8.239089             5.969744             -7.352667
| 62>   H                    : 7.967459             4.219938             -8.846703
| 63>   H                    : 7.958367             5.425387             -10.042128
| 64>   H                    : 9.361778             5.266100             -8.805668
| 65>   C                      6.448558             8.923142             -6.774408
| 66>   O                      5.891192             8.446443             -7.965608
| 67>   H                      6.491010             7.771757             -8.353558
| 68>   H                      5.574214             9.168510             -6.101320
| 69>   H                      7.129576             8.252852             -6.263764
| 70>   H                      6.983048             9.888802             -7.045598
| 71> *
| 72>
| 73>                          ****END OF INPUT****
 Total Charge           Charge          ....    0
 Multiplicity           Mult            ....    1
 Number of Electrons    NEL             ....   36
Dispersion correction           -0.001684311
FINAL SINGLE POINT ENERGY      -231.469055068296
Dispersion correction           -0.000210599
FINAL SINGLE POINT ENERGY      -115.729297806296

CARTESIAN COORDINATES (ANGSTROEM)
---------------------------------
  C      8.290622    5.239301   -9.015405
  O      7.716649    6.173702   -8.101895
  H      8.239089    5.969744   -7.352667
  H      7.967459    4.219938   -8.846703
  H      7.958367    5.425387  -10.042128
  H      9.361778    5.266100   -8.805668
  C      6.448558    8.923142   -6.774408
  O      5.891192    8.446443   -7.965608
  H      6.491010    7.771757   -8.353558
  H      5.574214    9.168510   -6.101320
  H      7.129576    8.252852   -6.263764
  H      6.983048    9.888802   -7.045598

 Multiplicity           Mult            ....    1
 Number of Electrons    NEL             ....   18
 Basis Dimension        Dim             ....  172

ORBITAL ENERGIES
----------------

  NO   OCC          E(Eh)            E(eV)
   0   2.0000     -19.231233      -523.3085
   1   2.0000     -10.317776      -280.7610
   2   2.0000      -1.136526       -30.9264
   3   2.0000      -0.786953       -21.4141
   4   2.0000      -0.613629       -16.6977
   5   2.0000      -0.537995       -14.6396
   6   2.0000      -0.521362       -14.1870
   7   2.0000      -0.435080       -11.8391
   8   2.0000      -0.367387        -9.9971
   9   0.0000       0.068625         1.8674
  10   0.0000       0.127700         3.4749
  11   0.0000       0.146692         3.9917
  12   0.0000       0.167266         4.5515
  13   0.0000       0.193641         5.2692

MULLIKEN ATOMIC CHARGES
-----------------------
   0 C :   -0.002501
   1 O :   -0.005618
   2 H :    0.000287
   3 H :    0.000081
   4 H :    0.000059
   5 H :    0.000069
   6 C :   -0.165556
   7 O :   -0.467472
   8 H :    0.318022
   9 H :    0.113885
  10 H :    0.109110
  11 H :    0.099633
Sum of atomic charges:    0.0000000

LOEWDIN ATOMIC CHARGES
----------------------
   0 C :   -0.001955
   1 O :   -0.017773
   2 H :   -0.001493
   3 H :   -0.000042
   4 H :   -0.000162
   5 H :   -0.000041
   6 C :   -0.403903
   7 O :   -0.070112
   8 H :    0.187955
   9 H :    0.113070
  10 H :    0.091341
  11 H :    0.103115

  Mayer bond orders larger than 0.1
B(  6-C ,  7-O ) :   0.9938 B(  6-C ,  9-H ) :   0.9732 B(  6-C , 10-H ) :   0.9692
B(  6-C , 11-H ) :   0.9817 B(  7-O ,  8-H ) :   0.8997

Dispersion correction           -0.000246916
FINAL SINGLE POINT ENERGY      -115.732682594134

DIPOLE MOMENT
-------------
                                X             Y             Z
Electronic contribution:     -0.76962      -0.66387      -1.46645
Nuclear contribution   :      1.35469       0.38918       1.67683
                        -----------------------------------------
Total Dipole Moment    :      0.58507      -0.27469       0.21038
                        -----------------------------------------
Magnitude (a.u.)       :      0.67972
Magnitude (Debye)      :      1.72771

Rotational constants in cm-1:     4.070861     0.844797     0.814787
Rotational constants in MHz : 122041.349731 25326.379497 24426.687026

                             ****ORCA TERMINATED NORMALLY****
TOTAL RUN TIME: 0 days 0 hours 1 minutes 6 seconds 986 msec
