                         Program Version 4.1.2  - RELEASE  -
|  1> #Run DFT-D3 single point of the dimer
|  2> ! wB97X-D3 def2-TZVP TIGHTSCF CHELPG PMODEL PAL8
|  3>
|  4> %base "10-90_DFT_AB"
|  5>
|  6> %scf
|  7> MaxIter 1000
|  8> end
|  9>
| 10> * xyz 0 1
| 11>   C                      0.325050             3.682876             4.670970
| 12>   O                      -0.846528            4.166738             4.035653
| 13>   H                      -1.548622            4.059657             4.702336
| 14>   H                      0.917244             3.089913             4.008710
| 15>   H                      1.078371             4.362851             4.962118
| 16>   H                      0.047949             3.124406             5.575140
| 17>   C                      1.311991             8.258281             3.248429
| 18>   O                      0.436384             8.338334             4.328784
| 19>   H                      -0.298761            8.938756             4.145385
| 20>   H                      2.209316             7.776873             3.545253
| 21>   H                      0.941491             7.711517             2.293017
| 22>   H                      1.692251             9.258311             2.986769
| 23> *
| 24>
| 25> #Run DFT-D3 single point of the molecule with dimer basis set
| 26> $new_job
| 27> %base "10-90_DFT_A"
| 28> ! wB97X-D3 def2-TZVP TIGHTSCF CHELPG PMODEL
| 29>
| 30> %scf
| 31> MaxIter 1000
| 32> end
| 33>
| 34> * xyz 0 1
| 35>   C                      0.325050             3.682876             4.670970
| 36>   O                      -0.846528            4.166738             4.035653
| 37>   H                      -1.548622            4.059657             4.702336
| 38>   H                      0.917244             3.089913             4.008710
| 39>   H                      1.078371             4.362851             4.962118
| 40>   H                      0.047949             3.124406             5.575140
| 41>   C                    : 1.311991             8.258281             3.248429
| 42>   O                    : 0.436384             8.338334             4.328784
| 43>   H                    : -0.298761            8.938756             4.145385
| 44>   H                    : 2.209316             7.776873             3.545253
| 45>   H                    : 0.941491             7.711517             2.293017
| 46>   H                    : 1.692251             9.258311             2.986769
| 47> *
| 48>
| 49> #Run DFT-D3 single point of the particle with dimer basis set
| 50> $new_job
| 51> %base "10-90_DFT_B"
| 52> ! wB97X-D3 def2-TZVP TIGHTSCF CHELPG PMODEL
| 53>
| 54> %scf
| 55> MaxIter 1000
| 56> end
| 57>
| 58> * xyz 0 1
| 59>   C                    : 0.325050             3.682876             4.670970
| 60>   O                    : -0.846528            4.166738             4.035653
| 61>   H                    : -1.548622            4.059657             4.702336
| 62>   H                    : 0.917244             3.089913             4.008710
| 63>   H                    : 1.078371             4.362851             4.962118
| 64>   H                    : 0.047949             3.124406             5.575140
| 65>   C                      1.311991             8.258281             3.248429
| 66>   O                      0.436384             8.338334             4.328784
| 67>   H                      -0.298761            8.938756             4.145385
| 68>   H                      2.209316             7.776873             3.545253
| 69>   H                      0.941491             7.711517             2.293017
| 70>   H                      1.692251             9.258311             2.986769
| 71> *
| 72>
| 73>                          ****END OF INPUT****
 Total Charge           Charge          ....    0
 Multiplicity           Mult            ....    1
 Number of Electrons    NEL             ....   36
Dispersion correction           -0.000955013
FINAL SINGLE POINT ENERGY      -231.460638405553
Dispersion correction           -0.000247701
FINAL SINGLE POINT ENERGY      -115.728527974812

CARTESIAN COORDINATES (ANGSTROEM)
---------------------------------
  C      0.325050    3.682876    4.670970
  O     -0.846528    4.166738    4.035653
  H     -1.548622    4.059657    4.702336
  H      0.917244    3.089913    4.008710
  H      1.078371    4.362851    4.962118
  H      0.047949    3.124406    5.575140
  C      1.311991    8.258281    3.248429
  O      0.436384    8.338334    4.328784
  H     -0.298761    8.938756    4.145385
  H      2.209316    7.776873    3.545253
  H      0.941491    7.711517    2.293017
  H      1.692251    9.258311    2.986769

 Multiplicity           Mult            ....    1
 Number of Electrons    NEL             ....   18
 Basis Dimension        Dim             ....  172

ORBITAL ENERGIES
----------------

  NO   OCC          E(Eh)            E(eV)
   0   2.0000     -19.233299      -523.3647
   1   2.0000     -10.315249      -280.6922
   2   2.0000      -1.141006       -31.0483
   3   2.0000      -0.795930       -21.6584
   4   2.0000      -0.612941       -16.6790
   5   2.0000      -0.538906       -14.6644
   6   2.0000      -0.532505       -14.4902
   7   2.0000      -0.425220       -11.5708
   8   2.0000      -0.374476       -10.1900
   9   0.0000       0.092438         2.5154
  10   0.0000       0.117992         3.2107
  11   0.0000       0.148701         4.0464
  12   0.0000       0.169870         4.6224
  13   0.0000       0.195254         5.3131

MULLIKEN ATOMIC CHARGES
-----------------------
   0 C :   -0.000163
   1 O :   -0.000052
   2 H :   -0.000014
   3 H :   -0.000024
   4 H :   -0.000242
   5 H :    0.000028
   6 C :   -0.153005
   7 O :   -0.471320
   8 H :    0.318787
   9 H :    0.120882
  10 H :    0.090602
  11 H :    0.094520
Sum of atomic charges:   -0.0000000

LOEWDIN ATOMIC CHARGES
----------------------
   0 C :   -0.000285
   1 O :   -0.000086
   2 H :   -0.000035
   3 H :   -0.000005
   4 H :   -0.000142
   5 H :   -0.000001
   6 C :   -0.411063
   7 O :   -0.061311
   8 H :    0.174396
   9 H :    0.100671
  10 H :    0.103002
  11 H :    0.094859

  Mayer bond orders larger than 0.1
B(  6-C ,  7-O ) :   1.0095 B(  6-C ,  9-H ) :   0.9739 B(  6-C , 10-H ) :   0.9667
B(  6-C , 11-H ) :   0.9813 B(  7-O ,  8-H ) :   0.8938

Dispersion correction           -0.000265562
FINAL SINGLE POINT ENERGY      -115.731935437746

DIPOLE MOMENT
-------------
                                X             Y             Z
Electronic contribution:     -1.15694      -0.01440       1.53996
Nuclear contribution   :      1.05744       0.38528      -2.03544
                        -----------------------------------------
Total Dipole Moment    :     -0.09949       0.37088      -0.49548
                        -----------------------------------------
Magnitude (a.u.)       :      0.62685
Magnitude (Debye)      :      1.59333

Rotational constants in cm-1:     4.342513     0.829107     0.812939
Rotational constants in MHz : 130185.254929 24855.988414 24371.296495

                             ****ORCA TERMINATED NORMALLY****
TOTAL RUN TIME: 0 days 0 hours 0 minutes 59 seconds 955 msec
