                         Program Version 4.1.2  - RELEASE  -
|  1> #Run DFT-D3 single point of the dimer
|  2> ! wB97X-D3 def2-TZVP TIGHTSCF  CHELPG PAL8
|  3>
|  4> %base "30_charges"
|  5>
|  6> %scf
|  7> MaxIter 1000
|  8> end
|  9> %output
| 10>   Print[ P_Mayer ] 1
| 11>   Print[ P_NatPop ] 1
| 12>   Print[ P_Hirshfeld ] 1
| 13>   Print[ P_Mulliken ] 1
| 14>   Print [ P_Loewdin ] 1
| 15> end
| 16>
| 17> * xyz 0 1
| 18>   C                      3.609837             -10.826653           11.087598
| 19>   O                      3.157080             -12.111311           11.097318
| 20>   H                      3.187343             -12.402847           12.000170
| 21>   H                      4.500464             -10.681519           11.675987
| 22>   H                      3.786115             -10.451996           10.156052
| 23>   H                      2.974836             -10.110700           11.640589
| 24> *
| 25>
| 26>                          ****END OF INPUT****

CARTESIAN COORDINATES (ANGSTROEM)
---------------------------------
  C      3.609837  -10.826653   11.087598
  O      3.157080  -12.111311   11.097318
  H      3.187343  -12.402847   12.000170
  H      4.500464  -10.681519   11.675987
  H      3.786115  -10.451996   10.156052
  H      2.974836  -10.110700   11.640589

 Total Charge           Charge          ....    0
 Multiplicity           Mult            ....    1
 Number of Electrons    NEL             ....   18
 Basis Dimension        Dim             ....   86

ORBITAL ENERGIES
----------------

  NO   OCC          E(Eh)            E(eV)
   0   2.0000     -19.231872      -523.3258
   1   2.0000     -10.300180      -280.2822
   2   2.0000      -1.157433       -31.4954
   3   2.0000      -0.803496       -21.8642
   4   2.0000      -0.630783       -17.1645
   5   2.0000      -0.547982       -14.9114
   6   2.0000      -0.533957       -14.5297
   7   2.0000      -0.442685       -12.0461
   8   2.0000      -0.366491        -9.9727
   9   0.0000       0.115239         3.1358
  10   0.0000       0.159168         4.3312
  11   0.0000       0.207534         5.6473
  12   0.0000       0.213510         5.8099
  13   0.0000       0.237980         6.4758

MULLIKEN ATOMIC CHARGES
-----------------------
   0 C :   -0.152896
   1 O :   -0.457926
   2 H :    0.316448
   3 H :    0.091429
   4 H :    0.121203
   5 H :    0.081743
Sum of atomic charges:   -0.0000000

LOEWDIN ATOMIC CHARGES
----------------------
   0 C :   -0.418987
   1 O :   -0.026870
   2 H :    0.170753
   3 H :    0.091073
   4 H :    0.090342
   5 H :    0.093689

  Mayer bond orders larger than 0.1
B(  0-C ,  1-O ) :   1.0100 B(  0-C ,  3-H ) :   0.9836 B(  0-C ,  4-H ) :   0.9767
B(  0-C ,  5-H ) :   0.9762 B(  1-O ,  2-H ) :   0.8997

Dispersion correction           -0.000211010
FINAL SINGLE POINT ENERGY      -115.727660151436

DIPOLE MOMENT
-------------
                                X             Y             Z
Electronic contribution:     -0.64448      -1.83788      -0.33416
Nuclear contribution   :      0.85273       2.11860       0.90185
                        -----------------------------------------
Total Dipole Moment    :      0.20824       0.28072       0.56768
                        -----------------------------------------
Magnitude (a.u.)       :      0.66666
Magnitude (Debye)      :      1.69451

Rotational constants in cm-1:     4.626573     0.884930     0.843053
Rotational constants in MHz : 138701.160766 26529.541061 25274.103658

                             ****ORCA TERMINATED NORMALLY****
TOTAL RUN TIME: 0 days 0 hours 0 minutes 41 seconds 773 msec
