                         Program Version 4.1.2  - RELEASE  -
|  1> #Run DFT-D3 single point of the dimer
|  2> ! wB97X-D3 def2-TZVP TIGHTSCF CHELPG PMODEL PAL8
|  3>
|  4> %base "21-135_DFT_AB"
|  5>
|  6> %scf
|  7> MaxIter 1000
|  8> end
|  9>
| 10> * xyz 0 1
| 11>   C                      10.289126            -2.634421            -1.941004
| 12>   O                      9.433432             -3.716244            -2.341455
| 13>   H                      9.747974             -4.128017            -3.118309
| 14>   H                      10.432611            -1.866400            -2.787029
| 15>   H                      9.803779             -2.111440            -1.050015
| 16>   H                      11.290492            -3.035278            -1.606334
| 17>   C                      6.810272             -5.639102            -2.893015
| 18>   O                      7.400597             -6.879874            -2.672565
| 19>   H                      8.240190             -6.888730            -2.212595
| 20>   H                      6.553186             -5.246679            -1.891201
| 21>   H                      7.419295             -4.864427            -3.395195
| 22>   H                      5.896662             -5.592998            -3.515592
| 23> *
| 24>
| 25> #Run DFT-D3 single point of the molecule with dimer basis set
| 26> $new_job
| 27> %base "21-135_DFT_A"
| 28> ! wB97X-D3 def2-TZVP TIGHTSCF CHELPG PMODEL
| 29>
| 30> %scf
| 31> MaxIter 1000
| 32> end
| 33>
| 34> * xyz 0 1
| 35>   C                      10.289126            -2.634421            -1.941004
| 36>   O                      9.433432             -3.716244            -2.341455
| 37>   H                      9.747974             -4.128017            -3.118309
| 38>   H                      10.432611            -1.866400            -2.787029
| 39>   H                      9.803779             -2.111440            -1.050015
| 40>   H                      11.290492            -3.035278            -1.606334
| 41>   C                    : 6.810272             -5.639102            -2.893015
| 42>   O                    : 7.400597             -6.879874            -2.672565
| 43>   H                    : 8.240190             -6.888730            -2.212595
| 44>   H                    : 6.553186             -5.246679            -1.891201
| 45>   H                    : 7.419295             -4.864427            -3.395195
| 46>   H                    : 5.896662             -5.592998            -3.515592
| 47> *
| 48>
| 49> #Run DFT-D3 single point of the particle with dimer basis set
| 50> $new_job
| 51> %base "21-135_DFT_B"
| 52> ! wB97X-D3 def2-TZVP TIGHTSCF CHELPG PMODEL
| 53>
| 54> %scf
| 55> MaxIter 1000
| 56> end
| 57>
| 58> * xyz 0 1
| 59>   C                    : 10.289126            -2.634421            -1.941004
| 60>   O                    : 9.433432             -3.716244            -2.341455
| 61>   H                    : 9.747974             -4.128017            -3.118309
| 62>   H                    : 10.432611            -1.866400            -2.787029
| 63>   H                    : 9.803779             -2.111440            -1.050015
| 64>   H                    : 11.290492            -3.035278            -1.606334
| 65>   C                      6.810272             -5.639102            -2.893015
| 66>   O                      7.400597             -6.879874            -2.672565
| 67>   H                      8.240190             -6.888730            -2.212595
| 68>   H                      6.553186             -5.246679            -1.891201
| 69>   H                      7.419295             -4.864427            -3.395195
| 70>   H                      5.896662             -5.592998            -3.515592
| 71> *
| 72>
| 73>                          ****END OF INPUT****
 Total Charge           Charge          ....    0
 Multiplicity           Mult            ....    1
 Number of Electrons    NEL             ....   36
Dispersion correction           -0.001637407
FINAL SINGLE POINT ENERGY      -231.462293151647
Dispersion correction           -0.000273729
FINAL SINGLE POINT ENERGY      -115.732612940315

CARTESIAN COORDINATES (ANGSTROEM)
---------------------------------
  C     10.289126   -2.634421   -1.941004
  O      9.433432   -3.716244   -2.341455
  H      9.747974   -4.128017   -3.118309
  H     10.432611   -1.866400   -2.787029
  H      9.803779   -2.111440   -1.050015
  H     11.290492   -3.035278   -1.606334
  C      6.810272   -5.639102   -2.893015
  O      7.400597   -6.879874   -2.672565
  H      8.240190   -6.888730   -2.212595
  H      6.553186   -5.246679   -1.891201
  H      7.419295   -4.864427   -3.395195
  H      5.896662   -5.592998   -3.515592

 Multiplicity           Mult            ....    1
 Number of Electrons    NEL             ....   18
 Basis Dimension        Dim             ....  172

ORBITAL ENERGIES
----------------

  NO   OCC          E(Eh)            E(eV)
   0   2.0000     -19.228699      -523.2395
   1   2.0000     -10.316802      -280.7345
   2   2.0000      -1.138887       -30.9907
   3   2.0000      -0.798353       -21.7243
   4   2.0000      -0.619759       -16.8645
   5   2.0000      -0.544956       -14.8290
   6   2.0000      -0.526665       -14.3313
   7   2.0000      -0.417307       -11.3555
   8   2.0000      -0.370169       -10.0728
   9   0.0000       0.078678         2.1409
  10   0.0000       0.118224         3.2170
  11   0.0000       0.146874         3.9966
  12   0.0000       0.170200         4.6314
  13   0.0000       0.193917         5.2767

MULLIKEN ATOMIC CHARGES
-----------------------
   0 C :   -0.000354
   1 O :    0.000802
   2 H :    0.000803
   3 H :    0.000017
   4 H :   -0.000031
   5 H :    0.000009
   6 C :   -0.149369
   7 O :   -0.487866
   8 H :    0.324678
   9 H :    0.093681
  10 H :    0.093939
  11 H :    0.123693
Sum of atomic charges:   -0.0000000

LOEWDIN ATOMIC CHARGES
----------------------
   0 C :   -0.000358
   1 O :   -0.006010
   2 H :   -0.003081
   3 H :   -0.000009
   4 H :   -0.000018
   5 H :   -0.000008
   6 C :   -0.404740
   7 O :   -0.061311
   8 H :    0.169385
   9 H :    0.097430
  10 H :    0.096779
  11 H :    0.111941

  Mayer bond orders larger than 0.1
B(  6-C ,  7-O ) :   0.9974 B(  6-C ,  9-H ) :   0.9927 B(  6-C , 10-H ) :   0.9685
B(  6-C , 11-H ) :   0.9662 B(  7-O ,  8-H ) :   0.8870

Dispersion correction           -0.000265913
FINAL SINGLE POINT ENERGY      -115.728330029833

DIPOLE MOMENT
-------------
                                X             Y             Z
Electronic contribution:      0.71125      -1.79695       0.15882
Nuclear contribution   :     -0.39010       2.28588       0.04550
                        -----------------------------------------
Total Dipole Moment    :      0.32115       0.48894       0.20431
                        -----------------------------------------
Magnitude (a.u.)       :      0.61963
Magnitude (Debye)      :      1.57497

Rotational constants in cm-1:     4.544095     0.823687     0.802083
Rotational constants in MHz : 136228.529927 24693.500728 24045.828987

                             ****ORCA TERMINATED NORMALLY****
TOTAL RUN TIME: 0 days 0 hours 0 minutes 59 seconds 597 msec
