                         Program Version 4.1.2  - RELEASE  -
|  1> #Run DFT-D3 single point of the dimer
|  2> ! wB97X-D3 def2-TZVP TIGHTSCF CHELPG PMODEL PAL8
|  3>
|  4> %base "11-36_DFT_AB"
|  5>
|  6> %scf
|  7> MaxIter 1000
|  8> end
|  9>
| 10> * xyz 0 1
| 11>   C                      -4.262804            -3.298811            4.931557
| 12>   O                      -3.864564            -2.942529            6.210114
| 13>   H                      -2.899731            -2.834253            6.123950
| 14>   H                      -4.286093            -4.428996            4.908977
| 15>   H                      -5.227939            -2.841040            4.620827
| 16>   H                      -3.491225            -3.035285            4.130311
| 17>   C                      -2.958133            -5.910956            1.866469
| 18>   O                      -2.832775            -7.293299            1.854868
| 19>   H                      -3.467590            -7.636709            1.262656
| 20>   H                      -2.945001            -5.442606            0.902511
| 21>   H                      -3.971730            -5.552848            2.280433
| 22>   H                      -2.192545            -5.548036            2.414765
| 23> *
| 24>
| 25> #Run DFT-D3 single point of the molecule with dimer basis set
| 26> $new_job
| 27> %base "11-36_DFT_A"
| 28> ! wB97X-D3 def2-TZVP TIGHTSCF CHELPG PMODEL
| 29>
| 30> %scf
| 31> MaxIter 1000
| 32> end
| 33>
| 34> * xyz 0 1
| 35>   C                      -4.262804            -3.298811            4.931557
| 36>   O                      -3.864564            -2.942529            6.210114
| 37>   H                      -2.899731            -2.834253            6.123950
| 38>   H                      -4.286093            -4.428996            4.908977
| 39>   H                      -5.227939            -2.841040            4.620827
| 40>   H                      -3.491225            -3.035285            4.130311
| 41>   C                    : -2.958133            -5.910956            1.866469
| 42>   O                    : -2.832775            -7.293299            1.854868
| 43>   H                    : -3.467590            -7.636709            1.262656
| 44>   H                    : -2.945001            -5.442606            0.902511
| 45>   H                    : -3.971730            -5.552848            2.280433
| 46>   H                    : -2.192545            -5.548036            2.414765
| 47> *
| 48>
| 49> #Run DFT-D3 single point of the particle with dimer basis set
| 50> $new_job
| 51> %base "11-36_DFT_B"
| 52> ! wB97X-D3 def2-TZVP TIGHTSCF CHELPG PMODEL
| 53>
| 54> %scf
| 55> MaxIter 1000
| 56> end
| 57>
| 58> * xyz 0 1
| 59>   C                    : -4.262804            -3.298811            4.931557
| 60>   O                    : -3.864564            -2.942529            6.210114
| 61>   H                    : -2.899731            -2.834253            6.123950
| 62>   H                    : -4.286093            -4.428996            4.908977
| 63>   H                    : -5.227939            -2.841040            4.620827
| 64>   H                    : -3.491225            -3.035285            4.130311
| 65>   C                      -2.958133            -5.910956            1.866469
| 66>   O                      -2.832775            -7.293299            1.854868
| 67>   H                      -3.467590            -7.636709            1.262656
| 68>   H                      -2.945001            -5.442606            0.902511
| 69>   H                      -3.971730            -5.552848            2.280433
| 70>   H                      -2.192545            -5.548036            2.414765
| 71> *
| 72>
| 73>                          ****END OF INPUT****
 Total Charge           Charge          ....    0
 Multiplicity           Mult            ....    1
 Number of Electrons    NEL             ....   36
Dispersion correction           -0.001234004
FINAL SINGLE POINT ENERGY      -231.459350055317
Dispersion correction           -0.000233823
FINAL SINGLE POINT ENERGY      -115.729825014581

CARTESIAN COORDINATES (ANGSTROEM)
---------------------------------
  C     -4.262804   -3.298811    4.931557
  O     -3.864564   -2.942529    6.210114
  H     -2.899731   -2.834253    6.123950
  H     -4.286093   -4.428996    4.908977
  H     -5.227939   -2.841040    4.620827
  H     -3.491225   -3.035285    4.130311
  C     -2.958133   -5.910956    1.866469
  O     -2.832775   -7.293299    1.854868
  H     -3.467590   -7.636709    1.262656
  H     -2.945001   -5.442606    0.902511
  H     -3.971730   -5.552848    2.280433
  H     -2.192545   -5.548036    2.414765

 Multiplicity           Mult            ....    1
 Number of Electrons    NEL             ....   18
 Basis Dimension        Dim             ....  172

ORBITAL ENERGIES
----------------

  NO   OCC          E(Eh)            E(eV)
   0   2.0000     -19.229420      -523.2591
   1   2.0000     -10.305197      -280.4187
   2   2.0000      -1.150648       -31.3107
   3   2.0000      -0.803867       -21.8743
   4   2.0000      -0.624387       -16.9904
   5   2.0000      -0.541300       -14.7295
   6   2.0000      -0.531453       -14.4616
   7   2.0000      -0.443986       -12.0815
   8   2.0000      -0.370442       -10.0802
   9   0.0000       0.085339         2.3222
  10   0.0000       0.119932         3.2635
  11   0.0000       0.151724         4.1286
  12   0.0000       0.169615         4.6155
  13   0.0000       0.192010         5.2249

MULLIKEN ATOMIC CHARGES
-----------------------
   0 C :   -0.001380
   1 O :   -0.000006
   2 H :    0.000001
   3 H :    0.000818
   4 H :   -0.000026
   5 H :   -0.000082
   6 C :   -0.159025
   7 O :   -0.458235
   8 H :    0.309006
   9 H :    0.099717
  10 H :    0.082627
  11 H :    0.126585
Sum of atomic charges:    0.0000000

LOEWDIN ATOMIC CHARGES
----------------------
   0 C :   -0.002451
   1 O :   -0.000013
   2 H :   -0.000005
   3 H :   -0.001415
   4 H :   -0.000057
   5 H :   -0.000626
   6 C :   -0.392541
   7 O :   -0.037776
   8 H :    0.153832
   9 H :    0.089702
  10 H :    0.102164
  11 H :    0.089184

  Mayer bond orders larger than 0.1
B(  6-C ,  7-O ) :   1.0079 B(  6-C ,  9-H ) :   0.9718 B(  6-C , 10-H ) :   0.9759
B(  6-C , 11-H ) :   0.9779 B(  7-O ,  8-H ) :   0.9066

Dispersion correction           -0.000228277
FINAL SINGLE POINT ENERGY      -115.728876154801

DIPOLE MOMENT
-------------
                                X             Y             Z
Electronic contribution:      0.42621      -1.84106       0.07529
Nuclear contribution   :     -0.84406       2.14032      -0.47466
                        -----------------------------------------
Total Dipole Moment    :     -0.41785       0.29926      -0.39937
                        -----------------------------------------
Magnitude (a.u.)       :      0.65089
Magnitude (Debye)      :      1.65443

Rotational constants in cm-1:     4.487101     0.858477     0.826950
Rotational constants in MHz : 134519.914412 25736.482950 24791.324195

                             ****ORCA TERMINATED NORMALLY****
TOTAL RUN TIME: 0 days 0 hours 1 minutes 10 seconds 97 msec
