                         Program Version 4.1.2  - RELEASE  -
|  1> #Run DFT-D3 single point of the dimer
|  2> ! wB97X-D3 def2-TZVP TIGHTSCF CHELPG PMODEL PAL8
|  3>
|  4> %base "17-212_DFT_AB"
|  5>
|  6> %scf
|  7> MaxIter 1000
|  8> end
|  9>
| 10> * xyz 0 1
| 11>   C                      -0.007571            2.884202             0.553842
| 12>   O                      -0.961278            2.596705             -0.447890
| 13>   H                      -1.309672            3.448110             -0.727636
| 14>   H                      -0.458122            3.474589             1.324680
| 15>   H                      0.421138             2.083740             1.150053
| 16>   H                      0.747337             3.588553             0.238310
| 17>   C                      -1.304668            6.825085             -1.251012
| 18>   O                      -1.780940            5.692923             -0.579004
| 19>   H                      -2.721488            5.823928             -0.475654
| 20>   H                      -1.420874            7.771139             -0.682283
| 21>   H                      -0.269965            6.629542             -1.463105
| 22>   H                      -1.886430            6.968404             -2.148956
| 23> *
| 24>
| 25> #Run DFT-D3 single point of the molecule with dimer basis set
| 26> $new_job
| 27> %base "17-212_DFT_A"
| 28> ! wB97X-D3 def2-TZVP TIGHTSCF CHELPG PMODEL
| 29>
| 30> %scf
| 31> MaxIter 1000
| 32> end
| 33>
| 34> * xyz 0 1
| 35>   C                      -0.007571            2.884202             0.553842
| 36>   O                      -0.961278            2.596705             -0.447890
| 37>   H                      -1.309672            3.448110             -0.727636
| 38>   H                      -0.458122            3.474589             1.324680
| 39>   H                      0.421138             2.083740             1.150053
| 40>   H                      0.747337             3.588553             0.238310
| 41>   C                    : -1.304668            6.825085             -1.251012
| 42>   O                    : -1.780940            5.692923             -0.579004
| 43>   H                    : -2.721488            5.823928             -0.475654
| 44>   H                    : -1.420874            7.771139             -0.682283
| 45>   H                    : -0.269965            6.629542             -1.463105
| 46>   H                    : -1.886430            6.968404             -2.148956
| 47> *
| 48>
| 49> #Run DFT-D3 single point of the particle with dimer basis set
| 50> $new_job
| 51> %base "17-212_DFT_B"
| 52> ! wB97X-D3 def2-TZVP TIGHTSCF CHELPG PMODEL
| 53>
| 54> %scf
| 55> MaxIter 1000
| 56> end
| 57>
| 58> * xyz 0 1
| 59>   C                    : -0.007571            2.884202             0.553842
| 60>   O                    : -0.961278            2.596705             -0.447890
| 61>   H                    : -1.309672            3.448110             -0.727636
| 62>   H                    : -0.458122            3.474589             1.324680
| 63>   H                    : 0.421138             2.083740             1.150053
| 64>   H                    : 0.747337             3.588553             0.238310
| 65>   C                      -1.304668            6.825085             -1.251012
| 66>   O                      -1.780940            5.692923             -0.579004
| 67>   H                      -2.721488            5.823928             -0.475654
| 68>   H                      -1.420874            7.771139             -0.682283
| 69>   H                      -0.269965            6.629542             -1.463105
| 70>   H                      -1.886430            6.968404             -2.148956
| 71> *
| 72>
| 73>                          ****END OF INPUT****
 Total Charge           Charge          ....    0
 Multiplicity           Mult            ....    1
 Number of Electrons    NEL             ....   36
Dispersion correction           -0.001680871
FINAL SINGLE POINT ENERGY      -231.470590976537
Dispersion correction           -0.000231028
FINAL SINGLE POINT ENERGY      -115.727262520134

CARTESIAN COORDINATES (ANGSTROEM)
---------------------------------
  C     -0.007571    2.884202    0.553842
  O     -0.961278    2.596705   -0.447890
  H     -1.309672    3.448110   -0.727636
  H     -0.458122    3.474589    1.324680
  H      0.421138    2.083740    1.150053
  H      0.747337    3.588553    0.238310
  C     -1.304668    6.825085   -1.251012
  O     -1.780940    5.692923   -0.579004
  H     -2.721488    5.823928   -0.475654
  H     -1.420874    7.771139   -0.682283
  H     -0.269965    6.629542   -1.463105
  H     -1.886430    6.968404   -2.148956

 Multiplicity           Mult            ....    1
 Number of Electrons    NEL             ....   18
 Basis Dimension        Dim             ....  172

ORBITAL ENERGIES
----------------

  NO   OCC          E(Eh)            E(eV)
   0   2.0000     -19.229878      -523.2716
   1   2.0000     -10.309703      -280.5413
   2   2.0000      -1.143431       -31.1143
   3   2.0000      -0.795223       -21.6391
   4   2.0000      -0.617979       -16.8161
   5   2.0000      -0.540463       -14.7067
   6   2.0000      -0.529164       -14.3993
   7   2.0000      -0.441472       -12.0131
   8   2.0000      -0.371338       -10.1046
   9   0.0000       0.098760         2.6874
  10   0.0000       0.124966         3.4005
  11   0.0000       0.157754         4.2927
  12   0.0000       0.186940         5.0869
  13   0.0000       0.192565         5.2400

MULLIKEN ATOMIC CHARGES
-----------------------
   0 C :    0.008132
   1 O :   -0.000151
   2 H :   -0.010717
   3 H :   -0.005368
   4 H :   -0.000255
   5 H :   -0.002541
   6 C :   -0.152315
   7 O :   -0.460512
   8 H :    0.309772
   9 H :    0.094442
  10 H :    0.120716
  11 H :    0.098796
Sum of atomic charges:   -0.0000000

LOEWDIN ATOMIC CHARGES
----------------------
   0 C :   -0.004716
   1 O :   -0.001674
   2 H :   -0.020927
   3 H :   -0.002032
   4 H :   -0.000039
   5 H :   -0.000508
   6 C :   -0.390360
   7 O :   -0.040650
   8 H :    0.166764
   9 H :    0.096268
  10 H :    0.106311
  11 H :    0.091562

  Mayer bond orders larger than 0.1
B(  6-C ,  7-O ) :   0.9934 B(  6-C ,  9-H ) :   0.9659 B(  6-C , 10-H ) :   0.9786
B(  6-C , 11-H ) :   0.9808 B(  7-O ,  8-H ) :   0.9012

Dispersion correction           -0.000217670
FINAL SINGLE POINT ENERGY      -115.735893679230

DIPOLE MOMENT
-------------
                                X             Y             Z
Electronic contribution:     -0.41546      -1.50134       0.85323
Nuclear contribution   :      0.00360       2.02506      -1.06238
                        -----------------------------------------
Total Dipole Moment    :     -0.41185       0.52372      -0.20914
                        -----------------------------------------
Magnitude (a.u.)       :      0.69832
Magnitude (Debye)      :      1.77498

Rotational constants in cm-1:     4.269765     0.857891     0.819533
Rotational constants in MHz : 128004.328106 25718.938874 24568.969100

                             ****ORCA TERMINATED NORMALLY****
TOTAL RUN TIME: 0 days 0 hours 1 minutes 7 seconds 45 msec
