                         Program Version 4.1.2  - RELEASE  -
|  1> #Run DFT-D3 single point of the dimer
|  2> ! wB97X-D3 def2-TZVP TIGHTSCF CHELPG PMODEL PAL8
|  3>
|  4> %base "20-115_DFT_AB"
|  5>
|  6> %scf
|  7> MaxIter 1000
|  8> end
|  9>
| 10> * xyz 0 1
| 11>   C                      11.218378            -9.107412            7.618179
| 12>   O                      10.746527            -9.380473            6.350098
| 13>   H                      11.379990            -8.963582            5.761786
| 14>   H                      11.897932            -8.268738            7.736445
| 15>   H                      10.316205            -8.880650            8.214575
| 16>   H                      11.735110            -9.956797            8.001080
| 17>   C                      7.696313             -10.211434           5.007463
| 18>   O                      7.958218             -9.042702            5.736758
| 19>   H                      8.873742             -9.166333            6.057190
| 20>   H                      8.414789             -10.235438           4.185334
| 21>   H                      7.970635             -11.061335           5.693218
| 22>   H                      6.696710             -10.332449           4.645116
| 23> *
| 24>
| 25> #Run DFT-D3 single point of the molecule with dimer basis set
| 26> $new_job
| 27> %base "20-115_DFT_A"
| 28> ! wB97X-D3 def2-TZVP TIGHTSCF CHELPG PMODEL
| 29>
| 30> %scf
| 31> MaxIter 1000
| 32> end
| 33>
| 34> * xyz 0 1
| 35>   C                      11.218378            -9.107412            7.618179
| 36>   O                      10.746527            -9.380473            6.350098
| 37>   H                      11.379990            -8.963582            5.761786
| 38>   H                      11.897932            -8.268738            7.736445
| 39>   H                      10.316205            -8.880650            8.214575
| 40>   H                      11.735110            -9.956797            8.001080
| 41>   C                    : 7.696313             -10.211434           5.007463
| 42>   O                    : 7.958218             -9.042702            5.736758
| 43>   H                    : 8.873742             -9.166333            6.057190
| 44>   H                    : 8.414789             -10.235438           4.185334
| 45>   H                    : 7.970635             -11.061335           5.693218
| 46>   H                    : 6.696710             -10.332449           4.645116
| 47> *
| 48>
| 49> #Run DFT-D3 single point of the particle with dimer basis set
| 50> $new_job
| 51> %base "20-115_DFT_B"
| 52> ! wB97X-D3 def2-TZVP TIGHTSCF CHELPG PMODEL
| 53>
| 54> %scf
| 55> MaxIter 1000
| 56> end
| 57>
| 58> * xyz 0 1
| 59>   C                    : 11.218378            -9.107412            7.618179
| 60>   O                    : 10.746527            -9.380473            6.350098
| 61>   H                    : 11.379990            -8.963582            5.761786
| 62>   H                    : 11.897932            -8.268738            7.736445
| 63>   H                    : 10.316205            -8.880650            8.214575
| 64>   H                    : 11.735110            -9.956797            8.001080
| 65>   C                      7.696313             -10.211434           5.007463
| 66>   O                      7.958218             -9.042702            5.736758
| 67>   H                      8.873742             -9.166333            6.057190
| 68>   H                      8.414789             -10.235438           4.185334
| 69>   H                      7.970635             -11.061335           5.693218
| 70>   H                      6.696710             -10.332449           4.645116
| 71> *
| 72>
| 73>                          ****END OF INPUT****
 Total Charge           Charge          ....    0
 Multiplicity           Mult            ....    1
 Number of Electrons    NEL             ....   36
Dispersion correction           -0.001747128
FINAL SINGLE POINT ENERGY      -231.472495067745
Dispersion correction           -0.000222022
FINAL SINGLE POINT ENERGY      -115.732595496206

CARTESIAN COORDINATES (ANGSTROEM)
---------------------------------
  C     11.218378   -9.107412    7.618179
  O     10.746527   -9.380473    6.350098
  H     11.379990   -8.963582    5.761786
  H     11.897932   -8.268738    7.736445
  H     10.316205   -8.880650    8.214575
  H     11.735110   -9.956797    8.001080
  C      7.696313  -10.211434    5.007463
  O      7.958218   -9.042702    5.736758
  H      8.873742   -9.166333    6.057190
  H      8.414789  -10.235438    4.185334
  H      7.970635  -11.061335    5.693218
  H      6.696710  -10.332449    4.645116

 Multiplicity           Mult            ....    1
 Number of Electrons    NEL             ....   18
 Basis Dimension        Dim             ....  172

ORBITAL ENERGIES
----------------

  NO   OCC          E(Eh)            E(eV)
   0   2.0000     -19.229990      -523.2746
   1   2.0000     -10.313699      -280.6500
   2   2.0000      -1.139373       -31.0039
   3   2.0000      -0.789930       -21.4951
   4   2.0000      -0.608044       -16.5457
   5   2.0000      -0.542820       -14.7709
   6   2.0000      -0.538801       -14.6615
   7   2.0000      -0.434797       -11.8314
   8   2.0000      -0.366903        -9.9839
   9   0.0000       0.068059         1.8520
  10   0.0000       0.129352         3.5198
  11   0.0000       0.158623         4.3164
  12   0.0000       0.161129         4.3846
  13   0.0000       0.193770         5.2728

MULLIKEN ATOMIC CHARGES
-----------------------
   0 C :   -0.001460
   1 O :   -0.003689
   2 H :   -0.000395
   3 H :    0.000017
   4 H :   -0.001313
   5 H :    0.000117
   6 C :   -0.167499
   7 O :   -0.468863
   8 H :    0.319075
   9 H :    0.099898
  10 H :    0.096440
  11 H :    0.127673
Sum of atomic charges:    0.0000000

LOEWDIN ATOMIC CHARGES
----------------------
   0 C :   -0.004321
   1 O :   -0.021045
   2 H :   -0.001483
   3 H :   -0.000063
   4 H :   -0.001316
   5 H :   -0.000068
   6 C :   -0.392355
   7 O :   -0.070770
   8 H :    0.194299
   9 H :    0.093980
  10 H :    0.101295
  11 H :    0.101846

  Mayer bond orders larger than 0.1
B(  6-C ,  7-O ) :   0.9812 B(  6-C ,  9-H ) :   0.9829 B(  6-C , 10-H ) :   0.9883
B(  6-C , 11-H ) :   0.9683 B(  7-O ,  8-H ) :   0.9032

Dispersion correction           -0.000202963
FINAL SINGLE POINT ENERGY      -115.730912901673

DIPOLE MOMENT
-------------
                                X             Y             Z
Electronic contribution:     -0.02657       1.61633       0.81332
Nuclear contribution   :      0.47070      -2.14016      -0.90950
                        -----------------------------------------
Total Dipole Moment    :      0.44412      -0.52382      -0.09618
                        -----------------------------------------
Magnitude (a.u.)       :      0.69346
Magnitude (Debye)      :      1.76263

Rotational constants in cm-1:     4.174211     0.855014     0.818906
Rotational constants in MHz : 125139.694618 25632.687133 24550.173824

                             ****ORCA TERMINATED NORMALLY****
TOTAL RUN TIME: 0 days 0 hours 1 minutes 7 seconds 891 msec
