                         Program Version 4.1.2  - RELEASE  -
|  1> #Run DFT-D3 single point of the dimer
|  2> ! wB97X-D3 def2-TZVP TIGHTSCF CHELPG PMODEL PAL8
|  3>
|  4> %base "12-57_DFT_AB"
|  5>
|  6> %scf
|  7> MaxIter 1000
|  8> end
|  9>
| 10> * xyz 0 1
| 11>   C                      1.228255             8.850175             -3.515345
| 12>   O                      1.191600             8.715200             -2.081027
| 13>   H                      0.242599             8.844409             -1.860280
| 14>   H                      1.453714             9.811640             -3.993332
| 15>   H                      1.787758             7.990946             -3.923253
| 16>   H                      0.282204             8.617246             -3.914783
| 17>   C                      4.935027             10.096146            -2.149973
| 18>   O                      3.643900             10.409832            -1.754304
| 19>   H                      3.059249             9.656433             -1.985649
| 20>   H                      4.791418             9.622786             -3.172130
| 21>   H                      5.548370             10.968374            -2.274996
| 22>   H                      5.286407             9.378235             -1.404877
| 23> *
| 24>
| 25> #Run DFT-D3 single point of the molecule with dimer basis set
| 26> $new_job
| 27> %base "12-57_DFT_A"
| 28> ! wB97X-D3 def2-TZVP TIGHTSCF CHELPG PMODEL
| 29>
| 30> %scf
| 31> MaxIter 1000
| 32> end
| 33>
| 34> * xyz 0 1
| 35>   C                      1.228255             8.850175             -3.515345
| 36>   O                      1.191600             8.715200             -2.081027
| 37>   H                      0.242599             8.844409             -1.860280
| 38>   H                      1.453714             9.811640             -3.993332
| 39>   H                      1.787758             7.990946             -3.923253
| 40>   H                      0.282204             8.617246             -3.914783
| 41>   C                    : 4.935027             10.096146            -2.149973
| 42>   O                    : 3.643900             10.409832            -1.754304
| 43>   H                    : 3.059249             9.656433             -1.985649
| 44>   H                    : 4.791418             9.622786             -3.172130
| 45>   H                    : 5.548370             10.968374            -2.274996
| 46>   H                    : 5.286407             9.378235             -1.404877
| 47> *
| 48>
| 49> #Run DFT-D3 single point of the particle with dimer basis set
| 50> $new_job
| 51> %base "12-57_DFT_B"
| 52> ! wB97X-D3 def2-TZVP TIGHTSCF CHELPG PMODEL
| 53>
| 54> %scf
| 55> MaxIter 1000
| 56> end
| 57>
| 58> * xyz 0 1
| 59>   C                    : 1.228255             8.850175             -3.515345
| 60>   O                    : 1.191600             8.715200             -2.081027
| 61>   H                    : 0.242599             8.844409             -1.860280
| 62>   H                    : 1.453714             9.811640             -3.993332
| 63>   H                    : 1.787758             7.990946             -3.923253
| 64>   H                    : 0.282204             8.617246             -3.914783
| 65>   C                      4.935027             10.096146            -2.149973
| 66>   O                      3.643900             10.409832            -1.754304
| 67>   H                      3.059249             9.656433             -1.985649
| 68>   H                      4.791418             9.622786             -3.172130
| 69>   H                      5.548370             10.968374            -2.274996
| 70>   H                      5.286407             9.378235             -1.404877
| 71> *
| 72>
| 73>                          ****END OF INPUT****
 Total Charge           Charge          ....    0
 Multiplicity           Mult            ....    1
 Number of Electrons    NEL             ....   36
Dispersion correction           -0.001794085
FINAL SINGLE POINT ENERGY      -231.460488066182
Dispersion correction           -0.000258969
FINAL SINGLE POINT ENERGY      -115.726054631032

CARTESIAN COORDINATES (ANGSTROEM)
---------------------------------
  C      1.228255    8.850175   -3.515345
  O      1.191600    8.715200   -2.081027
  H      0.242599    8.844409   -1.860280
  H      1.453714    9.811640   -3.993332
  H      1.787758    7.990946   -3.923253
  H      0.282204    8.617246   -3.914783
  C      4.935027   10.096146   -2.149973
  O      3.643900   10.409832   -1.754304
  H      3.059249    9.656433   -1.985649
  H      4.791418    9.622786   -3.172130
  H      5.548370   10.968374   -2.274996
  H      5.286407    9.378235   -1.404877

 Multiplicity           Mult            ....    1
 Number of Electrons    NEL             ....   18
 Basis Dimension        Dim             ....  172

ORBITAL ENERGIES
----------------

  NO   OCC          E(Eh)            E(eV)
   0   2.0000     -19.225835      -523.1616
   1   2.0000     -10.312659      -280.6217
   2   2.0000      -1.140212       -31.0268
   3   2.0000      -0.788031       -21.4434
   4   2.0000      -0.605714       -16.4823
   5   2.0000      -0.555859       -15.1257
   6   2.0000      -0.534497       -14.5444
   7   2.0000      -0.422800       -11.5050
   8   2.0000      -0.366678        -9.9778
   9   0.0000       0.069135         1.8812
  10   0.0000       0.133118         3.6223
  11   0.0000       0.152059         4.1377
  12   0.0000       0.169859         4.6221
  13   0.0000       0.188532         5.1302

MULLIKEN ATOMIC CHARGES
-----------------------
   0 C :   -0.006563
   1 O :    0.001215
   2 H :   -0.000013
   3 H :   -0.001791
   4 H :    0.000503
   5 H :   -0.000706
   6 C :   -0.162244
   7 O :   -0.466628
   8 H :    0.314054
   9 H :    0.092454
  10 H :    0.122065
  11 H :    0.107655
Sum of atomic charges:   -0.0000000

LOEWDIN ATOMIC CHARGES
----------------------
   0 C :   -0.012055
   1 O :   -0.011450
   2 H :   -0.000468
   3 H :   -0.002281
   4 H :   -0.000361
   5 H :   -0.000231
   6 C :   -0.401677
   7 O :   -0.064548
   8 H :    0.191527
   9 H :    0.102893
  10 H :    0.101980
  11 H :    0.096671

  Mayer bond orders larger than 0.1
B(  6-C ,  7-O ) :   0.9845 B(  6-C ,  9-H ) :   0.9884 B(  6-C , 10-H ) :   0.9659
B(  6-C , 11-H ) :   0.9857 B(  7-O ,  8-H ) :   0.9011

Dispersion correction           -0.000200423
FINAL SINGLE POINT ENERGY      -115.728995343936

DIPOLE MOMENT
-------------
                                X             Y             Z
Electronic contribution:     -1.41134       0.64475       0.63902
Nuclear contribution   :      1.54526      -1.20737      -0.93335
                        -----------------------------------------
Total Dipole Moment    :      0.13392      -0.56263      -0.29433
                        -----------------------------------------
Magnitude (a.u.)       :      0.64893
Magnitude (Debye)      :      1.64945

Rotational constants in cm-1:     4.080424     0.871048     0.843236
Rotational constants in MHz : 122328.028070 26113.356492 25279.594282

                             ****ORCA TERMINATED NORMALLY****
TOTAL RUN TIME: 0 days 0 hours 1 minutes 5 seconds 229 msec
