                         Program Version 4.1.2  - RELEASE  -
|  1> #Run DFT-D3 single point of the dimer
|  2> ! wB97X-D3 def2-TZVP TIGHTSCF CHELPG PMODEL PAL8
|  3>
|  4> %base "3-73_DFT_AB"
|  5>
|  6> %scf
|  7> MaxIter 1000
|  8> end
|  9>
| 10> * xyz 0 1
| 11>   C                      -4.944868            -6.379908            -6.736573
| 12>   O                      -6.142319            -5.643729            -6.610150
| 13>   H                      -6.328640            -5.442620            -7.501184
| 14>   H                      -4.130525            -5.985907            -6.044649
| 15>   H                      -5.172011            -7.357734            -6.328079
| 16>   H                      -4.478197            -6.584611            -7.685240
| 17>   C                      -7.727073            -7.561073            -10.865921
| 18>   O                      -8.972835            -6.876636            -10.927747
| 19>   H                      -9.731524            -7.438222            -10.792872
| 20>   H                      -7.609221            -8.401244            -11.569420
| 21>   H                      -6.873496            -6.841418            -10.802313
| 22>   H                      -7.681243            -7.968487            -9.825223
| 23> *
| 24>
| 25> #Run DFT-D3 single point of the molecule with dimer basis set
| 26> $new_job
| 27> %base "3-73_DFT_A"
| 28> ! wB97X-D3 def2-TZVP TIGHTSCF CHELPG PMODEL
| 29>
| 30> %scf
| 31> MaxIter 1000
| 32> end
| 33>
| 34> * xyz 0 1
| 35>   C                      -4.944868            -6.379908            -6.736573
| 36>   O                      -6.142319            -5.643729            -6.610150
| 37>   H                      -6.328640            -5.442620            -7.501184
| 38>   H                      -4.130525            -5.985907            -6.044649
| 39>   H                      -5.172011            -7.357734            -6.328079
| 40>   H                      -4.478197            -6.584611            -7.685240
| 41>   C                    : -7.727073            -7.561073            -10.865921
| 42>   O                    : -8.972835            -6.876636            -10.927747
| 43>   H                    : -9.731524            -7.438222            -10.792872
| 44>   H                    : -7.609221            -8.401244            -11.569420
| 45>   H                    : -6.873496            -6.841418            -10.802313
| 46>   H                    : -7.681243            -7.968487            -9.825223
| 47> *
| 48>
| 49> #Run DFT-D3 single point of the particle with dimer basis set
| 50> $new_job
| 51> %base "3-73_DFT_B"
| 52> ! wB97X-D3 def2-TZVP TIGHTSCF CHELPG PMODEL
| 53>
| 54> %scf
| 55> MaxIter 1000
| 56> end
| 57>
| 58> * xyz 0 1
| 59>   C                    : -4.944868            -6.379908            -6.736573
| 60>   O                    : -6.142319            -5.643729            -6.610150
| 61>   H                    : -6.328640            -5.442620            -7.501184
| 62>   H                    : -4.130525            -5.985907            -6.044649
| 63>   H                    : -5.172011            -7.357734            -6.328079
| 64>   H                    : -4.478197            -6.584611            -7.685240
| 65>   C                      -7.727073            -7.561073            -10.865921
| 66>   O                      -8.972835            -6.876636            -10.927747
| 67>   H                      -9.731524            -7.438222            -10.792872
| 68>   H                      -7.609221            -8.401244            -11.569420
| 69>   H                      -6.873496            -6.841418            -10.802313
| 70>   H                      -7.681243            -7.968487            -9.825223
| 71> *
| 72>
| 73>                          ****END OF INPUT****
 Total Charge           Charge          ....    0
 Multiplicity           Mult            ....    1
 Number of Electrons    NEL             ....   36
Dispersion correction           -0.000929489
FINAL SINGLE POINT ENERGY      -231.456622916167
Dispersion correction           -0.000252383
FINAL SINGLE POINT ENERGY      -115.726786724502

CARTESIAN COORDINATES (ANGSTROEM)
---------------------------------
  C     -4.944868   -6.379908   -6.736573
  O     -6.142319   -5.643729   -6.610150
  H     -6.328640   -5.442620   -7.501184
  H     -4.130525   -5.985907   -6.044649
  H     -5.172011   -7.357734   -6.328079
  H     -4.478197   -6.584611   -7.685240
  C     -7.727073   -7.561073  -10.865921
  O     -8.972835   -6.876636  -10.927747
  H     -9.731524   -7.438222  -10.792872
  H     -7.609221   -8.401244  -11.569420
  H     -6.873496   -6.841418  -10.802313
  H     -7.681243   -7.968487   -9.825223

 Multiplicity           Mult            ....    1
 Number of Electrons    NEL             ....   18
 Basis Dimension        Dim             ....  172

ORBITAL ENERGIES
----------------

  NO   OCC          E(Eh)            E(eV)
   0   2.0000     -19.226264      -523.1733
   1   2.0000     -10.321108      -280.8516
   2   2.0000      -1.130573       -30.7645
   3   2.0000      -0.795089       -21.6355
   4   2.0000      -0.609363       -16.5816
   5   2.0000      -0.544505       -14.8167
   6   2.0000      -0.521047       -14.1784
   7   2.0000      -0.423999       -11.5376
   8   2.0000      -0.369638       -10.0583
   9   0.0000       0.082663         2.2494
  10   0.0000       0.117619         3.2006
  11   0.0000       0.147000         4.0001
  12   0.0000       0.169904         4.6233
  13   0.0000       0.184622         5.0238

MULLIKEN ATOMIC CHARGES
-----------------------
   0 C :   -0.000136
   1 O :    0.000013
   2 H :    0.000100
   3 H :   -0.000007
   4 H :   -0.000024
   5 H :   -0.000109
   6 C :   -0.158102
   7 O :   -0.489034
   8 H :    0.316849
   9 H :    0.108604
  10 H :    0.122925
  11 H :    0.098920
Sum of atomic charges:    0.0000000

LOEWDIN ATOMIC CHARGES
----------------------
   0 C :   -0.000186
   1 O :   -0.000013
   2 H :   -0.000069
   3 H :   -0.000003
   4 H :   -0.000022
   5 H :   -0.000061
   6 C :   -0.385726
   7 O :   -0.086895
   8 H :    0.161532
   9 H :    0.095791
  10 H :    0.115670
  11 H :    0.099981

  Mayer bond orders larger than 0.1
B(  6-C ,  7-O ) :   0.9899 B(  6-C ,  9-H ) :   0.9647 B(  6-C , 10-H ) :   0.9686
B(  6-C , 11-H ) :   0.9890 B(  7-O ,  8-H ) :   0.8952

Dispersion correction           -0.000258484
FINAL SINGLE POINT ENERGY      -115.729327135589

DIPOLE MOMENT
-------------
                                X             Y             Z
Electronic contribution:     -1.49497       0.96310      -0.35960
Nuclear contribution   :      1.51590      -1.60944       0.50379
                        -----------------------------------------
Total Dipole Moment    :      0.02093      -0.64634       0.14419
                        -----------------------------------------
Magnitude (a.u.)       :      0.66256
Magnitude (Debye)      :      1.68409

Rotational constants in cm-1:     4.265214     0.813840     0.785842
Rotational constants in MHz : 127867.901372 24398.297206 23558.956407

                             ****ORCA TERMINATED NORMALLY****
TOTAL RUN TIME: 0 days 0 hours 6 minutes 16 seconds 604 msec
