                         Program Version 4.1.2  - RELEASE  -
|  1> #Run DFT-D3 single point of the dimer
|  2> ! wB97X-D3 def2-TZVP TIGHTSCF CHELPG PMODEL PAL8
|  3>
|  4> %base "11-30_DFT_AB"
|  5>
|  6> %scf
|  7> MaxIter 1000
|  8> end
|  9>
| 10> * xyz 0 1
| 11>   C                      -4.262804            -3.298811            4.931557
| 12>   O                      -3.864564            -2.942529            6.210114
| 13>   H                      -2.899731            -2.834253            6.123950
| 14>   H                      -4.286093            -4.428996            4.908977
| 15>   H                      -5.227939            -2.841040            4.620827
| 16>   H                      -3.491225            -3.035285            4.130311
| 17>   C                      0.029205             -3.305085            5.575801
| 18>   O                      -1.152025            -2.596991            5.492510
| 19>   H                      -0.980307            -2.042697            4.669758
| 20>   H                      0.889800             -2.641096            5.935441
| 21>   H                      -0.058726            -4.169142            6.203153
| 22>   H                      0.260555             -3.587206            4.550461
| 23> *
| 24>
| 25> #Run DFT-D3 single point of the molecule with dimer basis set
| 26> $new_job
| 27> %base "11-30_DFT_A"
| 28> ! wB97X-D3 def2-TZVP TIGHTSCF CHELPG PMODEL
| 29>
| 30> %scf
| 31> MaxIter 1000
| 32> end
| 33>
| 34> * xyz 0 1
| 35>   C                      -4.262804            -3.298811            4.931557
| 36>   O                      -3.864564            -2.942529            6.210114
| 37>   H                      -2.899731            -2.834253            6.123950
| 38>   H                      -4.286093            -4.428996            4.908977
| 39>   H                      -5.227939            -2.841040            4.620827
| 40>   H                      -3.491225            -3.035285            4.130311
| 41>   C                    : 0.029205             -3.305085            5.575801
| 42>   O                    : -1.152025            -2.596991            5.492510
| 43>   H                    : -0.980307            -2.042697            4.669758
| 44>   H                    : 0.889800             -2.641096            5.935441
| 45>   H                    : -0.058726            -4.169142            6.203153
| 46>   H                    : 0.260555             -3.587206            4.550461
| 47> *
| 48>
| 49> #Run DFT-D3 single point of the particle with dimer basis set
| 50> $new_job
| 51> %base "11-30_DFT_B"
| 52> ! wB97X-D3 def2-TZVP TIGHTSCF CHELPG PMODEL
| 53>
| 54> %scf
| 55> MaxIter 1000
| 56> end
| 57>
| 58> * xyz 0 1
| 59>   C                    : -4.262804            -3.298811            4.931557
| 60>   O                    : -3.864564            -2.942529            6.210114
| 61>   H                    : -2.899731            -2.834253            6.123950
| 62>   H                    : -4.286093            -4.428996            4.908977
| 63>   H                    : -5.227939            -2.841040            4.620827
| 64>   H                    : -3.491225            -3.035285            4.130311
| 65>   C                      0.029205             -3.305085            5.575801
| 66>   O                      -1.152025            -2.596991            5.492510
| 67>   H                      -0.980307            -2.042697            4.669758
| 68>   H                      0.889800             -2.641096            5.935441
| 69>   H                      -0.058726            -4.169142            6.203153
| 70>   H                      0.260555             -3.587206            4.550461
| 71> *
| 72>
| 73>                          ****END OF INPUT****
 Total Charge           Charge          ....    0
 Multiplicity           Mult            ....    1
 Number of Electrons    NEL             ....   36
Dispersion correction           -0.001826813
FINAL SINGLE POINT ENERGY      -231.467382993726
Dispersion correction           -0.000233823
FINAL SINGLE POINT ENERGY      -115.730125310546

CARTESIAN COORDINATES (ANGSTROEM)
---------------------------------
  C     -4.262804   -3.298811    4.931557
  O     -3.864564   -2.942529    6.210114
  H     -2.899731   -2.834253    6.123950
  H     -4.286093   -4.428996    4.908977
  H     -5.227939   -2.841040    4.620827
  H     -3.491225   -3.035285    4.130311
  C      0.029205   -3.305085    5.575801
  O     -1.152025   -2.596991    5.492510
  H     -0.980307   -2.042697    4.669758
  H      0.889800   -2.641096    5.935441
  H     -0.058726   -4.169142    6.203153
  H      0.260555   -3.587206    4.550461

 Multiplicity           Mult            ....    1
 Number of Electrons    NEL             ....   18
 Basis Dimension        Dim             ....  172

ORBITAL ENERGIES
----------------

  NO   OCC          E(Eh)            E(eV)
   0   2.0000     -19.235762      -523.4317
   1   2.0000     -10.313165      -280.6355
   2   2.0000      -1.145899       -31.1815
   3   2.0000      -0.783998       -21.3337
   4   2.0000      -0.613777       -16.7017
   5   2.0000      -0.542059       -14.7502
   6   2.0000      -0.536768       -14.6062
   7   2.0000      -0.437907       -11.9161
   8   2.0000      -0.367506       -10.0004
   9   0.0000       0.092945         2.5292
  10   0.0000       0.122540         3.3345
  11   0.0000       0.156370         4.2550
  12   0.0000       0.185485         5.0473
  13   0.0000       0.198891         5.4121

MULLIKEN ATOMIC CHARGES
-----------------------
   0 C :    0.009107
   1 O :    0.000741
   2 H :   -0.012335
   3 H :   -0.001181
   4 H :   -0.000591
   5 H :   -0.012318
   6 C :   -0.160048
   7 O :   -0.443523
   8 H :    0.318412
   9 H :    0.088941
  10 H :    0.119854
  11 H :    0.092942
Sum of atomic charges:    0.0000000

LOEWDIN ATOMIC CHARGES
----------------------
   0 C :   -0.009038
   1 O :   -0.005350
   2 H :   -0.046447
   3 H :   -0.000271
   4 H :   -0.000118
   5 H :   -0.006481
   6 C :   -0.416011
   7 O :   -0.017269
   8 H :    0.205712
   9 H :    0.100801
  10 H :    0.101055
  11 H :    0.093417

  Mayer bond orders larger than 0.1
B(  6-C ,  7-O ) :   0.9943 B(  6-C ,  9-H ) :   0.9666 B(  6-C , 10-H ) :   0.9764
B(  6-C , 11-H ) :   0.9905 B(  7-O ,  8-H ) :   0.8912

Dispersion correction           -0.000203093
FINAL SINGLE POINT ENERGY      -115.728403917374

DIPOLE MOMENT
-------------
                                X             Y             Z
Electronic contribution:     -1.67741       0.73129       0.14573
Nuclear contribution   :      2.20011      -0.68207      -0.61862
                        -----------------------------------------
Total Dipole Moment    :      0.52270       0.04922      -0.47289
                        -----------------------------------------
Magnitude (a.u.)       :      0.70659
Magnitude (Debye)      :      1.79600

Rotational constants in cm-1:     4.058961     0.879362     0.840248
Rotational constants in MHz : 121684.577212 26362.614990 25189.991946

                             ****ORCA TERMINATED NORMALLY****
TOTAL RUN TIME: 0 days 0 hours 1 minutes 14 seconds 275 msec
