                         Program Version 4.1.2  - RELEASE  -
|  1> #Run DFT-D3 single point of the dimer
|  2> ! wB97X-D3 def2-TZVP TIGHTSCF CHELPG PMODEL PAL8
|  3>
|  4> %base "17-147_DFT_AB"
|  5>
|  6> %scf
|  7> MaxIter 1000
|  8> end
|  9>
| 10> * xyz 0 1
| 11>   C                      -10.328175           0.004167             8.727744
| 12>   O                      -10.989691           -0.974389            8.027758
| 13>   H                      -10.821854           -1.774220            8.503981
| 14>   H                      -11.013817           0.818038             8.872286
| 15>   H                      -9.899313            -0.359662            9.666083
| 16>   H                      -9.581659            0.409951             8.128313
| 17>   C                      -10.730985           -2.983394            10.940666
| 18>   O                      -10.466295           -3.249986            9.651913
| 19>   H                      -11.020078           -4.008080            9.423066
| 20>   H                      -11.824373           -3.015629            10.982314
| 21>   H                      -10.260210           -3.740224            11.613740
| 22>   H                      -10.360939           -1.991516            11.231671
| 23> *
| 24>
| 25> #Run DFT-D3 single point of the molecule with dimer basis set
| 26> $new_job
| 27> %base "17-147_DFT_A"
| 28> ! wB97X-D3 def2-TZVP TIGHTSCF CHELPG PMODEL
| 29>
| 30> %scf
| 31> MaxIter 1000
| 32> end
| 33>
| 34> * xyz 0 1
| 35>   C                      -10.328175           0.004167             8.727744
| 36>   O                      -10.989691           -0.974389            8.027758
| 37>   H                      -10.821854           -1.774220            8.503981
| 38>   H                      -11.013817           0.818038             8.872286
| 39>   H                      -9.899313            -0.359662            9.666083
| 40>   H                      -9.581659            0.409951             8.128313
| 41>   C                    : -10.730985           -2.983394            10.940666
| 42>   O                    : -10.466295           -3.249986            9.651913
| 43>   H                    : -11.020078           -4.008080            9.423066
| 44>   H                    : -11.824373           -3.015629            10.982314
| 45>   H                    : -10.260210           -3.740224            11.613740
| 46>   H                    : -10.360939           -1.991516            11.231671
| 47> *
| 48>
| 49> #Run DFT-D3 single point of the particle with dimer basis set
| 50> $new_job
| 51> %base "17-147_DFT_B"
| 52> ! wB97X-D3 def2-TZVP TIGHTSCF CHELPG PMODEL
| 53>
| 54> %scf
| 55> MaxIter 1000
| 56> end
| 57>
| 58> * xyz 0 1
| 59>   C                    : -10.328175           0.004167             8.727744
| 60>   O                    : -10.989691           -0.974389            8.027758
| 61>   H                    : -10.821854           -1.774220            8.503981
| 62>   H                    : -11.013817           0.818038             8.872286
| 63>   H                    : -9.899313            -0.359662            9.666083
| 64>   H                    : -9.581659            0.409951             8.128313
| 65>   C                      -10.730985           -2.983394            10.940666
| 66>   O                      -10.466295           -3.249986            9.651913
| 67>   H                      -11.020078           -4.008080            9.423066
| 68>   H                      -11.824373           -3.015629            10.982314
| 69>   H                      -10.260210           -3.740224            11.613740
| 70>   H                      -10.360939           -1.991516            11.231671
| 71> *
| 72>
| 73>                          ****END OF INPUT****
 Total Charge           Charge          ....    0
 Multiplicity           Mult            ....    1
 Number of Electrons    NEL             ....   36
Dispersion correction           -0.002042565
FINAL SINGLE POINT ENERGY      -231.467405056412
Dispersion correction           -0.000209106
FINAL SINGLE POINT ENERGY      -115.730431924086

CARTESIAN COORDINATES (ANGSTROEM)
---------------------------------
  C    -10.328175    0.004167    8.727744
  O    -10.989691   -0.974389    8.027758
  H    -10.821854   -1.774220    8.503981
  H    -11.013817    0.818038    8.872286
  H     -9.899313   -0.359662    9.666083
  H     -9.581659    0.409951    8.128313
  C    -10.730985   -2.983394   10.940666
  O    -10.466295   -3.249986    9.651913
  H    -11.020078   -4.008080    9.423066
  H    -11.824373   -3.015629   10.982314
  H    -10.260210   -3.740224   11.613740
  H    -10.360939   -1.991516   11.231671

 Multiplicity           Mult            ....    1
 Number of Electrons    NEL             ....   18
 Basis Dimension        Dim             ....  172

ORBITAL ENERGIES
----------------

  NO   OCC          E(Eh)            E(eV)
   0   2.0000     -19.228759      -523.2411
   1   2.0000     -10.309974      -280.5487
   2   2.0000      -1.162378       -31.6299
   3   2.0000      -0.786449       -21.4004
   4   2.0000      -0.620572       -16.8866
   5   2.0000      -0.556614       -15.1462
   6   2.0000      -0.539953       -14.6929
   7   2.0000      -0.425809       -11.5869
   8   2.0000      -0.366781        -9.9806
   9   0.0000       0.097220         2.6455
  10   0.0000       0.121473         3.3055
  11   0.0000       0.159663         4.3447
  12   0.0000       0.191562         5.2127
  13   0.0000       0.200351         5.4518

MULLIKEN ATOMIC CHARGES
-----------------------
   0 C :    0.002760
   1 O :   -0.001500
   2 H :   -0.011984
   3 H :   -0.000002
   4 H :   -0.000022
   5 H :   -0.000220
   6 C :   -0.143294
   7 O :   -0.453108
   8 H :    0.319007
   9 H :    0.091524
  10 H :    0.087399
  11 H :    0.109440
Sum of atomic charges:   -0.0000000

LOEWDIN ATOMIC CHARGES
----------------------
   0 C :   -0.004848
   1 O :   -0.006373
   2 H :   -0.048036
   3 H :   -0.000037
   4 H :   -0.003893
   5 H :   -0.000040
   6 C :   -0.437487
   7 O :    0.017043
   8 H :    0.182600
   9 H :    0.095905
  10 H :    0.096004
  11 H :    0.109162

  Mayer bond orders larger than 0.1
B(  6-C ,  7-O ) :   0.9848 B(  6-C ,  9-H ) :   1.0022 B(  6-C , 10-H ) :   0.9660
B(  6-C , 11-H ) :   0.9756 B(  7-O ,  8-H ) :   0.8934

Dispersion correction           -0.000192584
FINAL SINGLE POINT ENERGY      -115.728788306389

DIPOLE MOMENT
-------------
                                X             Y             Z
Electronic contribution:      0.49964      -0.19478      -1.69310
Nuclear contribution   :     -0.93798      -0.17609       1.98573
                        -----------------------------------------
Total Dipole Moment    :     -0.43835      -0.37088       0.29264
                        -----------------------------------------
Magnitude (a.u.)       :      0.64447
Magnitude (Debye)      :      1.63810

Rotational constants in cm-1:     4.140812     0.915775     0.881615
Rotational constants in MHz : 124138.435654 27454.243128 26430.140541

                             ****ORCA TERMINATED NORMALLY****
TOTAL RUN TIME: 0 days 0 hours 1 minutes 14 seconds 650 msec
