                         Program Version 4.1.2  - RELEASE  -
|  1> #Run DFT-D3 single point of the dimer
|  2> ! wB97X-D3 def2-TZVP TIGHTSCF CHELPG PMODEL PAL8
|  3>
|  4> %base "19-165_DFT_AB"
|  5>
|  6> %scf
|  7> MaxIter 1000
|  8> end
|  9>
| 10> * xyz 0 1
| 11>   C                      -1.181265            -1.693056            -5.197983
| 12>   O                      -2.537102            -1.387165            -4.926656
| 13>   H                      -2.571869            -0.459236            -5.177508
| 14>   H                      -1.007342            -1.646664            -6.277704
| 15>   H                      -0.509238            -0.915298            -4.700614
| 16>   H                      -0.756636            -2.632401            -4.853080
| 17>   C                      -3.412686            -4.523992            -2.785309
| 18>   O                      -2.477537            -4.119576            -3.778693
| 19>   H                      -2.608273            -3.215468            -4.123627
| 20>   H                      -3.306883            -5.572252            -2.486987
| 21>   H                      -3.452466            -3.824920            -1.917810
| 22>   H                      -4.370876            -4.457348            -3.269788
| 23> *
| 24>
| 25> #Run DFT-D3 single point of the molecule with dimer basis set
| 26> $new_job
| 27> %base "19-165_DFT_A"
| 28> ! wB97X-D3 def2-TZVP TIGHTSCF CHELPG PMODEL
| 29>
| 30> %scf
| 31> MaxIter 1000
| 32> end
| 33>
| 34> * xyz 0 1
| 35>   C                      -1.181265            -1.693056            -5.197983
| 36>   O                      -2.537102            -1.387165            -4.926656
| 37>   H                      -2.571869            -0.459236            -5.177508
| 38>   H                      -1.007342            -1.646664            -6.277704
| 39>   H                      -0.509238            -0.915298            -4.700614
| 40>   H                      -0.756636            -2.632401            -4.853080
| 41>   C                    : -3.412686            -4.523992            -2.785309
| 42>   O                    : -2.477537            -4.119576            -3.778693
| 43>   H                    : -2.608273            -3.215468            -4.123627
| 44>   H                    : -3.306883            -5.572252            -2.486987
| 45>   H                    : -3.452466            -3.824920            -1.917810
| 46>   H                    : -4.370876            -4.457348            -3.269788
| 47> *
| 48>
| 49> #Run DFT-D3 single point of the particle with dimer basis set
| 50> $new_job
| 51> %base "19-165_DFT_B"
| 52> ! wB97X-D3 def2-TZVP TIGHTSCF CHELPG PMODEL
| 53>
| 54> %scf
| 55> MaxIter 1000
| 56> end
| 57>
| 58> * xyz 0 1
| 59>   C                    : -1.181265            -1.693056            -5.197983
| 60>   O                    : -2.537102            -1.387165            -4.926656
| 61>   H                    : -2.571869            -0.459236            -5.177508
| 62>   H                    : -1.007342            -1.646664            -6.277704
| 63>   H                    : -0.509238            -0.915298            -4.700614
| 64>   H                    : -0.756636            -2.632401            -4.853080
| 65>   C                      -3.412686            -4.523992            -2.785309
| 66>   O                      -2.477537            -4.119576            -3.778693
| 67>   H                      -2.608273            -3.215468            -4.123627
| 68>   H                      -3.306883            -5.572252            -2.486987
| 69>   H                      -3.452466            -3.824920            -1.917810
| 70>   H                      -4.370876            -4.457348            -3.269788
| 71> *
| 72>
| 73>                          ****END OF INPUT****
 Total Charge           Charge          ....    0
 Multiplicity           Mult            ....    1
 Number of Electrons    NEL             ....   36
Dispersion correction           -0.001641091
FINAL SINGLE POINT ENERGY      -231.467187524388
Dispersion correction           -0.000229837
FINAL SINGLE POINT ENERGY      -115.730207057055

CARTESIAN COORDINATES (ANGSTROEM)
---------------------------------
  C     -1.181265   -1.693056   -5.197983
  O     -2.537102   -1.387165   -4.926656
  H     -2.571869   -0.459236   -5.177508
  H     -1.007342   -1.646664   -6.277704
  H     -0.509238   -0.915298   -4.700614
  H     -0.756636   -2.632401   -4.853080
  C     -3.412686   -4.523992   -2.785309
  O     -2.477537   -4.119576   -3.778693
  H     -2.608273   -3.215468   -4.123627
  H     -3.306883   -5.572252   -2.486987
  H     -3.452466   -3.824920   -1.917810
  H     -4.370876   -4.457348   -3.269788

 Multiplicity           Mult            ....    1
 Number of Electrons    NEL             ....   18
 Basis Dimension        Dim             ....  172

ORBITAL ENERGIES
----------------

  NO   OCC          E(Eh)            E(eV)
   0   2.0000     -19.227291      -523.2012
   1   2.0000     -10.315568      -280.7009
   2   2.0000      -1.125582       -30.6286
   3   2.0000      -0.796884       -21.6843
   4   2.0000      -0.607147       -16.5213
   5   2.0000      -0.538501       -14.6534
   6   2.0000      -0.532960       -14.5026
   7   2.0000      -0.424611       -11.5543
   8   2.0000      -0.368862       -10.0372
   9   0.0000       0.075571         2.0564
  10   0.0000       0.132165         3.5964
  11   0.0000       0.156952         4.2709
  12   0.0000       0.168529         4.5859
  13   0.0000       0.195792         5.3278

MULLIKEN ATOMIC CHARGES
-----------------------
   0 C :   -0.004059
   1 O :   -0.000665
   2 H :   -0.000153
   3 H :   -0.000075
   4 H :    0.000996
   5 H :   -0.005517
   6 C :   -0.156357
   7 O :   -0.484718
   8 H :    0.318414
   9 H :    0.126022
  10 H :    0.099276
  11 H :    0.106837
Sum of atomic charges:   -0.0000000

LOEWDIN ATOMIC CHARGES
----------------------
   0 C :   -0.017428
   1 O :   -0.015347
   2 H :   -0.000586
   3 H :   -0.000215
   4 H :   -0.000140
   5 H :   -0.008631
   6 C :   -0.374030
   7 O :   -0.079028
   8 H :    0.192897
   9 H :    0.110819
  10 H :    0.098130
  11 H :    0.093560

  Mayer bond orders larger than 0.1
B(  6-C ,  7-O ) :   0.9821 B(  6-C ,  9-H ) :   0.9682 B(  6-C , 10-H ) :   0.9704
B(  6-C , 11-H ) :   0.9898 B(  7-O ,  8-H ) :   0.8917

Dispersion correction           -0.000250011
FINAL SINGLE POINT ENERGY      -115.731519391370

DIPOLE MOMENT
-------------
                                X             Y             Z
Electronic contribution:      1.31104       0.30561      -1.13294
Nuclear contribution   :     -1.81726       0.08616       1.31553
                        -----------------------------------------
Total Dipole Moment    :     -0.50622       0.39177       0.18259
                        -----------------------------------------
Magnitude (a.u.)       :      0.66564
Magnitude (Debye)      :      1.69193

Rotational constants in cm-1:     4.348683     0.816727     0.785250
Rotational constants in MHz : 130370.230066 24484.866706 23541.195007

                             ****ORCA TERMINATED NORMALLY****
TOTAL RUN TIME: 0 days 0 hours 0 minutes 51 seconds 702 msec
