                         Program Version 4.1.2  - RELEASE  -
|  1> #Run DFT-D3 single point of the dimer
|  2> ! wB97X-D3 def2-TZVP TIGHTSCF CHELPG PMODEL PAL8
|  3>
|  4> %base "7-67_DFT_AB"
|  5>
|  6> %scf
|  7> MaxIter 1000
|  8> end
|  9>
| 10> * xyz 0 1
| 11>   C                      -3.843015            3.387278             11.452532
| 12>   O                      -4.433860            3.915718             10.307268
| 13>   H                      -3.773737            3.785140             9.575087
| 14>   H                      -2.782898            3.479782             11.476008
| 15>   H                      -4.203933            3.855851             12.326470
| 16>   H                      -4.218804            2.365851             11.573091
| 17>   C                      -5.694663            5.855385             7.654485
| 18>   O                      -6.732413            4.908999             7.753493
| 19>   H                      -6.902734            4.785585             8.716413
| 20>   H                      -5.860336            6.901046             8.030014
| 21>   H                      -4.748003            5.517548             8.206239
| 22>   H                      -5.409941            5.988484             6.609934
| 23> *
| 24>
| 25> #Run DFT-D3 single point of the molecule with dimer basis set
| 26> $new_job
| 27> %base "7-67_DFT_A"
| 28> ! wB97X-D3 def2-TZVP TIGHTSCF CHELPG PMODEL
| 29>
| 30> %scf
| 31> MaxIter 1000
| 32> end
| 33>
| 34> * xyz 0 1
| 35>   C                      -3.843015            3.387278             11.452532
| 36>   O                      -4.433860            3.915718             10.307268
| 37>   H                      -3.773737            3.785140             9.575087
| 38>   H                      -2.782898            3.479782             11.476008
| 39>   H                      -4.203933            3.855851             12.326470
| 40>   H                      -4.218804            2.365851             11.573091
| 41>   C                    : -5.694663            5.855385             7.654485
| 42>   O                    : -6.732413            4.908999             7.753493
| 43>   H                    : -6.902734            4.785585             8.716413
| 44>   H                    : -5.860336            6.901046             8.030014
| 45>   H                    : -4.748003            5.517548             8.206239
| 46>   H                    : -5.409941            5.988484             6.609934
| 47> *
| 48>
| 49> #Run DFT-D3 single point of the particle with dimer basis set
| 50> $new_job
| 51> %base "7-67_DFT_B"
| 52> ! wB97X-D3 def2-TZVP TIGHTSCF CHELPG PMODEL
| 53>
| 54> %scf
| 55> MaxIter 1000
| 56> end
| 57>
| 58> * xyz 0 1
| 59>   C                    : -3.843015            3.387278             11.452532
| 60>   O                    : -4.433860            3.915718             10.307268
| 61>   H                    : -3.773737            3.785140             9.575087
| 62>   H                    : -2.782898            3.479782             11.476008
| 63>   H                    : -4.203933            3.855851             12.326470
| 64>   H                    : -4.218804            2.365851             11.573091
| 65>   C                      -5.694663            5.855385             7.654485
| 66>   O                      -6.732413            4.908999             7.753493
| 67>   H                      -6.902734            4.785585             8.716413
| 68>   H                      -5.860336            6.901046             8.030014
| 69>   H                      -4.748003            5.517548             8.206239
| 70>   H                      -5.409941            5.988484             6.609934
| 71> *
| 72>
| 73>                          ****END OF INPUT****
 Total Charge           Charge          ....    0
 Multiplicity           Mult            ....    1
 Number of Electrons    NEL             ....   36
Dispersion correction           -0.001529812
FINAL SINGLE POINT ENERGY      -231.467026253599
Dispersion correction           -0.000225766
FINAL SINGLE POINT ENERGY      -115.731095257359

CARTESIAN COORDINATES (ANGSTROEM)
---------------------------------
  C     -3.843015    3.387278   11.452532
  O     -4.433860    3.915718   10.307268
  H     -3.773737    3.785140    9.575087
  H     -2.782898    3.479782   11.476008
  H     -4.203933    3.855851   12.326470
  H     -4.218804    2.365851   11.573091
  C     -5.694663    5.855385    7.654485
  O     -6.732413    4.908999    7.753493
  H     -6.902734    4.785585    8.716413
  H     -5.860336    6.901046    8.030014
  H     -4.748003    5.517548    8.206239
  H     -5.409941    5.988484    6.609934

 Multiplicity           Mult            ....    1
 Number of Electrons    NEL             ....   18
 Basis Dimension        Dim             ....  172

ORBITAL ENERGIES
----------------

  NO   OCC          E(Eh)            E(eV)
   0   2.0000     -19.240073      -523.5490
   1   2.0000     -10.320638      -280.8388
   2   2.0000      -1.137939       -30.9649
   3   2.0000      -0.789351       -21.4793
   4   2.0000      -0.611847       -16.6492
   5   2.0000      -0.532673       -14.4948
   6   2.0000      -0.525552       -14.3010
   7   2.0000      -0.436891       -11.8884
   8   2.0000      -0.373849       -10.1729
   9   0.0000       0.078734         2.1425
  10   0.0000       0.117709         3.2030
  11   0.0000       0.145001         3.9457
  12   0.0000       0.170317         4.6346
  13   0.0000       0.196705         5.3526

MULLIKEN ATOMIC CHARGES
-----------------------
   0 C :   -0.000078
   1 O :   -0.000100
   2 H :    0.001104
   3 H :   -0.000007
   4 H :   -0.000034
   5 H :    0.000003
   6 C :   -0.175040
   7 O :   -0.458536
   8 H :    0.318317
   9 H :    0.101487
  10 H :    0.089348
  11 H :    0.123535
Sum of atomic charges:   -0.0000000

LOEWDIN ATOMIC CHARGES
----------------------
   0 C :   -0.000205
   1 O :   -0.003849
   2 H :   -0.003637
   3 H :   -0.000004
   4 H :   -0.000006
   5 H :   -0.000005
   6 C :   -0.409903
   7 O :   -0.074947
   8 H :    0.186646
   9 H :    0.096633
  10 H :    0.102271
  11 H :    0.107005

  Mayer bond orders larger than 0.1
B(  6-C ,  7-O ) :   1.0147 B(  6-C ,  9-H ) :   0.9663 B(  6-C , 10-H ) :   0.9739
B(  6-C , 11-H ) :   0.9756 B(  7-O ,  8-H ) :   0.8951

Dispersion correction           -0.000270187
FINAL SINGLE POINT ENERGY      -115.732934459366

DIPOLE MOMENT
-------------
                                X             Y             Z
Electronic contribution:     -1.54663      -1.30515      -0.05020
Nuclear contribution   :      1.82014       1.57871       0.58951
                        -----------------------------------------
Total Dipole Moment    :      0.27351       0.27356       0.53931
                        -----------------------------------------
Magnitude (a.u.)       :      0.66370
Magnitude (Debye)      :      1.68700

Rotational constants in cm-1:     4.223645     0.820516     0.789354
Rotational constants in MHz : 126621.688234 24598.463676 23664.239954

                             ****ORCA TERMINATED NORMALLY****
TOTAL RUN TIME: 0 days 0 hours 1 minutes 10 seconds 939 msec
