                         Program Version 4.1.2  - RELEASE  -
|  1> #Run DFT-D3 single point of the dimer
|  2> ! wB97X-D3 def2-TZVP TIGHTSCF CHELPG PMODEL PAL8
|  3>
|  4> %base "8-53_DFT_AB"
|  5>
|  6> %scf
|  7> MaxIter 1000
|  8> end
|  9>
| 10> * xyz 0 1
| 11>   C                      10.151555            8.697992             -2.113844
| 12>   O                      8.907114             8.041381             -1.854696
| 13>   H                      8.176294             8.540252             -2.215552
| 14>   H                      10.937525            7.939530             -1.949895
| 15>   H                      10.135819            9.106653             -3.162596
| 16>   H                      10.323929            9.538655             -1.477755
| 17>   C                      9.470405             4.474331             -1.884161
| 18>   O                      9.875035             4.666858             -0.602479
| 19>   H                      10.440360            5.453640             -0.584402
| 20>   H                      8.712579             3.731886             -1.997348
| 21>   H                      9.121315             5.305942             -2.494022
| 22>   H                      10.293838            4.029268             -2.511324
| 23> *
| 24>
| 25> #Run DFT-D3 single point of the molecule with dimer basis set
| 26> $new_job
| 27> %base "8-53_DFT_A"
| 28> ! wB97X-D3 def2-TZVP TIGHTSCF CHELPG PMODEL
| 29>
| 30> %scf
| 31> MaxIter 1000
| 32> end
| 33>
| 34> * xyz 0 1
| 35>   C                      10.151555            8.697992             -2.113844
| 36>   O                      8.907114             8.041381             -1.854696
| 37>   H                      8.176294             8.540252             -2.215552
| 38>   H                      10.937525            7.939530             -1.949895
| 39>   H                      10.135819            9.106653             -3.162596
| 40>   H                      10.323929            9.538655             -1.477755
| 41>   C                    : 9.470405             4.474331             -1.884161
| 42>   O                    : 9.875035             4.666858             -0.602479
| 43>   H                    : 10.440360            5.453640             -0.584402
| 44>   H                    : 8.712579             3.731886             -1.997348
| 45>   H                    : 9.121315             5.305942             -2.494022
| 46>   H                    : 10.293838            4.029268             -2.511324
| 47> *
| 48>
| 49> #Run DFT-D3 single point of the particle with dimer basis set
| 50> $new_job
| 51> %base "8-53_DFT_B"
| 52> ! wB97X-D3 def2-TZVP TIGHTSCF CHELPG PMODEL
| 53>
| 54> %scf
| 55> MaxIter 1000
| 56> end
| 57>
| 58> * xyz 0 1
| 59>   C                    : 10.151555            8.697992             -2.113844
| 60>   O                    : 8.907114             8.041381             -1.854696
| 61>   H                    : 8.176294             8.540252             -2.215552
| 62>   H                    : 10.937525            7.939530             -1.949895
| 63>   H                    : 10.135819            9.106653             -3.162596
| 64>   H                    : 10.323929            9.538655             -1.477755
| 65>   C                      9.470405             4.474331             -1.884161
| 66>   O                      9.875035             4.666858             -0.602479
| 67>   H                      10.440360            5.453640             -0.584402
| 68>   H                      8.712579             3.731886             -1.997348
| 69>   H                      9.121315             5.305942             -2.494022
| 70>   H                      10.293838            4.029268             -2.511324
| 71> *
| 72>
| 73>                          ****END OF INPUT****
 Total Charge           Charge          ....    0
 Multiplicity           Mult            ....    1
 Number of Electrons    NEL             ....   36
Dispersion correction           -0.001736358
FINAL SINGLE POINT ENERGY      -231.466972047077
Dispersion correction           -0.000247146
FINAL SINGLE POINT ENERGY      -115.734986791216

CARTESIAN COORDINATES (ANGSTROEM)
---------------------------------
  C     10.151555    8.697992   -2.113844
  O      8.907114    8.041381   -1.854696
  H      8.176294    8.540252   -2.215552
  H     10.937525    7.939530   -1.949895
  H     10.135819    9.106653   -3.162596
  H     10.323929    9.538655   -1.477755
  C      9.470405    4.474331   -1.884161
  O      9.875035    4.666858   -0.602479
  H     10.440360    5.453640   -0.584402
  H      8.712579    3.731886   -1.997348
  H      9.121315    5.305942   -2.494022
  H     10.293838    4.029268   -2.511324

 Multiplicity           Mult            ....    1
 Number of Electrons    NEL             ....   18
 Basis Dimension        Dim             ....  172

ORBITAL ENERGIES
----------------

  NO   OCC          E(Eh)            E(eV)
   0   2.0000     -19.237544      -523.4802
   1   2.0000     -10.307651      -280.4854
   2   2.0000      -1.156363       -31.4662
   3   2.0000      -0.796998       -21.6874
   4   2.0000      -0.626798       -17.0560
   5   2.0000      -0.540086       -14.6965
   6   2.0000      -0.537660       -14.6305
   7   2.0000      -0.433305       -11.7908
   8   2.0000      -0.369267       -10.0483
   9   0.0000       0.071334         1.9411
  10   0.0000       0.124877         3.3981
  11   0.0000       0.145616         3.9624
  12   0.0000       0.164046         4.4639
  13   0.0000       0.192332         5.2336

MULLIKEN ATOMIC CHARGES
-----------------------
   0 C :    0.000281
   1 O :   -0.000016
   2 H :   -0.000071
   3 H :   -0.000558
   4 H :   -0.000082
   5 H :    0.000021
   6 C :   -0.171299
   7 O :   -0.454841
   8 H :    0.321115
   9 H :    0.118048
  10 H :    0.099832
  11 H :    0.087570
Sum of atomic charges:   -0.0000000

LOEWDIN ATOMIC CHARGES
----------------------
   0 C :   -0.001410
   1 O :   -0.002178
   2 H :   -0.000224
   3 H :   -0.000810
   4 H :   -0.000021
   5 H :   -0.000015
   6 C :   -0.441218
   7 O :   -0.027757
   8 H :    0.183005
   9 H :    0.101954
  10 H :    0.092154
  11 H :    0.096520

  Mayer bond orders larger than 0.1
B(  6-C ,  7-O ) :   1.0169 B(  6-C ,  9-H ) :   0.9746 B(  6-C , 10-H ) :   0.9675
B(  6-C , 11-H ) :   0.9846 B(  7-O ,  8-H ) :   0.8950

Dispersion correction           -0.000241851
FINAL SINGLE POINT ENERGY      -115.730359867858

DIPOLE MOMENT
-------------
                                X             Y             Z
Electronic contribution:      0.38358       0.28059       2.00239
Nuclear contribution   :     -0.19252       0.15166      -2.43345
                        -----------------------------------------
Total Dipole Moment    :      0.19106       0.43224      -0.43106
                        -----------------------------------------
Magnitude (a.u.)       :      0.63965
Magnitude (Debye)      :      1.62585

Rotational constants in cm-1:     4.528318     0.867726     0.837068
Rotational constants in MHz : 135755.560621 26013.775474 25094.657852

                             ****ORCA TERMINATED NORMALLY****
TOTAL RUN TIME: 0 days 0 hours 0 minutes 46 seconds 349 msec
