                         Program Version 4.1.2  - RELEASE  -
|  1> #Run DFT-D3 single point of the dimer
|  2> ! wB97X-D3 def2-TZVP TIGHTSCF CHELPG PMODEL PAL8
|  3>
|  4> %base "7-85_DFT_AB"
|  5>
|  6> %scf
|  7> MaxIter 1000
|  8> end
|  9>
| 10> * xyz 0 1
| 11>   C                      3.021370             9.219144             -8.876034
| 12>   O                      2.988232             10.333611            -8.053201
| 13>   H                      3.566255             11.030090            -8.396873
| 14>   H                      2.927108             8.298902             -8.306554
| 15>   H                      2.081663             9.364225             -9.548580
| 16>   H                      3.885532             9.146176             -9.495416
| 17>   C                      5.984879             9.366201             -4.352677
| 18>   O                      5.103734             8.604437             -5.190026
| 19>   H                      5.546111             8.507868             -6.043658
| 20>   H                      6.940547             8.845719             -4.201357
| 21>   H                      6.138626             10.374440            -4.824616
| 22>   H                      5.660312             9.594255             -3.344438
| 23> *
| 24>
| 25> #Run DFT-D3 single point of the molecule with dimer basis set
| 26> $new_job
| 27> %base "7-85_DFT_A"
| 28> ! wB97X-D3 def2-TZVP TIGHTSCF CHELPG PMODEL
| 29>
| 30> %scf
| 31> MaxIter 1000
| 32> end
| 33>
| 34> * xyz 0 1
| 35>   C                      3.021370             9.219144             -8.876034
| 36>   O                      2.988232             10.333611            -8.053201
| 37>   H                      3.566255             11.030090            -8.396873
| 38>   H                      2.927108             8.298902             -8.306554
| 39>   H                      2.081663             9.364225             -9.548580
| 40>   H                      3.885532             9.146176             -9.495416
| 41>   C                    : 5.984879             9.366201             -4.352677
| 42>   O                    : 5.103734             8.604437             -5.190026
| 43>   H                    : 5.546111             8.507868             -6.043658
| 44>   H                    : 6.940547             8.845719             -4.201357
| 45>   H                    : 6.138626             10.374440            -4.824616
| 46>   H                    : 5.660312             9.594255             -3.344438
| 47> *
| 48>
| 49> #Run DFT-D3 single point of the particle with dimer basis set
| 50> $new_job
| 51> %base "7-85_DFT_B"
| 52> ! wB97X-D3 def2-TZVP TIGHTSCF CHELPG PMODEL
| 53>
| 54> %scf
| 55> MaxIter 1000
| 56> end
| 57>
| 58> * xyz 0 1
| 59>   C                    : 3.021370             9.219144             -8.876034
| 60>   O                    : 2.988232             10.333611            -8.053201
| 61>   H                    : 3.566255             11.030090            -8.396873
| 62>   H                    : 2.927108             8.298902             -8.306554
| 63>   H                    : 2.081663             9.364225             -9.548580
| 64>   H                    : 3.885532             9.146176             -9.495416
| 65>   C                      5.984879             9.366201             -4.352677
| 66>   O                      5.103734             8.604437             -5.190026
| 67>   H                      5.546111             8.507868             -6.043658
| 68>   H                      6.940547             8.845719             -4.201357
| 69>   H                      6.138626             10.374440            -4.824616
| 70>   H                      5.660312             9.594255             -3.344438
| 71> *
| 72>
| 73>                          ****END OF INPUT****
 Total Charge           Charge          ....    0
 Multiplicity           Mult            ....    1
 Number of Electrons    NEL             ....   36
Dispersion correction           -0.001060484
FINAL SINGLE POINT ENERGY      -231.461661812115
Dispersion correction           -0.000235639
FINAL SINGLE POINT ENERGY      -115.730207507065

CARTESIAN COORDINATES (ANGSTROEM)
---------------------------------
  C      3.021370    9.219144   -8.876034
  O      2.988232   10.333611   -8.053201
  H      3.566255   11.030090   -8.396873
  H      2.927108    8.298902   -8.306554
  H      2.081663    9.364225   -9.548580
  H      3.885532    9.146176   -9.495416
  C      5.984879    9.366201   -4.352677
  O      5.103734    8.604437   -5.190026
  H      5.546111    8.507868   -6.043658
  H      6.940547    8.845719   -4.201357
  H      6.138626   10.374440   -4.824616
  H      5.660312    9.594255   -3.344438

 Multiplicity           Mult            ....    1
 Number of Electrons    NEL             ....   18
 Basis Dimension        Dim             ....  172

ORBITAL ENERGIES
----------------

  NO   OCC          E(Eh)            E(eV)
   0   2.0000     -19.232523      -523.3436
   1   2.0000     -10.317836      -280.7626
   2   2.0000      -1.130214       -30.7547
   3   2.0000      -0.795280       -21.6407
   4   2.0000      -0.602644       -16.3988
   5   2.0000      -0.541272       -14.7288
   6   2.0000      -0.530972       -14.4485
   7   2.0000      -0.428979       -11.6731
   8   2.0000      -0.374876       -10.2009
   9   0.0000       0.081522         2.2183
  10   0.0000       0.123110         3.3500
  11   0.0000       0.147843         4.0230
  12   0.0000       0.168018         4.5720
  13   0.0000       0.195792         5.3278

MULLIKEN ATOMIC CHARGES
-----------------------
   0 C :   -0.002086
   1 O :    0.000053
   2 H :   -0.000025
   3 H :   -0.000107
   4 H :   -0.000032
   5 H :    0.000204
   6 C :   -0.174581
   7 O :   -0.472447
   8 H :    0.319853
   9 H :    0.104862
  10 H :    0.101850
  11 H :    0.122455
Sum of atomic charges:    0.0000000

LOEWDIN ATOMIC CHARGES
----------------------
   0 C :   -0.001141
   1 O :   -0.000450
   2 H :   -0.000112
   3 H :   -0.000320
   4 H :   -0.000025
   5 H :   -0.000028
   6 C :   -0.378458
   7 O :   -0.095130
   8 H :    0.173744
   9 H :    0.095898
  10 H :    0.101285
  11 H :    0.104738

  Mayer bond orders larger than 0.1
B(  6-C ,  7-O ) :   0.9966 B(  6-C ,  9-H ) :   0.9765 B(  6-C , 10-H ) :   0.9810
B(  6-C , 11-H ) :   0.9707 B(  7-O ,  8-H ) :   0.8948

Dispersion correction           -0.000251504
FINAL SINGLE POINT ENERGY      -115.732230267859

DIPOLE MOMENT
-------------
                                X             Y             Z
Electronic contribution:     -1.29322      -1.05825      -0.90636
Nuclear contribution   :      1.92821       1.30492       0.74039
                        -----------------------------------------
Total Dipole Moment    :      0.63499       0.24667      -0.16596
                        -----------------------------------------
Magnitude (a.u.)       :      0.70114
Magnitude (Debye)      :      1.78216

Rotational constants in cm-1:     4.323279     0.799362     0.780594
Rotational constants in MHz : 129608.642233 23964.265150 23401.609485

                             ****ORCA TERMINATED NORMALLY****
TOTAL RUN TIME: 0 days 0 hours 0 minutes 57 seconds 370 msec
