                         Program Version 4.1.2  - RELEASE  -
|  1> #Run DFT-D3 single point of the dimer
|  2> ! wB97X-D3 def2-TZVP TIGHTSCF CHELPG PMODEL PAL8
|  3>
|  4> %base "2-49_DFT_AB"
|  5>
|  6> %scf
|  7> MaxIter 1000
|  8> end
|  9>
| 10> * xyz 0 1
| 11>   C                      -8.188592            6.299989             8.631116
| 12>   O                      -7.155412            5.502019             8.031139
| 13>   H                      -6.397915            6.059291             7.795830
| 14>   H                      -7.792349            7.169263             9.225792
| 15>   H                      -9.011123            6.514553             7.862433
| 16>   H                      -8.740029            5.735765             9.411922
| 17>   C                      -5.133653            6.341155             4.742406
| 18>   O                      -5.119965            5.757814             5.996789
| 19>   H                      -4.614317            6.391830             6.569836
| 20>   H                      -5.439715            7.357164             4.755278
| 21>   H                      -4.234583            6.205325             4.158552
| 22>   H                      -5.880882            5.822539             4.108501
| 23> *
| 24>
| 25> #Run DFT-D3 single point of the molecule with dimer basis set
| 26> $new_job
| 27> %base "2-49_DFT_A"
| 28> ! wB97X-D3 def2-TZVP TIGHTSCF CHELPG PMODEL
| 29>
| 30> %scf
| 31> MaxIter 1000
| 32> end
| 33>
| 34> * xyz 0 1
| 35>   C                      -8.188592            6.299989             8.631116
| 36>   O                      -7.155412            5.502019             8.031139
| 37>   H                      -6.397915            6.059291             7.795830
| 38>   H                      -7.792349            7.169263             9.225792
| 39>   H                      -9.011123            6.514553             7.862433
| 40>   H                      -8.740029            5.735765             9.411922
| 41>   C                    : -5.133653            6.341155             4.742406
| 42>   O                    : -5.119965            5.757814             5.996789
| 43>   H                    : -4.614317            6.391830             6.569836
| 44>   H                    : -5.439715            7.357164             4.755278
| 45>   H                    : -4.234583            6.205325             4.158552
| 46>   H                    : -5.880882            5.822539             4.108501
| 47> *
| 48>
| 49> #Run DFT-D3 single point of the particle with dimer basis set
| 50> $new_job
| 51> %base "2-49_DFT_B"
| 52> ! wB97X-D3 def2-TZVP TIGHTSCF CHELPG PMODEL
| 53>
| 54> %scf
| 55> MaxIter 1000
| 56> end
| 57>
| 58> * xyz 0 1
| 59>   C                    : -8.188592            6.299989             8.631116
| 60>   O                    : -7.155412            5.502019             8.031139
| 61>   H                    : -6.397915            6.059291             7.795830
| 62>   H                    : -7.792349            7.169263             9.225792
| 63>   H                    : -9.011123            6.514553             7.862433
| 64>   H                    : -8.740029            5.735765             9.411922
| 65>   C                      -5.133653            6.341155             4.742406
| 66>   O                      -5.119965            5.757814             5.996789
| 67>   H                      -4.614317            6.391830             6.569836
| 68>   H                      -5.439715            7.357164             4.755278
| 69>   H                      -4.234583            6.205325             4.158552
| 70>   H                      -5.880882            5.822539             4.108501
| 71> *
| 72>
| 73>                          ****END OF INPUT****
 Total Charge           Charge          ....    0
 Multiplicity           Mult            ....    1
 Number of Electrons    NEL             ....   36
Dispersion correction           -0.001435319
FINAL SINGLE POINT ENERGY      -231.461368865530
Dispersion correction           -0.000284847
FINAL SINGLE POINT ENERGY      -115.730177116930

CARTESIAN COORDINATES (ANGSTROEM)
---------------------------------
  C     -8.188592    6.299989    8.631116
  O     -7.155412    5.502019    8.031139
  H     -6.397915    6.059291    7.795830
  H     -7.792349    7.169263    9.225792
  H     -9.011123    6.514553    7.862433
  H     -8.740029    5.735765    9.411922
  C     -5.133653    6.341155    4.742406
  O     -5.119965    5.757814    5.996789
  H     -4.614317    6.391830    6.569836
  H     -5.439715    7.357164    4.755278
  H     -4.234583    6.205325    4.158552
  H     -5.880882    5.822539    4.108501

 Multiplicity           Mult            ....    1
 Number of Electrons    NEL             ....   18
 Basis Dimension        Dim             ....  172

ORBITAL ENERGIES
----------------

  NO   OCC          E(Eh)            E(eV)
   0   2.0000     -19.237069      -523.4672
   1   2.0000     -10.305938      -280.4388
   2   2.0000      -1.143590       -31.1187
   3   2.0000      -0.794328       -21.6148
   4   2.0000      -0.614353       -16.7174
   5   2.0000      -0.552046       -15.0219
   6   2.0000      -0.527510       -14.3543
   7   2.0000      -0.430590       -11.7170
   8   2.0000      -0.375598       -10.2205
   9   0.0000       0.091236         2.4826
  10   0.0000       0.119233         3.2445
  11   0.0000       0.152981         4.1628
  12   0.0000       0.193713         5.2712
  13   0.0000       0.200447         5.4544

MULLIKEN ATOMIC CHARGES
-----------------------
   0 C :    0.001876
   1 O :    0.006099
   2 H :   -0.021992
   3 H :    0.000023
   4 H :   -0.000123
   5 H :   -0.000097
   6 C :   -0.167508
   7 O :   -0.454201
   8 H :    0.319933
   9 H :    0.106024
  10 H :    0.100320
  11 H :    0.109646
Sum of atomic charges:   -0.0000000

LOEWDIN ATOMIC CHARGES
----------------------
   0 C :   -0.000782
   1 O :   -0.008053
   2 H :   -0.023487
   3 H :   -0.000014
   4 H :   -0.000036
   5 H :   -0.000032
   6 C :   -0.416907
   7 O :   -0.039192
   8 H :    0.195706
   9 H :    0.088462
  10 H :    0.092415
  11 H :    0.111919

  Mayer bond orders larger than 0.1
B(  6-C ,  7-O ) :   1.0068 B(  6-C ,  9-H ) :   0.9798 B(  6-C , 10-H ) :   0.9708
B(  6-C , 11-H ) :   0.9779 B(  7-O ,  8-H ) :   0.8915

Dispersion correction           -0.000231123
FINAL SINGLE POINT ENERGY      -115.733151735382

DIPOLE MOMENT
-------------
                                X             Y             Z
Electronic contribution:      0.02201      -0.81785       1.69625
Nuclear contribution   :      0.27372       1.42662      -1.83087
                        -----------------------------------------
Total Dipole Moment    :      0.29573       0.60877      -0.13463
                        -----------------------------------------
Magnitude (a.u.)       :      0.69007
Magnitude (Debye)      :      1.75401

Rotational constants in cm-1:     4.370337     0.858205     0.826160
Rotational constants in MHz : 131019.408041 25728.329588 24767.655934

                             ****ORCA TERMINATED NORMALLY****
TOTAL RUN TIME: 0 days 0 hours 6 minutes 3 seconds 983 msec
