                         Program Version 4.1.2  - RELEASE  -
|  1> #Run DFT-D3 single point of the dimer
|  2> ! wB97X-D3 def2-TZVP TIGHTSCF CHELPG PMODEL PAL8
|  3>
|  4> %base "14-129_DFT_AB"
|  5>
|  6> %scf
|  7> MaxIter 1000
|  8> end
|  9>
| 10> * xyz 0 1
| 11>   C                      -4.769766            -3.580536            9.570225
| 12>   O                      -4.512011            -2.670247            8.537336
| 13>   H                      -4.507633            -1.874928            9.074293
| 14>   H                      -4.004359            -3.378747            10.345685
| 15>   H                      -5.746053            -3.566870            10.002338
| 16>   H                      -4.559165            -4.618552            9.236661
| 17>   C                      -7.170731            -7.018822            7.564940
| 18>   O                      -7.322820            -5.911214            8.512337
| 19>   H                      -6.836941            -6.193538            9.276984
| 20>   H                      -6.103966            -7.129200            7.394110
| 21>   H                      -7.618076            -7.927522            7.928015
| 22>   H                      -7.607726            -6.839114            6.564391
| 23> *
| 24>
| 25> #Run DFT-D3 single point of the molecule with dimer basis set
| 26> $new_job
| 27> %base "14-129_DFT_A"
| 28> ! wB97X-D3 def2-TZVP TIGHTSCF CHELPG PMODEL
| 29>
| 30> %scf
| 31> MaxIter 1000
| 32> end
| 33>
| 34> * xyz 0 1
| 35>   C                      -4.769766            -3.580536            9.570225
| 36>   O                      -4.512011            -2.670247            8.537336
| 37>   H                      -4.507633            -1.874928            9.074293
| 38>   H                      -4.004359            -3.378747            10.345685
| 39>   H                      -5.746053            -3.566870            10.002338
| 40>   H                      -4.559165            -4.618552            9.236661
| 41>   C                    : -7.170731            -7.018822            7.564940
| 42>   O                    : -7.322820            -5.911214            8.512337
| 43>   H                    : -6.836941            -6.193538            9.276984
| 44>   H                    : -6.103966            -7.129200            7.394110
| 45>   H                    : -7.618076            -7.927522            7.928015
| 46>   H                    : -7.607726            -6.839114            6.564391
| 47> *
| 48>
| 49> #Run DFT-D3 single point of the particle with dimer basis set
| 50> $new_job
| 51> %base "14-129_DFT_B"
| 52> ! wB97X-D3 def2-TZVP TIGHTSCF CHELPG PMODEL
| 53>
| 54> %scf
| 55> MaxIter 1000
| 56> end
| 57>
| 58> * xyz 0 1
| 59>   C                    : -4.769766            -3.580536            9.570225
| 60>   O                    : -4.512011            -2.670247            8.537336
| 61>   H                    : -4.507633            -1.874928            9.074293
| 62>   H                    : -4.004359            -3.378747            10.345685
| 63>   H                    : -5.746053            -3.566870            10.002338
| 64>   H                    : -4.559165            -4.618552            9.236661
| 65>   C                      -7.170731            -7.018822            7.564940
| 66>   O                      -7.322820            -5.911214            8.512337
| 67>   H                      -6.836941            -6.193538            9.276984
| 68>   H                      -6.103966            -7.129200            7.394110
| 69>   H                      -7.618076            -7.927522            7.928015
| 70>   H                      -7.607726            -6.839114            6.564391
| 71> *
| 72>
| 73>                          ****END OF INPUT****
 Total Charge           Charge          ....    0
 Multiplicity           Mult            ....    1
 Number of Electrons    NEL             ....   36
Dispersion correction           -0.001400018
FINAL SINGLE POINT ENERGY      -231.463076337313
Dispersion correction           -0.000208334
FINAL SINGLE POINT ENERGY      -115.730224438695

CARTESIAN COORDINATES (ANGSTROEM)
---------------------------------
  C     -4.769766   -3.580536    9.570225
  O     -4.512011   -2.670247    8.537336
  H     -4.507633   -1.874928    9.074293
  H     -4.004359   -3.378747   10.345685
  H     -5.746053   -3.566870   10.002338
  H     -4.559165   -4.618552    9.236661
  C     -7.170731   -7.018822    7.564940
  O     -7.322820   -5.911214    8.512337
  H     -6.836941   -6.193538    9.276984
  H     -6.103966   -7.129200    7.394110
  H     -7.618076   -7.927522    7.928015
  H     -7.607726   -6.839114    6.564391

 Multiplicity           Mult            ....    1
 Number of Electrons    NEL             ....   18
 Basis Dimension        Dim             ....  172

ORBITAL ENERGIES
----------------

  NO   OCC          E(Eh)            E(eV)
   0   2.0000     -19.230467      -523.2876
   1   2.0000     -10.316954      -280.7386
   2   2.0000      -1.126339       -30.6492
   3   2.0000      -0.798812       -21.7368
   4   2.0000      -0.598918       -16.2974
   5   2.0000      -0.546319       -14.8661
   6   2.0000      -0.524248       -14.2655
   7   2.0000      -0.436142       -11.8680
   8   2.0000      -0.377506       -10.2725
   9   0.0000       0.088410         2.4058
  10   0.0000       0.123770         3.3680
  11   0.0000       0.149004         4.0546
  12   0.0000       0.180083         4.9003
  13   0.0000       0.188525         5.1300

MULLIKEN ATOMIC CHARGES
-----------------------
   0 C :   -0.000548
   1 O :   -0.000005
   2 H :   -0.000035
   3 H :   -0.000534
   4 H :   -0.000695
   5 H :   -0.006124
   6 C :   -0.180997
   7 O :   -0.470517
   8 H :    0.313918
   9 H :    0.112078
  10 H :    0.111085
  11 H :    0.122375
Sum of atomic charges:    0.0000000

LOEWDIN ATOMIC CHARGES
----------------------
   0 C :   -0.006280
   1 O :   -0.000017
   2 H :   -0.000015
   3 H :   -0.000101
   4 H :   -0.001577
   5 H :   -0.002917
   6 C :   -0.348700
   7 O :   -0.101078
   8 H :    0.159732
   9 H :    0.096879
  10 H :    0.092424
  11 H :    0.111649

  Mayer bond orders larger than 0.1
B(  6-C ,  7-O ) :   0.9915 B(  6-C ,  9-H ) :   0.9819 B(  6-C , 10-H ) :   0.9739
B(  6-C , 11-H ) :   0.9725 B(  7-O ,  8-H ) :   0.9025

Dispersion correction           -0.000244891
FINAL SINGLE POINT ENERGY      -115.732739415096

DIPOLE MOMENT
-------------
                                X             Y             Z
Electronic contribution:     -0.34805       1.41822       1.08301
Nuclear contribution   :      0.70697      -2.07875      -1.02744
                        -----------------------------------------
Total Dipole Moment    :      0.35893      -0.66053       0.05557
                        -----------------------------------------
Magnitude (a.u.)       :      0.75380
Magnitude (Debye)      :      1.91602

Rotational constants in cm-1:     4.343894     0.784749     0.761891
Rotational constants in MHz : 130226.680152 23526.181470 22840.913022

                             ****ORCA TERMINATED NORMALLY****
TOTAL RUN TIME: 0 days 0 hours 1 minutes 8 seconds 353 msec
