                         Program Version 4.1.2  - RELEASE  -
|  1> #Run DFT-D3 single point of the dimer
|  2> ! wB97X-D3 def2-TZVP TIGHTSCF CHELPG PMODEL PAL8
|  3>
|  4> %base "10-87_DFT_AB"
|  5>
|  6> %scf
|  7> MaxIter 1000
|  8> end
|  9>
| 10> * xyz 0 1
| 11>   C                      0.325050             3.682876             4.670970
| 12>   O                      -0.846528            4.166738             4.035653
| 13>   H                      -1.548622            4.059657             4.702336
| 14>   H                      0.917244             3.089913             4.008710
| 15>   H                      1.078371             4.362851             4.962118
| 16>   H                      0.047949             3.124406             5.575140
| 17>   C                      3.639988             6.357065             6.076319
| 18>   O                      4.405180             7.512862             5.781901
| 19>   H                      3.861962             8.228284             5.423984
| 20>   H                      2.636027             6.467495             5.668467
| 21>   H                      3.983143             5.472368             5.565540
| 22>   H                      3.713153             6.233174             7.130214
| 23> *
| 24>
| 25> #Run DFT-D3 single point of the molecule with dimer basis set
| 26> $new_job
| 27> %base "10-87_DFT_A"
| 28> ! wB97X-D3 def2-TZVP TIGHTSCF CHELPG PMODEL
| 29>
| 30> %scf
| 31> MaxIter 1000
| 32> end
| 33>
| 34> * xyz 0 1
| 35>   C                      0.325050             3.682876             4.670970
| 36>   O                      -0.846528            4.166738             4.035653
| 37>   H                      -1.548622            4.059657             4.702336
| 38>   H                      0.917244             3.089913             4.008710
| 39>   H                      1.078371             4.362851             4.962118
| 40>   H                      0.047949             3.124406             5.575140
| 41>   C                    : 3.639988             6.357065             6.076319
| 42>   O                    : 4.405180             7.512862             5.781901
| 43>   H                    : 3.861962             8.228284             5.423984
| 44>   H                    : 2.636027             6.467495             5.668467
| 45>   H                    : 3.983143             5.472368             5.565540
| 46>   H                    : 3.713153             6.233174             7.130214
| 47> *
| 48>
| 49> #Run DFT-D3 single point of the particle with dimer basis set
| 50> $new_job
| 51> %base "10-87_DFT_B"
| 52> ! wB97X-D3 def2-TZVP TIGHTSCF CHELPG PMODEL
| 53>
| 54> %scf
| 55> MaxIter 1000
| 56> end
| 57>
| 58> * xyz 0 1
| 59>   C                    : 0.325050             3.682876             4.670970
| 60>   O                    : -0.846528            4.166738             4.035653
| 61>   H                    : -1.548622            4.059657             4.702336
| 62>   H                    : 0.917244             3.089913             4.008710
| 63>   H                    : 1.078371             4.362851             4.962118
| 64>   H                    : 0.047949             3.124406             5.575140
| 65>   C                      3.639988             6.357065             6.076319
| 66>   O                      4.405180             7.512862             5.781901
| 67>   H                      3.861962             8.228284             5.423984
| 68>   H                      2.636027             6.467495             5.668467
| 69>   H                      3.983143             5.472368             5.565540
| 70>   H                      3.713153             6.233174             7.130214
| 71> *
| 72>
| 73>                          ****END OF INPUT****
 Total Charge           Charge          ....    0
 Multiplicity           Mult            ....    1
 Number of Electrons    NEL             ....   36
Dispersion correction           -0.001071751
FINAL SINGLE POINT ENERGY      -231.460570411296
Dispersion correction           -0.000247701
FINAL SINGLE POINT ENERGY      -115.728451958882

CARTESIAN COORDINATES (ANGSTROEM)
---------------------------------
  C      0.325050    3.682876    4.670970
  O     -0.846528    4.166738    4.035653
  H     -1.548622    4.059657    4.702336
  H      0.917244    3.089913    4.008710
  H      1.078371    4.362851    4.962118
  H      0.047949    3.124406    5.575140
  C      3.639988    6.357065    6.076319
  O      4.405180    7.512862    5.781901
  H      3.861962    8.228284    5.423984
  H      2.636027    6.467495    5.668467
  H      3.983143    5.472368    5.565540
  H      3.713153    6.233174    7.130214

 Multiplicity           Mult            ....    1
 Number of Electrons    NEL             ....   18
 Basis Dimension        Dim             ....  172

ORBITAL ENERGIES
----------------

  NO   OCC          E(Eh)            E(eV)
   0   2.0000     -19.225072      -523.1408
   1   2.0000     -10.307591      -280.4838
   2   2.0000      -1.129404       -30.7327
   3   2.0000      -0.799384       -21.7523
   4   2.0000      -0.610766       -16.6198
   5   2.0000      -0.547553       -14.8997
   6   2.0000      -0.527973       -14.3669
   7   2.0000      -0.425140       -11.5687
   8   2.0000      -0.371631       -10.1126
   9   0.0000       0.084380         2.2961
  10   0.0000       0.113816         3.0971
  11   0.0000       0.145161         3.9500
  12   0.0000       0.173592         4.7237
  13   0.0000       0.187341         5.0978

MULLIKEN ATOMIC CHARGES
-----------------------
   0 C :    0.003299
   1 O :   -0.000033
   2 H :   -0.000005
   3 H :   -0.000238
   4 H :   -0.005864
   5 H :   -0.000107
   6 C :   -0.143578
   7 O :   -0.493374
   8 H :    0.319331
   9 H :    0.102425
  10 H :    0.105354
  11 H :    0.112788
Sum of atomic charges:    0.0000000

LOEWDIN ATOMIC CHARGES
----------------------
   0 C :   -0.000599
   1 O :   -0.000005
   2 H :   -0.000001
   3 H :   -0.000020
   4 H :   -0.002351
   5 H :   -0.000006
   6 C :   -0.372352
   7 O :   -0.088707
   8 H :    0.170834
   9 H :    0.098552
  10 H :    0.097942
  11 H :    0.096713

  Mayer bond orders larger than 0.1
B(  6-C ,  7-O ) :   1.0064 B(  6-C ,  9-H ) :   0.9900 B(  6-C , 10-H ) :   0.9714
B(  6-C , 11-H ) :   0.9770 B(  7-O ,  8-H ) :   0.8967

Dispersion correction           -0.000241313
FINAL SINGLE POINT ENERGY      -115.731540173177

DIPOLE MOMENT
-------------
                                X             Y             Z
Electronic contribution:      1.04704       1.35070      -0.25817
Nuclear contribution   :     -1.72785      -1.35957       0.12567
                        -----------------------------------------
Total Dipole Moment    :     -0.68082      -0.00887      -0.13249
                        -----------------------------------------
Magnitude (a.u.)       :      0.69365
Magnitude (Debye)      :      1.76311

Rotational constants in cm-1:     4.398591     0.831847     0.802334
Rotational constants in MHz : 131866.439760 24938.152966 24053.360927

                             ****ORCA TERMINATED NORMALLY****
TOTAL RUN TIME: 0 days 0 hours 0 minutes 58 seconds 439 msec
