                         Program Version 4.1.2  - RELEASE  -
|  1> #Run DFT-D3 single point of the dimer
|  2> ! wB97X-D3 def2-TZVP TIGHTSCF CHELPG PMODEL PAL8
|  3>
|  4> %base "15-5_DFT_AB"
|  5>
|  6> %scf
|  7> MaxIter 1000
|  8> end
|  9>
| 10> * xyz 0 1
| 11>   C                      -6.481891            -7.877271            7.250222
| 12>   O                      -6.198547            -6.565036            6.837370
| 13>   H                      -6.806889            -6.005382            7.336781
| 14>   H                      -7.552956            -8.073217            7.112625
| 15>   H                      -5.784904            -8.580147            6.772301
| 16>   H                      -6.373916            -7.930089            8.316778
| 17>   C                      -2.666083            -6.362759            7.517748
| 18>   O                      -3.793250            -5.568648            7.888286
| 19>   H                      -4.571121            -6.101664            7.614663
| 20>   H                      -2.570844            -6.438066            6.413652
| 21>   H                      -1.717731            -5.986087            7.888188
| 22>   H                      -2.698417            -7.418068            7.962790
| 23> *
| 24>
| 25> #Run DFT-D3 single point of the molecule with dimer basis set
| 26> $new_job
| 27> %base "15-5_DFT_A"
| 28> ! wB97X-D3 def2-TZVP TIGHTSCF CHELPG PMODEL
| 29>
| 30> %scf
| 31> MaxIter 1000
| 32> end
| 33>
| 34> * xyz 0 1
| 35>   C                      -6.481891            -7.877271            7.250222
| 36>   O                      -6.198547            -6.565036            6.837370
| 37>   H                      -6.806889            -6.005382            7.336781
| 38>   H                      -7.552956            -8.073217            7.112625
| 39>   H                      -5.784904            -8.580147            6.772301
| 40>   H                      -6.373916            -7.930089            8.316778
| 41>   C                    : -2.666083            -6.362759            7.517748
| 42>   O                    : -3.793250            -5.568648            7.888286
| 43>   H                    : -4.571121            -6.101664            7.614663
| 44>   H                    : -2.570844            -6.438066            6.413652
| 45>   H                    : -1.717731            -5.986087            7.888188
| 46>   H                    : -2.698417            -7.418068            7.962790
| 47> *
| 48>
| 49> #Run DFT-D3 single point of the particle with dimer basis set
| 50> $new_job
| 51> %base "15-5_DFT_B"
| 52> ! wB97X-D3 def2-TZVP TIGHTSCF CHELPG PMODEL
| 53>
| 54> %scf
| 55> MaxIter 1000
| 56> end
| 57>
| 58> * xyz 0 1
| 59>   C                    : -6.481891            -7.877271            7.250222
| 60>   O                    : -6.198547            -6.565036            6.837370
| 61>   H                    : -6.806889            -6.005382            7.336781
| 62>   H                    : -7.552956            -8.073217            7.112625
| 63>   H                    : -5.784904            -8.580147            6.772301
| 64>   H                    : -6.373916            -7.930089            8.316778
| 65>   C                      -2.666083            -6.362759            7.517748
| 66>   O                      -3.793250            -5.568648            7.888286
| 67>   H                      -4.571121            -6.101664            7.614663
| 68>   H                      -2.570844            -6.438066            6.413652
| 69>   H                      -1.717731            -5.986087            7.888188
| 70>   H                      -2.698417            -7.418068            7.962790
| 71> *
| 72>
| 73>                          ****END OF INPUT****
 Total Charge           Charge          ....    0
 Multiplicity           Mult            ....    1
 Number of Electrons    NEL             ....   36
Dispersion correction           -0.001855614
FINAL SINGLE POINT ENERGY      -231.474643941643
Dispersion correction           -0.000206335
FINAL SINGLE POINT ENERGY      -115.733612043489

CARTESIAN COORDINATES (ANGSTROEM)
---------------------------------
  C     -6.481891   -7.877271    7.250222
  O     -6.198547   -6.565036    6.837370
  H     -6.806889   -6.005382    7.336781
  H     -7.552956   -8.073217    7.112625
  H     -5.784904   -8.580147    6.772301
  H     -6.373916   -7.930089    8.316778
  C     -2.666083   -6.362759    7.517748
  O     -3.793250   -5.568648    7.888286
  H     -4.571121   -6.101664    7.614663
  H     -2.570844   -6.438066    6.413652
  H     -1.717731   -5.986087    7.888188
  H     -2.698417   -7.418068    7.962790

 Multiplicity           Mult            ....    1
 Number of Electrons    NEL             ....   18
 Basis Dimension        Dim             ....  172

ORBITAL ENERGIES
----------------

  NO   OCC          E(Eh)            E(eV)
   0   2.0000     -19.237321      -523.4741
   1   2.0000     -10.321218      -280.8546
   2   2.0000      -1.132065       -30.8051
   3   2.0000      -0.790489       -21.5103
   4   2.0000      -0.603047       -16.4097
   5   2.0000      -0.539170       -14.6716
   6   2.0000      -0.526621       -14.3301
   7   2.0000      -0.434030       -11.8106
   8   2.0000      -0.375727       -10.2241
   9   0.0000       0.067234         1.8295
  10   0.0000       0.133077         3.6212
  11   0.0000       0.146521         3.9870
  12   0.0000       0.173044         4.7088
  13   0.0000       0.180034         4.8990

MULLIKEN ATOMIC CHARGES
-----------------------
   0 C :   -0.003600
   1 O :   -0.002492
   2 H :   -0.000440
   3 H :   -0.000158
   4 H :    0.000319
   5 H :   -0.000328
   6 C :   -0.175179
   7 O :   -0.460776
   8 H :    0.315836
   9 H :    0.106211
  10 H :    0.121730
  11 H :    0.098878
Sum of atomic charges:    0.0000000

LOEWDIN ATOMIC CHARGES
----------------------
   0 C :   -0.007456
   1 O :   -0.023392
   2 H :   -0.002497
   3 H :   -0.000157
   4 H :   -0.000365
   5 H :   -0.000924
   6 C :   -0.389257
   7 O :   -0.078866
   8 H :    0.197728
   9 H :    0.097717
  10 H :    0.104371
  11 H :    0.103098

  Mayer bond orders larger than 0.1
B(  6-C ,  7-O ) :   0.9956 B(  6-C ,  9-H ) :   0.9733 B(  6-C , 10-H ) :   0.9728
B(  6-C , 11-H ) :   0.9745 B(  7-O ,  8-H ) :   0.9050

Dispersion correction           -0.000257770
FINAL SINGLE POINT ENERGY      -115.733538559540

DIPOLE MOMENT
-------------
                                X             Y             Z
Electronic contribution:     -1.38488       1.26478       0.54642
Nuclear contribution   :      1.37112      -1.88607      -0.84869
                        -----------------------------------------
Total Dipole Moment    :     -0.01376      -0.62130      -0.30227
                        -----------------------------------------
Magnitude (a.u.)       :      0.69106
Magnitude (Debye)      :      1.75653

Rotational constants in cm-1:     4.189633     0.805910     0.782876
Rotational constants in MHz : 125602.034676 24160.565197 23470.022400

                             ****ORCA TERMINATED NORMALLY****
TOTAL RUN TIME: 0 days 0 hours 0 minutes 56 seconds 272 msec
