                         Program Version 4.1.2  - RELEASE  -
|  1> #Run DFT-D3 single point of the dimer
|  2> ! wB97X-D3 def2-TZVP TIGHTSCF CHELPG PMODEL PAL8
|  3>
|  4> %base "8-191_DFT_AB"
|  5>
|  6> %scf
|  7> MaxIter 1000
|  8> end
|  9>
| 10> * xyz 0 1
| 11>   C                      -8.419995            4.983387             7.231056
| 12>   O                      -8.925307            4.145394             8.291104
| 13>   H                      -9.807980            4.169145             8.024877
| 14>   H                      -8.118618            5.961842             7.656485
| 15>   H                      -7.403915            4.578973             6.863070
| 16>   H                      -8.992139            5.220278             6.336531
| 17>   C                      -11.249174           2.018224             5.395163
| 18>   O                      -10.634018           3.354803             5.549049
| 19>   H                      -9.685463            3.182150             5.422154
| 20>   H                      -12.363706           2.057807             5.528582
| 21>   H                      -11.108641           1.548726             4.443364
| 22>   H                      -10.909125           1.291521             6.139330
| 23> *
| 24>
| 25> #Run DFT-D3 single point of the molecule with dimer basis set
| 26> $new_job
| 27> %base "8-191_DFT_A"
| 28> ! wB97X-D3 def2-TZVP TIGHTSCF CHELPG PMODEL
| 29>
| 30> %scf
| 31> MaxIter 1000
| 32> end
| 33>
| 34> * xyz 0 1
| 35>   C                      -8.419995            4.983387             7.231056
| 36>   O                      -8.925307            4.145394             8.291104
| 37>   H                      -9.807980            4.169145             8.024877
| 38>   H                      -8.118618            5.961842             7.656485
| 39>   H                      -7.403915            4.578973             6.863070
| 40>   H                      -8.992139            5.220278             6.336531
| 41>   C                    : -11.249174           2.018224             5.395163
| 42>   O                    : -10.634018           3.354803             5.549049
| 43>   H                    : -9.685463            3.182150             5.422154
| 44>   H                    : -12.363706           2.057807             5.528582
| 45>   H                    : -11.108641           1.548726             4.443364
| 46>   H                    : -10.909125           1.291521             6.139330
| 47> *
| 48>
| 49> #Run DFT-D3 single point of the particle with dimer basis set
| 50> $new_job
| 51> %base "8-191_DFT_B"
| 52> ! wB97X-D3 def2-TZVP TIGHTSCF CHELPG PMODEL
| 53>
| 54> %scf
| 55> MaxIter 1000
| 56> end
| 57>
| 58> * xyz 0 1
| 59>   C                    : -8.419995            4.983387             7.231056
| 60>   O                    : -8.925307            4.145394             8.291104
| 61>   H                    : -9.807980            4.169145             8.024877
| 62>   H                    : -8.118618            5.961842             7.656485
| 63>   H                    : -7.403915            4.578973             6.863070
| 64>   H                    : -8.992139            5.220278             6.336531
| 65>   C                      -11.249174           2.018224             5.395163
| 66>   O                      -10.634018           3.354803             5.549049
| 67>   H                      -9.685463            3.182150             5.422154
| 68>   H                      -12.363706           2.057807             5.528582
| 69>   H                      -11.108641           1.548726             4.443364
| 70>   H                      -10.909125           1.291521             6.139330
| 71> *
| 72>
| 73>                          ****END OF INPUT****
 Total Charge           Charge          ....    0
 Multiplicity           Mult            ....    1
 Number of Electrons    NEL             ....   36
Dispersion correction           -0.001927467
FINAL SINGLE POINT ENERGY      -231.459472520516
Dispersion correction           -0.000266251
FINAL SINGLE POINT ENERGY      -115.723029146392

CARTESIAN COORDINATES (ANGSTROEM)
---------------------------------
  C     -8.419995    4.983387    7.231056
  O     -8.925307    4.145394    8.291104
  H     -9.807980    4.169145    8.024877
  H     -8.118618    5.961842    7.656485
  H     -7.403915    4.578973    6.863070
  H     -8.992139    5.220278    6.336531
  C    -11.249174    2.018224    5.395163
  O    -10.634018    3.354803    5.549049
  H     -9.685463    3.182150    5.422154
  H    -12.363706    2.057807    5.528582
  H    -11.108641    1.548726    4.443364
  H    -10.909125    1.291521    6.139330

 Multiplicity           Mult            ....    1
 Number of Electrons    NEL             ....   18
 Basis Dimension        Dim             ....  172

ORBITAL ENERGIES
----------------

  NO   OCC          E(Eh)            E(eV)
   0   2.0000     -19.238605      -523.5091
   1   2.0000     -10.319992      -280.8213
   2   2.0000      -1.120478       -30.4898
   3   2.0000      -0.798748       -21.7350
   4   2.0000      -0.600263       -16.3340
   5   2.0000      -0.535122       -14.5614
   6   2.0000      -0.516401       -14.0520
   7   2.0000      -0.443691       -12.0735
   8   2.0000      -0.380516       -10.3544
   9   0.0000       0.086379         2.3505
  10   0.0000       0.129739         3.5304
  11   0.0000       0.148533         4.0418
  12   0.0000       0.172951         4.7062
  13   0.0000       0.193575         5.2675

MULLIKEN ATOMIC CHARGES
-----------------------
   0 C :   -0.006378
   1 O :    0.000590
   2 H :   -0.004466
   3 H :   -0.000471
   4 H :    0.000770
   5 H :   -0.002898
   6 C :   -0.205398
   7 O :   -0.458425
   8 H :    0.316203
   9 H :    0.125554
  10 H :    0.119573
  11 H :    0.115347
Sum of atomic charges:   -0.0000000

LOEWDIN ATOMIC CHARGES
----------------------
   0 C :   -0.011560
   1 O :   -0.001707
   2 H :   -0.007896
   3 H :   -0.000134
   4 H :   -0.000285
   5 H :   -0.005733
   6 C :   -0.352484
   7 O :   -0.102127
   8 H :    0.177593
   9 H :    0.115943
  10 H :    0.091407
  11 H :    0.096983

  Mayer bond orders larger than 0.1
B(  6-C ,  7-O ) :   0.9968 B(  6-C ,  9-H ) :   0.9757 B(  6-C , 10-H ) :   0.9691
B(  6-C , 11-H ) :   0.9709 B(  7-O ,  8-H ) :   0.8998

Dispersion correction           -0.000279523
FINAL SINGLE POINT ENERGY      -115.731716195282

DIPOLE MOMENT
-------------
                                X             Y             Z
Electronic contribution:      0.69544       1.80191       0.16564
Nuclear contribution   :     -0.38603      -2.48856      -0.32591
                        -----------------------------------------
Total Dipole Moment    :      0.30942      -0.68665      -0.16028
                        -----------------------------------------
Magnitude (a.u.)       :      0.77002
Magnitude (Debye)      :      1.95722

Rotational constants in cm-1:     4.349960     0.765625     0.736537
Rotational constants in MHz : 130408.523338 22952.869111 22080.835642

                             ****ORCA TERMINATED NORMALLY****
TOTAL RUN TIME: 0 days 0 hours 0 minutes 45 seconds 555 msec
