                         Program Version 4.1.2  - RELEASE  -
|  1> #Run DFT-D3 single point of the dimer
|  2> ! wB97X-D3 def2-TZVP TIGHTSCF CHELPG PMODEL PAL8
|  3>
|  4> %base "19-157_DFT_AB"
|  5>
|  6> %scf
|  7> MaxIter 1000
|  8> end
|  9>
| 10> * xyz 0 1
| 11>   C                      -2.826672            3.168697             7.311766
| 12>   O                      -2.985900            2.187477             8.339613
| 13>   H                      -2.080365            1.979500             8.637292
| 14>   H                      -2.631409            4.182728             7.755383
| 15>   H                      -1.965593            2.904438             6.677685
| 16>   H                      -3.653128            3.269334             6.564215
| 17>   C                      0.047512             0.175918             10.039209
| 18>   O                      -1.173762            0.342067             9.306072
| 19>   H                      -1.409839            -0.517275            8.897116
| 20>   H                      0.918030             0.086260             9.426686
| 21>   H                      0.369282             0.973946             10.683957
| 22>   H                      -0.034030            -0.747890            10.620444
| 23> *
| 24>
| 25> #Run DFT-D3 single point of the molecule with dimer basis set
| 26> $new_job
| 27> %base "19-157_DFT_A"
| 28> ! wB97X-D3 def2-TZVP TIGHTSCF CHELPG PMODEL
| 29>
| 30> %scf
| 31> MaxIter 1000
| 32> end
| 33>
| 34> * xyz 0 1
| 35>   C                      -2.826672            3.168697             7.311766
| 36>   O                      -2.985900            2.187477             8.339613
| 37>   H                      -2.080365            1.979500             8.637292
| 38>   H                      -2.631409            4.182728             7.755383
| 39>   H                      -1.965593            2.904438             6.677685
| 40>   H                      -3.653128            3.269334             6.564215
| 41>   C                    : 0.047512             0.175918             10.039209
| 42>   O                    : -1.173762            0.342067             9.306072
| 43>   H                    : -1.409839            -0.517275            8.897116
| 44>   H                    : 0.918030             0.086260             9.426686
| 45>   H                    : 0.369282             0.973946             10.683957
| 46>   H                    : -0.034030            -0.747890            10.620444
| 47> *
| 48>
| 49> #Run DFT-D3 single point of the particle with dimer basis set
| 50> $new_job
| 51> %base "19-157_DFT_B"
| 52> ! wB97X-D3 def2-TZVP TIGHTSCF CHELPG PMODEL
| 53>
| 54> %scf
| 55> MaxIter 1000
| 56> end
| 57>
| 58> * xyz 0 1
| 59>   C                    : -2.826672            3.168697             7.311766
| 60>   O                    : -2.985900            2.187477             8.339613
| 61>   H                    : -2.080365            1.979500             8.637292
| 62>   H                    : -2.631409            4.182728             7.755383
| 63>   H                    : -1.965593            2.904438             6.677685
| 64>   H                    : -3.653128            3.269334             6.564215
| 65>   C                      0.047512             0.175918             10.039209
| 66>   O                      -1.173762            0.342067             9.306072
| 67>   H                      -1.409839            -0.517275            8.897116
| 68>   H                      0.918030             0.086260             9.426686
| 69>   H                      0.369282             0.973946             10.683957
| 70>   H                      -0.034030            -0.747890            10.620444
| 71> *
| 72>
| 73>                          ****END OF INPUT****
 Total Charge           Charge          ....    0
 Multiplicity           Mult            ....    1
 Number of Electrons    NEL             ....   36
Dispersion correction           -0.001443301
FINAL SINGLE POINT ENERGY      -231.468226409618
Dispersion correction           -0.000254286
FINAL SINGLE POINT ENERGY      -115.732293096691

CARTESIAN COORDINATES (ANGSTROEM)
---------------------------------
  C     -2.826672    3.168697    7.311766
  O     -2.985900    2.187477    8.339613
  H     -2.080365    1.979500    8.637292
  H     -2.631409    4.182728    7.755383
  H     -1.965593    2.904438    6.677685
  H     -3.653128    3.269334    6.564215
  C      0.047512    0.175918   10.039209
  O     -1.173762    0.342067    9.306072
  H     -1.409839   -0.517275    8.897116
  H      0.918030    0.086260    9.426686
  H      0.369282    0.973946   10.683957
  H     -0.034030   -0.747890   10.620444

 Multiplicity           Mult            ....    1
 Number of Electrons    NEL             ....   18
 Basis Dimension        Dim             ....  172

ORBITAL ENERGIES
----------------

  NO   OCC          E(Eh)            E(eV)
   0   2.0000     -19.233816      -523.3787
   1   2.0000     -10.310874      -280.5732
   2   2.0000      -1.126726       -30.6598
   3   2.0000      -0.801387       -21.8069
   4   2.0000      -0.605738       -16.4830
   5   2.0000      -0.545809       -14.8522
   6   2.0000      -0.527122       -14.3437
   7   2.0000      -0.431344       -11.7375
   8   2.0000      -0.373795       -10.1715
   9   0.0000       0.098966         2.6930
  10   0.0000       0.119265         3.2454
  11   0.0000       0.148743         4.0475
  12   0.0000       0.194181         5.2839
  13   0.0000       0.205513         5.5923

MULLIKEN ATOMIC CHARGES
-----------------------
   0 C :    0.001346
   1 O :    0.002875
   2 H :   -0.015024
   3 H :   -0.000154
   4 H :   -0.000963
   5 H :   -0.000019
   6 C :   -0.168946
   7 O :   -0.474997
   8 H :    0.319688
   9 H :    0.103347
  10 H :    0.128348
  11 H :    0.104498
Sum of atomic charges:   -0.0000000

LOEWDIN ATOMIC CHARGES
----------------------
   0 C :   -0.001318
   1 O :   -0.009477
   2 H :   -0.038505
   3 H :   -0.000014
   4 H :   -0.000363
   5 H :   -0.000013
   6 C :   -0.369360
   7 O :   -0.059358
   8 H :    0.182786
   9 H :    0.090022
  10 H :    0.106199
  11 H :    0.099402

  Mayer bond orders larger than 0.1
B(  6-C ,  7-O ) :   0.9913 B(  6-C ,  9-H ) :   0.9714 B(  6-C , 10-H ) :   0.9737
B(  6-C , 11-H ) :   0.9841 B(  7-O ,  8-H ) :   0.8907

Dispersion correction           -0.000251637
FINAL SINGLE POINT ENERGY      -115.730132544865

DIPOLE MOMENT
-------------
                                X             Y             Z
Electronic contribution:     -1.61711       0.44529      -0.88152
Nuclear contribution   :      1.99525      -1.05486       0.93501
                        -----------------------------------------
Total Dipole Moment    :      0.37815      -0.60957       0.05349
                        -----------------------------------------
Magnitude (a.u.)       :      0.71933
Magnitude (Debye)      :      1.82838

Rotational constants in cm-1:     4.515813     0.804938     0.773542
Rotational constants in MHz : 135380.660852 24131.420490 23190.214746

                             ****ORCA TERMINATED NORMALLY****
TOTAL RUN TIME: 0 days 0 hours 0 minutes 50 seconds 51 msec
