                         Program Version 4.1.2  - RELEASE  -
|  1> #Run DFT-D3 single point of the dimer
|  2> ! wB97X-D3 def2-TZVP TIGHTSCF CHELPG PMODEL PAL8
|  3>
|  4> %base "1-0_DFT_AB"
|  5>
|  6> %scf
|  7> MaxIter 1000
|  8> end
|  9>
| 10> * xyz 0 1
| 11>   C                      -7.729322            4.427341             8.202547
| 12>   O                      -7.019809            3.335802             7.681465
| 13>   H                      -7.560810            2.547871             7.585349
| 14>   H                      -8.077797            4.298807             9.202275
| 15>   H                      -7.121937            5.329664             8.121222
| 16>   H                      -8.610645            4.817844             7.611276
| 17>   C                      -4.728299            5.566947             3.681288
| 18>   O                      -3.589925            5.869790             4.411110
| 19>   H                      -3.218320            6.670380             4.094765
| 20>   H                      -5.260163            6.458923             3.442964
| 21>   H                      -4.550372            5.150121             2.696832
| 22>   H                      -5.420831            4.930192             4.198414
| 23> *
| 24>
| 25> #Run DFT-D3 single point of the molecule with dimer basis set
| 26> $new_job
| 27> %base "1-0_DFT_A"
| 28> ! wB97X-D3 def2-TZVP TIGHTSCF CHELPG PMODEL
| 29>
| 30> %scf
| 31> MaxIter 1000
| 32> end
| 33>
| 34> * xyz 0 1
| 35>   C                      -7.729322            4.427341             8.202547
| 36>   O                      -7.019809            3.335802             7.681465
| 37>   H                      -7.560810            2.547871             7.585349
| 38>   H                      -8.077797            4.298807             9.202275
| 39>   H                      -7.121937            5.329664             8.121222
| 40>   H                      -8.610645            4.817844             7.611276
| 41>   C                    : -4.728299            5.566947             3.681288
| 42>   O                    : -3.589925            5.869790             4.411110
| 43>   H                    : -3.218320            6.670380             4.094765
| 44>   H                    : -5.260163            6.458923             3.442964
| 45>   H                    : -4.550372            5.150121             2.696832
| 46>   H                    : -5.420831            4.930192             4.198414
| 47> *
| 48>
| 49> #Run DFT-D3 single point of the particle with dimer basis set
| 50> $new_job
| 51> %base "1-0_DFT_B"
| 52> ! wB97X-D3 def2-TZVP TIGHTSCF CHELPG PMODEL
| 53>
| 54> %scf
| 55> MaxIter 1000
| 56> end
| 57>
| 58> * xyz 0 1
| 59>   C                    : -7.729322            4.427341             8.202547
| 60>   O                    : -7.019809            3.335802             7.681465
| 61>   H                    : -7.560810            2.547871             7.585349
| 62>   H                    : -8.077797            4.298807             9.202275
| 63>   H                    : -7.121937            5.329664             8.121222
| 64>   H                    : -8.610645            4.817844             7.611276
| 65>   C                      -4.728299            5.566947             3.681288
| 66>   O                      -3.589925            5.869790             4.411110
| 67>   H                      -3.218320            6.670380             4.094765
| 68>   H                      -5.260163            6.458923             3.442964
| 69>   H                      -4.550372            5.150121             2.696832
| 70>   H                      -5.420831            4.930192             4.198414
| 71> *
| 72>
| 73>                          ****END OF INPUT****
 Total Charge           Charge          ....    0
 Multiplicity           Mult            ....    1
 Number of Electrons    NEL             ....   36
Dispersion correction           -0.000717582
FINAL SINGLE POINT ENERGY      -231.464678143880
Dispersion correction           -0.000274682
FINAL SINGLE POINT ENERGY      -115.732035580350

CARTESIAN COORDINATES (ANGSTROEM)
---------------------------------
  C     -7.729322    4.427341    8.202547
  O     -7.019809    3.335802    7.681465
  H     -7.560810    2.547871    7.585349
  H     -8.077797    4.298807    9.202275
  H     -7.121937    5.329664    8.121222
  H     -8.610645    4.817844    7.611276
  C     -4.728299    5.566947    3.681288
  O     -3.589925    5.869790    4.411110
  H     -3.218320    6.670380    4.094765
  H     -5.260163    6.458923    3.442964
  H     -4.550372    5.150121    2.696832
  H     -5.420831    4.930192    4.198414

 Multiplicity           Mult            ....    1
 Number of Electrons    NEL             ....   18
 Basis Dimension        Dim             ....  172

ORBITAL ENERGIES
----------------

  NO   OCC          E(Eh)            E(eV)
   0   2.0000     -19.228185      -523.2255
   1   2.0000     -10.304607      -280.4026
   2   2.0000      -1.148727       -31.2585
   3   2.0000      -0.803115       -21.8539
   4   2.0000      -0.625127       -17.0106
   5   2.0000      -0.541014       -14.7217
   6   2.0000      -0.537009       -14.6127
   7   2.0000      -0.433201       -11.7880
   8   2.0000      -0.372054       -10.1241
   9   0.0000       0.086108         2.3431
  10   0.0000       0.117680         3.2022
  11   0.0000       0.154465         4.2032
  12   0.0000       0.165006         4.4900
  13   0.0000       0.186966         5.0876

MULLIKEN ATOMIC CHARGES
-----------------------
   0 C :   -0.000022
   1 O :   -0.000012
   2 H :   -0.000006
   3 H :    0.000001
   4 H :    0.000013
   5 H :   -0.000006
   6 C :   -0.153663
   7 O :   -0.470072
   8 H :    0.314474
   9 H :    0.099080
  10 H :    0.092077
  11 H :    0.118137
Sum of atomic charges:    0.0000000

LOEWDIN ATOMIC CHARGES
----------------------
   0 C :   -0.000044
   1 O :   -0.000023
   2 H :   -0.000005
   3 H :   -0.000001
   4 H :   -0.000008
   5 H :   -0.000005
   6 C :   -0.399240
   7 O :   -0.043885
   8 H :    0.158171
   9 H :    0.090273
  10 H :    0.091152
  11 H :    0.103615

  Mayer bond orders larger than 0.1
B(  6-C ,  7-O ) :   1.0045 B(  6-C ,  9-H ) :   0.9896 B(  6-C , 10-H ) :   0.9724
B(  6-C , 11-H ) :   0.9747 B(  7-O ,  8-H ) :   0.9016

Dispersion correction           -0.000227838
FINAL SINGLE POINT ENERGY      -115.732726506399

DIPOLE MOMENT
-------------
                                X             Y             Z
Electronic contribution:      1.52598       0.22333       1.11352
Nuclear contribution   :     -1.74471       0.20676      -1.60160
                        -----------------------------------------
Total Dipole Moment    :     -0.21873       0.43009      -0.48808
                        -----------------------------------------
Magnitude (a.u.)       :      0.68633
Magnitude (Debye)      :      1.74450

Rotational constants in cm-1:     4.604390     0.855746     0.822442
Rotational constants in MHz : 138036.125935 25654.617290 24656.181712

                             ****ORCA TERMINATED NORMALLY****
TOTAL RUN TIME: 0 days 0 hours 4 minutes 23 seconds 330 msec
