                         Program Version 4.1.2  - RELEASE  -
|  1> #Run DFT-D3 single point of the dimer
|  2> ! wB97X-D3 def2-TZVP TIGHTSCF CHELPG PMODEL PAL8
|  3>
|  4> %base "8-69_DFT_AB"
|  5>
|  6> %scf
|  7> MaxIter 1000
|  8> end
|  9>
| 10> * xyz 0 1
| 11>   C                      3.247449             0.489047             6.955197
| 12>   O                      3.339960             1.502602             5.982111
| 13>   H                      2.459960             1.640455             5.585835
| 14>   H                      2.534463             0.868375             7.717436
| 15>   H                      2.934831             -0.454493            6.529917
| 16>   H                      4.259433             0.461948             7.314150
| 17>   C                      -0.915505            -1.309823            3.665352
| 18>   O                      -0.468235            -0.920352            5.001852
| 19>   H                      0.109127             -0.150071            5.001110
| 20>   H                      -1.528910            -2.242467            3.688094
| 21>   H                      -1.449078            -0.451866            3.227574
| 22>   H                      -0.109767            -1.463050            2.909293
| 23> *
| 24>
| 25> #Run DFT-D3 single point of the molecule with dimer basis set
| 26> $new_job
| 27> %base "8-69_DFT_A"
| 28> ! wB97X-D3 def2-TZVP TIGHTSCF CHELPG PMODEL
| 29>
| 30> %scf
| 31> MaxIter 1000
| 32> end
| 33>
| 34> * xyz 0 1
| 35>   C                      3.247449             0.489047             6.955197
| 36>   O                      3.339960             1.502602             5.982111
| 37>   H                      2.459960             1.640455             5.585835
| 38>   H                      2.534463             0.868375             7.717436
| 39>   H                      2.934831             -0.454493            6.529917
| 40>   H                      4.259433             0.461948             7.314150
| 41>   C                    : -0.915505            -1.309823            3.665352
| 42>   O                    : -0.468235            -0.920352            5.001852
| 43>   H                    : 0.109127             -0.150071            5.001110
| 44>   H                    : -1.528910            -2.242467            3.688094
| 45>   H                    : -1.449078            -0.451866            3.227574
| 46>   H                    : -0.109767            -1.463050            2.909293
| 47> *
| 48>
| 49> #Run DFT-D3 single point of the particle with dimer basis set
| 50> $new_job
| 51> %base "8-69_DFT_B"
| 52> ! wB97X-D3 def2-TZVP TIGHTSCF CHELPG PMODEL
| 53>
| 54> %scf
| 55> MaxIter 1000
| 56> end
| 57>
| 58> * xyz 0 1
| 59>   C                    : 3.247449             0.489047             6.955197
| 60>   O                    : 3.339960             1.502602             5.982111
| 61>   H                    : 2.459960             1.640455             5.585835
| 62>   H                    : 2.534463             0.868375             7.717436
| 63>   H                    : 2.934831             -0.454493            6.529917
| 64>   H                    : 4.259433             0.461948             7.314150
| 65>   C                      -0.915505            -1.309823            3.665352
| 66>   O                      -0.468235            -0.920352            5.001852
| 67>   H                      0.109127             -0.150071            5.001110
| 68>   H                      -1.528910            -2.242467            3.688094
| 69>   H                      -1.449078            -0.451866            3.227574
| 70>   H                      -0.109767            -1.463050            2.909293
| 71> *
| 72>
| 73>                          ****END OF INPUT****
 Total Charge           Charge          ....    0
 Multiplicity           Mult            ....    1
 Number of Electrons    NEL             ....   36
Dispersion correction           -0.001068820
FINAL SINGLE POINT ENERGY      -231.463704710925
Dispersion correction           -0.000215506
FINAL SINGLE POINT ENERGY      -115.733529287561

CARTESIAN COORDINATES (ANGSTROEM)
---------------------------------
  C      3.247449    0.489047    6.955197
  O      3.339960    1.502602    5.982111
  H      2.459960    1.640455    5.585835
  H      2.534463    0.868375    7.717436
  H      2.934831   -0.454493    6.529917
  H      4.259433    0.461948    7.314150
  C     -0.915505   -1.309823    3.665352
  O     -0.468235   -0.920352    5.001852
  H      0.109127   -0.150071    5.001110
  H     -1.528910   -2.242467    3.688094
  H     -1.449078   -0.451866    3.227574
  H     -0.109767   -1.463050    2.909293

 Multiplicity           Mult            ....    1
 Number of Electrons    NEL             ....   18
 Basis Dimension        Dim             ....  172

ORBITAL ENERGIES
----------------

  NO   OCC          E(Eh)            E(eV)
   0   2.0000     -19.229700      -523.2667
   1   2.0000     -10.324367      -280.9403
   2   2.0000      -1.118923       -30.4475
   3   2.0000      -0.796262       -21.6674
   4   2.0000      -0.606231       -16.4964
   5   2.0000      -0.533263       -14.5108
   6   2.0000      -0.516625       -14.0581
   7   2.0000      -0.433850       -11.8056
   8   2.0000      -0.371562       -10.1107
   9   0.0000       0.076166         2.0726
  10   0.0000       0.124430         3.3859
  11   0.0000       0.145497         3.9592
  12   0.0000       0.171263         4.6603
  13   0.0000       0.194371         5.2891

MULLIKEN ATOMIC CHARGES
-----------------------
   0 C :    0.000780
   1 O :    0.000047
   2 H :   -0.000394
   3 H :    0.000050
   4 H :   -0.002559
   5 H :   -0.000097
   6 C :   -0.172615
   7 O :   -0.490044
   8 H :    0.317741
   9 H :    0.131874
  10 H :    0.111185
  11 H :    0.104032
Sum of atomic charges:    0.0000000

LOEWDIN ATOMIC CHARGES
----------------------
   0 C :   -0.000578
   1 O :   -0.000034
   2 H :   -0.000665
   3 H :   -0.000018
   4 H :   -0.000952
   5 H :   -0.000011
   6 C :   -0.358248
   7 O :   -0.114055
   8 H :    0.164647
   9 H :    0.115265
  10 H :    0.097546
  11 H :    0.097105

  Mayer bond orders larger than 0.1
B(  6-C ,  7-O ) :   0.9872 B(  6-C ,  9-H ) :   0.9689 B(  6-C , 10-H ) :   0.9803
B(  6-C , 11-H ) :   0.9667 B(  7-O ,  8-H ) :   0.8943

Dispersion correction           -0.000284327
FINAL SINGLE POINT ENERGY      -115.730634168578

DIPOLE MOMENT
-------------
                                X             Y             Z
Electronic contribution:      0.45203       0.29750       1.77046
Nuclear contribution   :     -0.27463       0.03689      -2.35944
                        -----------------------------------------
Total Dipole Moment    :      0.17740       0.33439      -0.58898
                        -----------------------------------------
Magnitude (a.u.)       :      0.70013
Magnitude (Debye)      :      1.77958

Rotational constants in cm-1:     4.296033     0.777888     0.743512
Rotational constants in MHz : 128791.827141 23320.508207 22289.941281

                             ****ORCA TERMINATED NORMALLY****
TOTAL RUN TIME: 0 days 0 hours 0 minutes 43 seconds 43 msec
