                         Program Version 4.1.2  - RELEASE  -
|  1> #Run DFT-D3 single point of the dimer
|  2> ! wB97X-D3 def2-TZVP TIGHTSCF CHELPG PMODEL PAL8
|  3>
|  4> %base "22-176_DFT_AB"
|  5>
|  6> %scf
|  7> MaxIter 1000
|  8> end
|  9>
| 10> * xyz 0 1
| 11>   C                      -8.408628            -6.077330            5.994400
| 12>   O                      -8.191129            -6.136432            7.414931
| 13>   H                      -8.526472            -6.979729            7.689551
| 14>   H                      -8.233246            -5.066164            5.609936
| 15>   H                      -7.815096            -6.825520            5.471362
| 16>   H                      -9.422987            -6.376404            5.755330
| 17>   C                      -5.484438            -10.078083           6.406654
| 18>   O                      -6.265577            -9.407845            7.316809
| 19>   H                      -6.122561            -8.521151            7.086940
| 20>   H                      -6.090158            -10.655197           5.750842
| 21>   H                      -4.814471            -9.502653            5.763758
| 22>   H                      -4.811832            -10.790068           7.002692
| 23> *
| 24>
| 25> #Run DFT-D3 single point of the molecule with dimer basis set
| 26> $new_job
| 27> %base "22-176_DFT_A"
| 28> ! wB97X-D3 def2-TZVP TIGHTSCF CHELPG PMODEL
| 29>
| 30> %scf
| 31> MaxIter 1000
| 32> end
| 33>
| 34> * xyz 0 1
| 35>   C                      -8.408628            -6.077330            5.994400
| 36>   O                      -8.191129            -6.136432            7.414931
| 37>   H                      -8.526472            -6.979729            7.689551
| 38>   H                      -8.233246            -5.066164            5.609936
| 39>   H                      -7.815096            -6.825520            5.471362
| 40>   H                      -9.422987            -6.376404            5.755330
| 41>   C                    : -5.484438            -10.078083           6.406654
| 42>   O                    : -6.265577            -9.407845            7.316809
| 43>   H                    : -6.122561            -8.521151            7.086940
| 44>   H                    : -6.090158            -10.655197           5.750842
| 45>   H                    : -4.814471            -9.502653            5.763758
| 46>   H                    : -4.811832            -10.790068           7.002692
| 47> *
| 48>
| 49> #Run DFT-D3 single point of the particle with dimer basis set
| 50> $new_job
| 51> %base "22-176_DFT_B"
| 52> ! wB97X-D3 def2-TZVP TIGHTSCF CHELPG PMODEL
| 53>
| 54> %scf
| 55> MaxIter 1000
| 56> end
| 57>
| 58> * xyz 0 1
| 59>   C                    : -8.408628            -6.077330            5.994400
| 60>   O                    : -8.191129            -6.136432            7.414931
| 61>   H                    : -8.526472            -6.979729            7.689551
| 62>   H                    : -8.233246            -5.066164            5.609936
| 63>   H                    : -7.815096            -6.825520            5.471362
| 64>   H                    : -9.422987            -6.376404            5.755330
| 65>   C                      -5.484438            -10.078083           6.406654
| 66>   O                      -6.265577            -9.407845            7.316809
| 67>   H                      -6.122561            -8.521151            7.086940
| 68>   H                      -6.090158            -10.655197           5.750842
| 69>   H                      -4.814471            -9.502653            5.763758
| 70>   H                      -4.811832            -10.790068           7.002692
| 71> *
| 72>
| 73>                          ****END OF INPUT****
 Total Charge           Charge          ....    0
 Multiplicity           Mult            ....    1
 Number of Electrons    NEL             ....   36
Dispersion correction           -0.001368785
FINAL SINGLE POINT ENERGY      -231.466630234825
Dispersion correction           -0.000234036
FINAL SINGLE POINT ENERGY      -115.735160547359

CARTESIAN COORDINATES (ANGSTROEM)
---------------------------------
  C     -8.408628   -6.077330    5.994400
  O     -8.191129   -6.136432    7.414931
  H     -8.526472   -6.979729    7.689551
  H     -8.233246   -5.066164    5.609936
  H     -7.815096   -6.825520    5.471362
  H     -9.422987   -6.376404    5.755330
  C     -5.484438  -10.078083    6.406654
  O     -6.265577   -9.407845    7.316809
  H     -6.122561   -8.521151    7.086940
  H     -6.090158  -10.655197    5.750842
  H     -4.814471   -9.502653    5.763758
  H     -4.811832  -10.790068    7.002692

 Multiplicity           Mult            ....    1
 Number of Electrons    NEL             ....   18
 Basis Dimension        Dim             ....  172

ORBITAL ENERGIES
----------------

  NO   OCC          E(Eh)            E(eV)
   0   2.0000     -19.231439      -523.3140
   1   2.0000     -10.311646      -280.5942
   2   2.0000      -1.162144       -31.6235
   3   2.0000      -0.794279       -21.6134
   4   2.0000      -0.627146       -17.0655
   5   2.0000      -0.548069       -14.9137
   6   2.0000      -0.525905       -14.3106
   7   2.0000      -0.440654       -11.9908
   8   2.0000      -0.372463       -10.1352
   9   0.0000       0.079109         2.1527
  10   0.0000       0.126691         3.4474
  11   0.0000       0.152505         4.1499
  12   0.0000       0.178490         4.8570
  13   0.0000       0.185177         5.0389

MULLIKEN ATOMIC CHARGES
-----------------------
   0 C :    0.000956
   1 O :    0.000090
   2 H :   -0.001219
   3 H :   -0.000141
   4 H :   -0.003358
   5 H :    0.000015
   6 C :   -0.172322
   7 O :   -0.442650
   8 H :    0.313411
   9 H :    0.103632
  10 H :    0.102983
  11 H :    0.098603
Sum of atomic charges:   -0.0000000

LOEWDIN ATOMIC CHARGES
----------------------
   0 C :   -0.001395
   1 O :   -0.000358
   2 H :   -0.001349
   3 H :   -0.000024
   4 H :   -0.001510
   5 H :   -0.000010
   6 C :   -0.420108
   7 O :   -0.024655
   8 H :    0.154997
   9 H :    0.090031
  10 H :    0.094779
  11 H :    0.109602

  Mayer bond orders larger than 0.1
B(  6-C ,  7-O ) :   1.0161 B(  6-C ,  9-H ) :   0.9770 B(  6-C , 10-H ) :   0.9815
B(  6-C , 11-H ) :   0.9808 B(  7-O ,  8-H ) :   0.9065

Dispersion correction           -0.000226292
FINAL SINGLE POINT ENERGY      -115.728728361795

DIPOLE MOMENT
-------------
                                X             Y             Z
Electronic contribution:     -1.16859       0.91599       1.22555
Nuclear contribution   :      1.53882      -0.55973      -1.71703
                        -----------------------------------------
Total Dipole Moment    :      0.37023       0.35626      -0.49148
                        -----------------------------------------
Magnitude (a.u.)       :      0.71102
Magnitude (Debye)      :      1.80727

Rotational constants in cm-1:     4.318131     0.873028     0.842115
Rotational constants in MHz : 129454.306247 26172.715538 25245.979911

                             ****ORCA TERMINATED NORMALLY****
TOTAL RUN TIME: 0 days 0 hours 1 minutes 4 seconds 619 msec
