                         Program Version 4.1.2  - RELEASE  -
|  1> #Run DFT-D3 single point of the dimer
|  2> ! wB97X-D3 def2-TZVP TIGHTSCF CHELPG PMODEL PAL8
|  3>
|  4> %base "11-6_DFT_AB"
|  5>
|  6> %scf
|  7> MaxIter 1000
|  8> end
|  9>
| 10> * xyz 0 1
| 11>   C                      -2.148013            2.129847             1.911966
| 12>   O                      -0.703100            2.202816             2.039990
| 13>   H                      -0.327344            2.930984             1.522731
| 14>   H                      -2.414317            2.238284             0.914172
| 15>   H                      -2.582117            1.155431             2.198879
| 16>   H                      -2.594961            2.946416             2.554262
| 17>   C                      -5.044066            0.404302             -1.663991
| 18>   O                      -6.434132            0.548854             -1.331317
| 19>   H                      -6.609572            0.645943             -0.347889
| 20>   H                      -4.488674            1.043460             -0.975449
| 21>   H                      -4.723905            -0.685298            -1.583405
| 22>   H                      -4.810426            0.769304             -2.685732
| 23> *
| 24>
| 25> #Run DFT-D3 single point of the molecule with dimer basis set
| 26> $new_job
| 27> %base "11-6_DFT_A"
| 28> ! wB97X-D3 def2-TZVP TIGHTSCF CHELPG PMODEL
| 29>
| 30> %scf
| 31> MaxIter 1000
| 32> end
| 33>
| 34> * xyz 0 1
| 35>   C                      -2.148013            2.129847             1.911966
| 36>   O                      -0.703100            2.202816             2.039990
| 37>   H                      -0.327344            2.930984             1.522731
| 38>   H                      -2.414317            2.238284             0.914172
| 39>   H                      -2.582117            1.155431             2.198879
| 40>   H                      -2.594961            2.946416             2.554262
| 41>   C                    : -5.044066            0.404302             -1.663991
| 42>   O                    : -6.434132            0.548854             -1.331317
| 43>   H                    : -6.609572            0.645943             -0.347889
| 44>   H                    : -4.488674            1.043460             -0.975449
| 45>   H                    : -4.723905            -0.685298            -1.583405
| 46>   H                    : -4.810426            0.769304             -2.685732
| 47> *
| 48>
| 49> #Run DFT-D3 single point of the particle with dimer basis set
| 50> $new_job
| 51> %base "11-6_DFT_B"
| 52> ! wB97X-D3 def2-TZVP TIGHTSCF CHELPG PMODEL
| 53>
| 54> %scf
| 55> MaxIter 1000
| 56> end
| 57>
| 58> * xyz 0 1
| 59>   C                    : -2.148013            2.129847             1.911966
| 60>   O                    : -0.703100            2.202816             2.039990
| 61>   H                    : -0.327344            2.930984             1.522731
| 62>   H                    : -2.414317            2.238284             0.914172
| 63>   H                    : -2.582117            1.155431             2.198879
| 64>   H                    : -2.594961            2.946416             2.554262
| 65>   C                      -5.044066            0.404302             -1.663991
| 66>   O                      -6.434132            0.548854             -1.331317
| 67>   H                      -6.609572            0.645943             -0.347889
| 68>   H                      -4.488674            1.043460             -0.975449
| 69>   H                      -4.723905            -0.685298            -1.583405
| 70>   H                      -4.810426            0.769304             -2.685732
| 71> *
| 72>
| 73>                          ****END OF INPUT****
 Total Charge           Charge          ....    0
 Multiplicity           Mult            ....    1
 Number of Electrons    NEL             ....   36
Dispersion correction           -0.000925080
FINAL SINGLE POINT ENERGY      -231.460350321464
Dispersion correction           -0.000260017
FINAL SINGLE POINT ENERGY      -115.729930666384

CARTESIAN COORDINATES (ANGSTROEM)
---------------------------------
  C     -2.148013    2.129847    1.911966
  O     -0.703100    2.202816    2.039990
  H     -0.327344    2.930984    1.522731
  H     -2.414317    2.238284    0.914172
  H     -2.582117    1.155431    2.198879
  H     -2.594961    2.946416    2.554262
  C     -5.044066    0.404302   -1.663991
  O     -6.434132    0.548854   -1.331317
  H     -6.609572    0.645943   -0.347889
  H     -4.488674    1.043460   -0.975449
  H     -4.723905   -0.685298   -1.583405
  H     -4.810426    0.769304   -2.685732

 Multiplicity           Mult            ....    1
 Number of Electrons    NEL             ....   18
 Basis Dimension        Dim             ....  172

ORBITAL ENERGIES
----------------

  NO   OCC          E(Eh)            E(eV)
   0   2.0000     -19.229290      -523.2556
   1   2.0000     -10.322055      -280.8774
   2   2.0000      -1.116906       -30.3926
   3   2.0000      -0.789616       -21.4865
   4   2.0000      -0.598698       -16.2914
   5   2.0000      -0.536740       -14.6054
   6   2.0000      -0.527049       -14.3417
   7   2.0000      -0.420421       -11.4402
   8   2.0000      -0.370920       -10.0932
   9   0.0000       0.080086         2.1792
  10   0.0000       0.110148         2.9973
  11   0.0000       0.144696         3.9374
  12   0.0000       0.163911         4.4602
  13   0.0000       0.183090         4.9821

MULLIKEN ATOMIC CHARGES
-----------------------
   0 C :    0.000513
   1 O :   -0.000006
   2 H :   -0.000002
   3 H :   -0.000933
   4 H :   -0.000095
   5 H :   -0.000045
   6 C :   -0.149030
   7 O :   -0.497801
   8 H :    0.321782
   9 H :    0.103838
  10 H :    0.102527
  11 H :    0.119253
Sum of atomic charges:   -0.0000000

LOEWDIN ATOMIC CHARGES
----------------------
   0 C :   -0.000514
   1 O :   -0.000006
   2 H :   -0.000000
   3 H :   -0.000997
   4 H :   -0.000064
   5 H :   -0.000004
   6 C :   -0.374361
   7 O :   -0.122010
   8 H :    0.190454
   9 H :    0.095222
  10 H :    0.103119
  11 H :    0.109161

  Mayer bond orders larger than 0.1
B(  6-C ,  7-O ) :   0.9932 B(  6-C ,  9-H ) :   0.9871 B(  6-C , 10-H ) :   0.9709
B(  6-C , 11-H ) :   0.9680 B(  7-O ,  8-H ) :   0.8871

Dispersion correction           -0.000268001
FINAL SINGLE POINT ENERGY      -115.730260445839

DIPOLE MOMENT
-------------
                                X             Y             Z
Electronic contribution:     -1.74673       0.17761       0.23821
Nuclear contribution   :      2.22036      -0.14176       0.25080
                        -----------------------------------------
Total Dipole Moment    :      0.47363       0.03586       0.48901
                        -----------------------------------------
Magnitude (a.u.)       :      0.68172
Magnitude (Debye)      :      1.73278

Rotational constants in cm-1:     4.157837     0.795536     0.775168
Rotational constants in MHz : 124648.824934 23849.563754 23238.941044

                             ****ORCA TERMINATED NORMALLY****
TOTAL RUN TIME: 0 days 0 hours 1 minutes 3 seconds 490 msec
