                         Program Version 4.1.2  - RELEASE  -
|  1> #Run DFT-D3 single point of the dimer
|  2> ! wB97X-D3 def2-TZVP TIGHTSCF CHELPG PMODEL PAL8
|  3>
|  4> %base "2-59_DFT_AB"
|  5>
|  6> %scf
|  7> MaxIter 1000
|  8> end
|  9>
| 10> * xyz 0 1
| 11>   C                      0.999467             -9.027304            -3.912011
| 12>   O                      2.186414             -9.130388            -3.186209
| 13>   H                      2.083546             -9.885682            -2.567494
| 14>   H                      0.950091             -9.809537            -4.582821
| 15>   H                      0.089306             -9.087572            -3.267712
| 16>   H                      0.963477             -8.154280            -4.573107
| 17>   C                      -2.659229            -6.784387            -1.729437
| 18>   O                      -3.420022            -7.948916            -1.735076
| 19>   H                      -2.863842            -8.505846            -1.195786
| 20>   H                      -2.262641            -6.660623            -2.744565
| 21>   H                      -3.269731            -5.890599            -1.571126
| 22>   H                      -1.812656            -6.784619            -1.019134
| 23> *
| 24>
| 25> #Run DFT-D3 single point of the molecule with dimer basis set
| 26> $new_job
| 27> %base "2-59_DFT_A"
| 28> ! wB97X-D3 def2-TZVP TIGHTSCF CHELPG PMODEL
| 29>
| 30> %scf
| 31> MaxIter 1000
| 32> end
| 33>
| 34> * xyz 0 1
| 35>   C                      0.999467             -9.027304            -3.912011
| 36>   O                      2.186414             -9.130388            -3.186209
| 37>   H                      2.083546             -9.885682            -2.567494
| 38>   H                      0.950091             -9.809537            -4.582821
| 39>   H                      0.089306             -9.087572            -3.267712
| 40>   H                      0.963477             -8.154280            -4.573107
| 41>   C                    : -2.659229            -6.784387            -1.729437
| 42>   O                    : -3.420022            -7.948916            -1.735076
| 43>   H                    : -2.863842            -8.505846            -1.195786
| 44>   H                    : -2.262641            -6.660623            -2.744565
| 45>   H                    : -3.269731            -5.890599            -1.571126
| 46>   H                    : -1.812656            -6.784619            -1.019134
| 47> *
| 48>
| 49> #Run DFT-D3 single point of the particle with dimer basis set
| 50> $new_job
| 51> %base "2-59_DFT_B"
| 52> ! wB97X-D3 def2-TZVP TIGHTSCF CHELPG PMODEL
| 53>
| 54> %scf
| 55> MaxIter 1000
| 56> end
| 57>
| 58> * xyz 0 1
| 59>   C                    : 0.999467             -9.027304            -3.912011
| 60>   O                    : 2.186414             -9.130388            -3.186209
| 61>   H                    : 2.083546             -9.885682            -2.567494
| 62>   H                    : 0.950091             -9.809537            -4.582821
| 63>   H                    : 0.089306             -9.087572            -3.267712
| 64>   H                    : 0.963477             -8.154280            -4.573107
| 65>   C                      -2.659229            -6.784387            -1.729437
| 66>   O                      -3.420022            -7.948916            -1.735076
| 67>   H                      -2.863842            -8.505846            -1.195786
| 68>   H                      -2.262641            -6.660623            -2.744565
| 69>   H                      -3.269731            -5.890599            -1.571126
| 70>   H                      -1.812656            -6.784619            -1.019134
| 71> *
| 72>
| 73>                          ****END OF INPUT****
 Total Charge           Charge          ....    0
 Multiplicity           Mult            ....    1
 Number of Electrons    NEL             ....   36
Dispersion correction           -0.000926853
FINAL SINGLE POINT ENERGY      -231.462323908300
Dispersion correction           -0.000223826
FINAL SINGLE POINT ENERGY      -115.730594055166

CARTESIAN COORDINATES (ANGSTROEM)
---------------------------------
  C      0.999467   -9.027304   -3.912011
  O      2.186414   -9.130388   -3.186209
  H      2.083546   -9.885682   -2.567494
  H      0.950091   -9.809537   -4.582821
  H      0.089306   -9.087572   -3.267712
  H      0.963477   -8.154280   -4.573107
  C     -2.659229   -6.784387   -1.729437
  O     -3.420022   -7.948916   -1.735076
  H     -2.863842   -8.505846   -1.195786
  H     -2.262641   -6.660623   -2.744565
  H     -3.269731   -5.890599   -1.571126
  H     -1.812656   -6.784619   -1.019134

 Multiplicity           Mult            ....    1
 Number of Electrons    NEL             ....   18
 Basis Dimension        Dim             ....  172

ORBITAL ENERGIES
----------------

  NO   OCC          E(Eh)            E(eV)
   0   2.0000     -19.232380      -523.3397
   1   2.0000     -10.312258      -280.6108
   2   2.0000      -1.151614       -31.3370
   3   2.0000      -0.790289       -21.5048
   4   2.0000      -0.618007       -16.8168
   5   2.0000      -0.539895       -14.6913
   6   2.0000      -0.530300       -14.4302
   7   2.0000      -0.445491       -12.1224
   8   2.0000      -0.369524       -10.0553
   9   0.0000       0.080425         2.1885
  10   0.0000       0.114716         3.1216
  11   0.0000       0.151011         4.1092
  12   0.0000       0.164930         4.4880
  13   0.0000       0.193051         5.2532

MULLIKEN ATOMIC CHARGES
-----------------------
   0 C :   -0.000582
   1 O :    0.000022
   2 H :   -0.000000
   3 H :    0.000007
   4 H :    0.000125
   5 H :   -0.000023
   6 C :   -0.177229
   7 O :   -0.452135
   8 H :    0.315284
   9 H :    0.101295
  10 H :    0.112118
  11 H :    0.101119
Sum of atomic charges:   -0.0000000

LOEWDIN ATOMIC CHARGES
----------------------
   0 C :   -0.000280
   1 O :   -0.000004
   2 H :   -0.000001
   3 H :   -0.000002
   4 H :   -0.000356
   5 H :   -0.000068
   6 C :   -0.411935
   7 O :   -0.056371
   8 H :    0.172880
   9 H :    0.097733
  10 H :    0.101069
  11 H :    0.097336

  Mayer bond orders larger than 0.1
B(  6-C ,  7-O ) :   1.0097 B(  6-C ,  9-H ) :   0.9828 B(  6-C , 10-H ) :   0.9754
B(  6-C , 11-H ) :   0.9837 B(  7-O ,  8-H ) :   0.9045

Dispersion correction           -0.000223332
FINAL SINGLE POINT ENERGY      -115.731246749323

DIPOLE MOMENT
-------------
                                X             Y             Z
Electronic contribution:     -1.14251      -1.52062       0.01883
Nuclear contribution   :      1.77077       1.59629       0.32784
                        -----------------------------------------
Total Dipole Moment    :      0.62826       0.07567       0.34667
                        -----------------------------------------
Magnitude (a.u.)       :      0.72154
Magnitude (Debye)      :      1.83402

Rotational constants in cm-1:     4.234636     0.865998     0.824651
Rotational constants in MHz : 126951.192622 25961.953695 24722.401974

                             ****ORCA TERMINATED NORMALLY****
TOTAL RUN TIME: 0 days 0 hours 5 minutes 59 seconds 24 msec
