                         Program Version 4.1.2  - RELEASE  -
|  1> #Run DFT-D3 single point of the dimer
|  2> ! wB97X-D3 def2-TZVP TIGHTSCF CHELPG PMODEL PAL8
|  3>
|  4> %base "21-8_DFT_AB"
|  5>
|  6> %scf
|  7> MaxIter 1000
|  8> end
|  9>
| 10> * xyz 0 1
| 11>   C                      -6.197209            -10.043977           -7.076087
| 12>   O                      -7.192169            -9.113181            -7.459103
| 13>   H                      -7.983588            -9.380507            -7.088494
| 14>   H                      -6.571320            -11.022002           -7.330227
| 15>   H                      -5.260879            -9.809619            -7.601295
| 16>   H                      -5.787484            -10.013825           -6.086584
| 17>   C                      -9.894746            -10.424157           -3.994685
| 18>   O                      -8.878708            -10.819831           -3.175086
| 19>   H                      -8.357523            -10.022226           -3.038583
| 20>   H                      -10.461767           -9.678682            -3.487673
| 21>   H                      -9.538777            -10.059147           -4.997187
| 22>   H                      -10.558657           -11.231030           -4.328539
| 23> *
| 24>
| 25> #Run DFT-D3 single point of the molecule with dimer basis set
| 26> $new_job
| 27> %base "21-8_DFT_A"
| 28> ! wB97X-D3 def2-TZVP TIGHTSCF CHELPG PMODEL
| 29>
| 30> %scf
| 31> MaxIter 1000
| 32> end
| 33>
| 34> * xyz 0 1
| 35>   C                      -6.197209            -10.043977           -7.076087
| 36>   O                      -7.192169            -9.113181            -7.459103
| 37>   H                      -7.983588            -9.380507            -7.088494
| 38>   H                      -6.571320            -11.022002           -7.330227
| 39>   H                      -5.260879            -9.809619            -7.601295
| 40>   H                      -5.787484            -10.013825           -6.086584
| 41>   C                    : -9.894746            -10.424157           -3.994685
| 42>   O                    : -8.878708            -10.819831           -3.175086
| 43>   H                    : -8.357523            -10.022226           -3.038583
| 44>   H                    : -10.461767           -9.678682            -3.487673
| 45>   H                    : -9.538777            -10.059147           -4.997187
| 46>   H                    : -10.558657           -11.231030           -4.328539
| 47> *
| 48>
| 49> #Run DFT-D3 single point of the particle with dimer basis set
| 50> $new_job
| 51> %base "21-8_DFT_B"
| 52> ! wB97X-D3 def2-TZVP TIGHTSCF CHELPG PMODEL
| 53>
| 54> %scf
| 55> MaxIter 1000
| 56> end
| 57>
| 58> * xyz 0 1
| 59>   C                    : -6.197209            -10.043977           -7.076087
| 60>   O                    : -7.192169            -9.113181            -7.459103
| 61>   H                    : -7.983588            -9.380507            -7.088494
| 62>   H                    : -6.571320            -11.022002           -7.330227
| 63>   H                    : -5.260879            -9.809619            -7.601295
| 64>   H                    : -5.787484            -10.013825           -6.086584
| 65>   C                      -9.894746            -10.424157           -3.994685
| 66>   O                      -8.878708            -10.819831           -3.175086
| 67>   H                      -8.357523            -10.022226           -3.038583
| 68>   H                      -10.461767           -9.678682            -3.487673
| 69>   H                      -9.538777            -10.059147           -4.997187
| 70>   H                      -10.558657           -11.231030           -4.328539
| 71> *
| 72>
| 73>                          ****END OF INPUT****
 Total Charge           Charge          ....    0
 Multiplicity           Mult            ....    1
 Number of Electrons    NEL             ....   36
Dispersion correction           -0.001131993
FINAL SINGLE POINT ENERGY      -231.460377628035
Dispersion correction           -0.000241853
FINAL SINGLE POINT ENERGY      -115.728761511966

CARTESIAN COORDINATES (ANGSTROEM)
---------------------------------
  C     -6.197209  -10.043977   -7.076087
  O     -7.192169   -9.113181   -7.459103
  H     -7.983588   -9.380507   -7.088494
  H     -6.571320  -11.022002   -7.330227
  H     -5.260879   -9.809619   -7.601295
  H     -5.787484  -10.013825   -6.086584
  C     -9.894746  -10.424157   -3.994685
  O     -8.878708  -10.819831   -3.175086
  H     -8.357523  -10.022226   -3.038583
  H    -10.461767   -9.678682   -3.487673
  H     -9.538777  -10.059147   -4.997187
  H    -10.558657  -11.231030   -4.328539

 Multiplicity           Mult            ....    1
 Number of Electrons    NEL             ....   18
 Basis Dimension        Dim             ....  172

ORBITAL ENERGIES
----------------

  NO   OCC          E(Eh)            E(eV)
   0   2.0000     -19.231788      -523.3235
   1   2.0000     -10.309229      -280.5284
   2   2.0000      -1.155755       -31.4497
   3   2.0000      -0.791784       -21.5455
   4   2.0000      -0.617599       -16.8057
   5   2.0000      -0.558104       -15.1868
   6   2.0000      -0.532376       -14.4867
   7   2.0000      -0.427005       -11.6194
   8   2.0000      -0.371939       -10.1210
   9   0.0000       0.081737         2.2242
  10   0.0000       0.122237         3.3262
  11   0.0000       0.148143         4.0312
  12   0.0000       0.172697         4.6993
  13   0.0000       0.196640         5.3508

MULLIKEN ATOMIC CHARGES
-----------------------
   0 C :    0.000684
   1 O :   -0.000460
   2 H :    0.000360
   3 H :   -0.000161
   4 H :    0.000012
   5 H :   -0.000366
   6 C :   -0.161957
   7 O :   -0.458732
   8 H :    0.319520
   9 H :    0.102551
  10 H :    0.083600
  11 H :    0.114948
Sum of atomic charges:   -0.0000000

LOEWDIN ATOMIC CHARGES
----------------------
   0 C :   -0.000269
   1 O :   -0.000145
   2 H :   -0.002799
   3 H :   -0.000023
   4 H :   -0.000008
   5 H :   -0.000148
   6 C :   -0.430921
   7 O :   -0.039611
   8 H :    0.179457
   9 H :    0.088265
  10 H :    0.097067
  11 H :    0.109135

  Mayer bond orders larger than 0.1
B(  6-C ,  7-O ) :   1.0045 B(  6-C ,  9-H ) :   0.9883 B(  6-C , 10-H ) :   0.9748
B(  6-C , 11-H ) :   0.9697 B(  7-O ,  8-H ) :   0.8964

Dispersion correction           -0.000210941
FINAL SINGLE POINT ENERGY      -115.730953323337

DIPOLE MOMENT
-------------
                                X             Y             Z
Electronic contribution:      1.30126      -0.69238       1.22235
Nuclear contribution   :     -1.35348       1.31678      -1.42578
                        -----------------------------------------
Total Dipole Moment    :     -0.05222       0.62439      -0.20343
                        -----------------------------------------
Magnitude (a.u.)       :      0.65877
Magnitude (Debye)      :      1.67446

Rotational constants in cm-1:     4.330329     0.877067     0.850161
Rotational constants in MHz : 129820.011984 26293.801776 25487.189168

                             ****ORCA TERMINATED NORMALLY****
TOTAL RUN TIME: 0 days 0 hours 1 minutes 4 seconds 102 msec
