                         Program Version 4.1.2  - RELEASE  -
|  1> #Run DFT-D3 single point of the dimer
|  2> ! wB97X-D3 def2-TZVP TIGHTSCF CHELPG PMODEL PAL8
|  3>
|  4> %base "21-146_DFT_AB"
|  5>
|  6> %scf
|  7> MaxIter 1000
|  8> end
|  9>
| 10> * xyz 0 1
| 11>   C                      -8.603786            5.447837             -7.490318
| 12>   O                      -8.296332            6.339186             -6.437737
| 13>   H                      -7.357825            6.381653             -6.421790
| 14>   H                      -8.094756            4.454546             -7.365590
| 15>   H                      -9.650627            5.292896             -7.546803
| 16>   H                      -8.190118            5.916413             -8.395784
| 17>   C                      -4.797981            5.631424             -2.623240
| 18>   O                      -5.237484            5.394242             -4.010165
| 19>   H                      -5.022059            6.181057             -4.583868
| 20>   H                      -3.706506            5.559531             -2.455493
| 21>   H                      -5.119891            6.579351             -2.201764
| 22>   H                      -5.126361            4.857216             -1.992728
| 23> *
| 24>
| 25> #Run DFT-D3 single point of the molecule with dimer basis set
| 26> $new_job
| 27> %base "21-146_DFT_A"
| 28> ! wB97X-D3 def2-TZVP TIGHTSCF CHELPG PMODEL
| 29>
| 30> %scf
| 31> MaxIter 1000
| 32> end
| 33>
| 34> * xyz 0 1
| 35>   C                      -8.603786            5.447837             -7.490318
| 36>   O                      -8.296332            6.339186             -6.437737
| 37>   H                      -7.357825            6.381653             -6.421790
| 38>   H                      -8.094756            4.454546             -7.365590
| 39>   H                      -9.650627            5.292896             -7.546803
| 40>   H                      -8.190118            5.916413             -8.395784
| 41>   C                    : -4.797981            5.631424             -2.623240
| 42>   O                    : -5.237484            5.394242             -4.010165
| 43>   H                    : -5.022059            6.181057             -4.583868
| 44>   H                    : -3.706506            5.559531             -2.455493
| 45>   H                    : -5.119891            6.579351             -2.201764
| 46>   H                    : -5.126361            4.857216             -1.992728
| 47> *
| 48>
| 49> #Run DFT-D3 single point of the particle with dimer basis set
| 50> $new_job
| 51> %base "21-146_DFT_B"
| 52> ! wB97X-D3 def2-TZVP TIGHTSCF CHELPG PMODEL
| 53>
| 54> %scf
| 55> MaxIter 1000
| 56> end
| 57>
| 58> * xyz 0 1
| 59>   C                    : -8.603786            5.447837             -7.490318
| 60>   O                    : -8.296332            6.339186             -6.437737
| 61>   H                    : -7.357825            6.381653             -6.421790
| 62>   H                    : -8.094756            4.454546             -7.365590
| 63>   H                    : -9.650627            5.292896             -7.546803
| 64>   H                    : -8.190118            5.916413             -8.395784
| 65>   C                      -4.797981            5.631424             -2.623240
| 66>   O                      -5.237484            5.394242             -4.010165
| 67>   H                      -5.022059            6.181057             -4.583868
| 68>   H                      -3.706506            5.559531             -2.455493
| 69>   H                      -5.119891            6.579351             -2.201764
| 70>   H                      -5.126361            4.857216             -1.992728
| 71> *
| 72>
| 73>                          ****END OF INPUT****
 Total Charge           Charge          ....    0
 Multiplicity           Mult            ....    1
 Number of Electrons    NEL             ....   36
Dispersion correction           -0.000961781
FINAL SINGLE POINT ENERGY      -231.463111385265
Dispersion correction           -0.000214172
FINAL SINGLE POINT ENERGY      -115.733906954617

CARTESIAN COORDINATES (ANGSTROEM)
---------------------------------
  C     -8.603786    5.447837   -7.490318
  O     -8.296332    6.339186   -6.437737
  H     -7.357825    6.381653   -6.421790
  H     -8.094756    4.454546   -7.365590
  H     -9.650627    5.292896   -7.546803
  H     -8.190118    5.916413   -8.395784
  C     -4.797981    5.631424   -2.623240
  O     -5.237484    5.394242   -4.010165
  H     -5.022059    6.181057   -4.583868
  H     -3.706506    5.559531   -2.455493
  H     -5.119891    6.579351   -2.201764
  H     -5.126361    4.857216   -1.992728

 Multiplicity           Mult            ....    1
 Number of Electrons    NEL             ....   18
 Basis Dimension        Dim             ....  172

ORBITAL ENERGIES
----------------

  NO   OCC          E(Eh)            E(eV)
   0   2.0000     -19.236127      -523.4416
   1   2.0000     -10.314669      -280.6764
   2   2.0000      -1.111287       -30.2397
   3   2.0000      -0.803041       -21.8519
   4   2.0000      -0.598430       -16.2841
   5   2.0000      -0.535200       -14.5635
   6   2.0000      -0.519475       -14.1356
   7   2.0000      -0.436293       -11.8721
   8   2.0000      -0.376212       -10.2373
   9   0.0000       0.089048         2.4231
  10   0.0000       0.115945         3.1550
  11   0.0000       0.143926         3.9164
  12   0.0000       0.184953         5.0328
  13   0.0000       0.201450         5.4817

MULLIKEN ATOMIC CHARGES
-----------------------
   0 C :    0.000525
   1 O :    0.000015
   2 H :   -0.002695
   3 H :   -0.000256
   4 H :    0.000021
   5 H :   -0.000014
   6 C :   -0.173795
   7 O :   -0.488061
   8 H :    0.319363
   9 H :    0.105305
  10 H :    0.109168
  11 H :    0.130423
Sum of atomic charges:   -0.0000000

LOEWDIN ATOMIC CHARGES
----------------------
   0 C :   -0.000080
   1 O :   -0.000270
   2 H :   -0.001890
   3 H :   -0.000056
   4 H :   -0.000001
   5 H :   -0.000000
   6 C :   -0.347024
   7 O :   -0.130891
   8 H :    0.185617
   9 H :    0.099369
  10 H :    0.095090
  11 H :    0.100136

  Mayer bond orders larger than 0.1
B(  6-C ,  7-O ) :   1.0029 B(  6-C ,  9-H ) :   0.9717 B(  6-C , 10-H ) :   0.9742
B(  6-C , 11-H ) :   0.9753 B(  7-O ,  8-H ) :   0.8918

Dispersion correction           -0.000297283
FINAL SINGLE POINT ENERGY      -115.729407733231

DIPOLE MOMENT
-------------
                                X             Y             Z
Electronic contribution:     -0.67827      -0.40187      -1.72032
Nuclear contribution   :      0.99823       0.97664       1.98124
                        -----------------------------------------
Total Dipole Moment    :      0.31996       0.57477       0.26092
                        -----------------------------------------
Magnitude (a.u.)       :      0.70768
Magnitude (Debye)      :      1.79879

Rotational constants in cm-1:     4.475921     0.762579     0.737911
Rotational constants in MHz : 134184.736908 22861.553105 22122.023276

                             ****ORCA TERMINATED NORMALLY****
TOTAL RUN TIME: 0 days 0 hours 0 minutes 56 seconds 228 msec
