                         Program Version 4.1.2  - RELEASE  -
|  1> #Run DFT-D3 single point of the dimer
|  2> ! wB97X-D3 def2-TZVP TIGHTSCF CHELPG PMODEL PAL8
|  3>
|  4> %base "14-122_DFT_AB"
|  5>
|  6> %scf
|  7> MaxIter 1000
|  8> end
|  9>
| 10> * xyz 0 1
| 11>   C                      -1.362543            6.784930             3.679058
| 12>   O                      -0.219741            7.521161             3.879493
| 13>   H                      0.185538             7.018371             4.576261
| 14>   H                      -1.285645            5.847294             3.067514
| 15>   H                      -1.664286            6.494515             4.688009
| 16>   H                      -2.131244            7.378088             3.241805
| 17>   C                      1.659542             8.064693             6.619045
| 18>   O                      1.285036             6.716515             6.451179
| 19>   H                      1.421251             6.185337             7.233705
| 20>   H                      1.064452             8.608270             7.410314
| 21>   H                      2.687417             8.150073             6.816097
| 22>   H                      1.495110             8.473051             5.686269
| 23> *
| 24>
| 25> #Run DFT-D3 single point of the molecule with dimer basis set
| 26> $new_job
| 27> %base "14-122_DFT_A"
| 28> ! wB97X-D3 def2-TZVP TIGHTSCF CHELPG PMODEL
| 29>
| 30> %scf
| 31> MaxIter 1000
| 32> end
| 33>
| 34> * xyz 0 1
| 35>   C                      -1.362543            6.784930             3.679058
| 36>   O                      -0.219741            7.521161             3.879493
| 37>   H                      0.185538             7.018371             4.576261
| 38>   H                      -1.285645            5.847294             3.067514
| 39>   H                      -1.664286            6.494515             4.688009
| 40>   H                      -2.131244            7.378088             3.241805
| 41>   C                    : 1.659542             8.064693             6.619045
| 42>   O                    : 1.285036             6.716515             6.451179
| 43>   H                    : 1.421251             6.185337             7.233705
| 44>   H                    : 1.064452             8.608270             7.410314
| 45>   H                    : 2.687417             8.150073             6.816097
| 46>   H                    : 1.495110             8.473051             5.686269
| 47> *
| 48>
| 49> #Run DFT-D3 single point of the particle with dimer basis set
| 50> $new_job
| 51> %base "14-122_DFT_B"
| 52> ! wB97X-D3 def2-TZVP TIGHTSCF CHELPG PMODEL
| 53>
| 54> %scf
| 55> MaxIter 1000
| 56> end
| 57>
| 58> * xyz 0 1
| 59>   C                    : -1.362543            6.784930             3.679058
| 60>   O                    : -0.219741            7.521161             3.879493
| 61>   H                    : 0.185538             7.018371             4.576261
| 62>   H                    : -1.285645            5.847294             3.067514
| 63>   H                    : -1.664286            6.494515             4.688009
| 64>   H                    : -2.131244            7.378088             3.241805
| 65>   C                      1.659542             8.064693             6.619045
| 66>   O                      1.285036             6.716515             6.451179
| 67>   H                      1.421251             6.185337             7.233705
| 68>   H                      1.064452             8.608270             7.410314
| 69>   H                      2.687417             8.150073             6.816097
| 70>   H                      1.495110             8.473051             5.686269
| 71> *
| 72>
| 73>                          ****END OF INPUT****
 Total Charge           Charge          ....    0
 Multiplicity           Mult            ....    1
 Number of Electrons    NEL             ....   36
Dispersion correction           -0.001727623
FINAL SINGLE POINT ENERGY      -231.469323143706
Dispersion correction           -0.000207670
FINAL SINGLE POINT ENERGY      -115.729132579253

CARTESIAN COORDINATES (ANGSTROEM)
---------------------------------
  C     -1.362543    6.784930    3.679058
  O     -0.219741    7.521161    3.879493
  H      0.185538    7.018371    4.576261
  H     -1.285645    5.847294    3.067514
  H     -1.664286    6.494515    4.688009
  H     -2.131244    7.378088    3.241805
  C      1.659542    8.064693    6.619045
  O      1.285036    6.716515    6.451179
  H      1.421251    6.185337    7.233705
  H      1.064452    8.608270    7.410314
  H      2.687417    8.150073    6.816097
  H      1.495110    8.473051    5.686269

 Multiplicity           Mult            ....    1
 Number of Electrons    NEL             ....   18
 Basis Dimension        Dim             ....  172

ORBITAL ENERGIES
----------------

  NO   OCC          E(Eh)            E(eV)
   0   2.0000     -19.226297      -523.1741
   1   2.0000     -10.304346      -280.3955
   2   2.0000      -1.134397       -30.8685
   3   2.0000      -0.804482       -21.8911
   4   2.0000      -0.613300       -16.6887
   5   2.0000      -0.543408       -14.7869
   6   2.0000      -0.531310       -14.4577
   7   2.0000      -0.430997       -11.7280
   8   2.0000      -0.373672       -10.1681
   9   0.0000       0.100475         2.7341
  10   0.0000       0.124556         3.3893
  11   0.0000       0.156229         4.2512
  12   0.0000       0.184867         5.0305
  13   0.0000       0.204689         5.5699

MULLIKEN ATOMIC CHARGES
-----------------------
   0 C :    0.001326
   1 O :   -0.000552
   2 H :   -0.002517
   3 H :   -0.000120
   4 H :   -0.002964
   5 H :   -0.000153
   6 C :   -0.134273
   7 O :   -0.483575
   8 H :    0.308330
   9 H :    0.091727
  10 H :    0.103180
  11 H :    0.119590
Sum of atomic charges:   -0.0000000

LOEWDIN ATOMIC CHARGES
----------------------
   0 C :   -0.001536
   1 O :   -0.003277
   2 H :   -0.020112
   3 H :   -0.000014
   4 H :   -0.001155
   5 H :   -0.000010
   6 C :   -0.367575
   7 O :   -0.054523
   8 H :    0.160863
   9 H :    0.101627
  10 H :    0.086788
  11 H :    0.098923

  Mayer bond orders larger than 0.1
B(  6-C ,  7-O ) :   0.9941 B(  6-C ,  9-H ) :   0.9729 B(  6-C , 10-H ) :   0.9776
B(  6-C , 11-H ) :   0.9813 B(  7-O ,  8-H ) :   0.8984

Dispersion correction           -0.000243261
FINAL SINGLE POINT ENERGY      -115.732362215546

DIPOLE MOMENT
-------------
                                X             Y             Z
Electronic contribution:     -0.45377      -1.62155      -0.30755
Nuclear contribution   :      0.72361       1.82602       0.86264
                        -----------------------------------------
Total Dipole Moment    :      0.26984       0.20447       0.55509
                        -----------------------------------------
Magnitude (a.u.)       :      0.65019
Magnitude (Debye)      :      1.65266

Rotational constants in cm-1:     4.469659     0.836910     0.813202
Rotational constants in MHz : 133997.009106 25089.932974 24379.187945

                             ****ORCA TERMINATED NORMALLY****
TOTAL RUN TIME: 0 days 0 hours 1 minutes 9 seconds 952 msec
