                         Program Version 4.1.2  - RELEASE  -
|  1> #Run DFT-D3 single point of the dimer
|  2> ! wB97X-D3 def2-TZVP TIGHTSCF CHELPG PMODEL PAL8
|  3>
|  4> %base "6-203_DFT_AB"
|  5>
|  6> %scf
|  7> MaxIter 1000
|  8> end
|  9>
| 10> * xyz 0 1
| 11>   C                      6.624132             7.413603             -8.245069
| 12>   O                      6.961184             7.120662             -6.934028
| 13>   H                      6.227871             6.513925             -6.667975
| 14>   H                      5.636665             7.834157             -8.331550
| 15>   H                      7.321227             8.095600             -8.805844
| 16>   H                      6.747616             6.490102             -8.871968
| 17>   C                      4.349368             4.701907             -6.236978
| 18>   O                      5.661383             4.302068             -6.488714
| 19>   H                      5.674143             3.563855             -7.114383
| 20>   H                      4.232287             5.565192             -5.597994
| 21>   H                      3.850073             4.906700             -7.251713
| 22>   H                      3.767624             3.923244             -5.754191
| 23> *
| 24>
| 25> #Run DFT-D3 single point of the molecule with dimer basis set
| 26> $new_job
| 27> %base "6-203_DFT_A"
| 28> ! wB97X-D3 def2-TZVP TIGHTSCF CHELPG PMODEL
| 29>
| 30> %scf
| 31> MaxIter 1000
| 32> end
| 33>
| 34> * xyz 0 1
| 35>   C                      6.624132             7.413603             -8.245069
| 36>   O                      6.961184             7.120662             -6.934028
| 37>   H                      6.227871             6.513925             -6.667975
| 38>   H                      5.636665             7.834157             -8.331550
| 39>   H                      7.321227             8.095600             -8.805844
| 40>   H                      6.747616             6.490102             -8.871968
| 41>   C                    : 4.349368             4.701907             -6.236978
| 42>   O                    : 5.661383             4.302068             -6.488714
| 43>   H                    : 5.674143             3.563855             -7.114383
| 44>   H                    : 4.232287             5.565192             -5.597994
| 45>   H                    : 3.850073             4.906700             -7.251713
| 46>   H                    : 3.767624             3.923244             -5.754191
| 47> *
| 48>
| 49> #Run DFT-D3 single point of the particle with dimer basis set
| 50> $new_job
| 51> %base "6-203_DFT_B"
| 52> ! wB97X-D3 def2-TZVP TIGHTSCF CHELPG PMODEL
| 53>
| 54> %scf
| 55> MaxIter 1000
| 56> end
| 57>
| 58> * xyz 0 1
| 59>   C                    : 6.624132             7.413603             -8.245069
| 60>   O                    : 6.961184             7.120662             -6.934028
| 61>   H                    : 6.227871             6.513925             -6.667975
| 62>   H                    : 5.636665             7.834157             -8.331550
| 63>   H                    : 7.321227             8.095600             -8.805844
| 64>   H                    : 6.747616             6.490102             -8.871968
| 65>   C                      4.349368             4.701907             -6.236978
| 66>   O                      5.661383             4.302068             -6.488714
| 67>   H                      5.674143             3.563855             -7.114383
| 68>   H                      4.232287             5.565192             -5.597994
| 69>   H                      3.850073             4.906700             -7.251713
| 70>   H                      3.767624             3.923244             -5.754191
| 71> *
| 72>
| 73>                          ****END OF INPUT****
 Total Charge           Charge          ....    0
 Multiplicity           Mult            ....    1
 Number of Electrons    NEL             ....   36
Dispersion correction           -0.001931373
FINAL SINGLE POINT ENERGY      -231.466333316685
Dispersion correction           -0.000222989
FINAL SINGLE POINT ENERGY      -115.729815188489

CARTESIAN COORDINATES (ANGSTROEM)
---------------------------------
  C      6.624132    7.413603   -8.245069
  O      6.961184    7.120662   -6.934028
  H      6.227871    6.513925   -6.667975
  H      5.636665    7.834157   -8.331550
  H      7.321227    8.095600   -8.805844
  H      6.747616    6.490102   -8.871968
  C      4.349368    4.701907   -6.236978
  O      5.661383    4.302068   -6.488714
  H      5.674143    3.563855   -7.114383
  H      4.232287    5.565192   -5.597994
  H      3.850073    4.906700   -7.251713
  H      3.767624    3.923244   -5.754191

 Multiplicity           Mult            ....    1
 Number of Electrons    NEL             ....   18
 Basis Dimension        Dim             ....  172

ORBITAL ENERGIES
----------------

  NO   OCC          E(Eh)            E(eV)
   0   2.0000     -19.230991      -523.3019
   1   2.0000     -10.315585      -280.7013
   2   2.0000      -1.140290       -31.0289
   3   2.0000      -0.794052       -21.6072
   4   2.0000      -0.612997       -16.6805
   5   2.0000      -0.541718       -14.7409
   6   2.0000      -0.535173       -14.5628
   7   2.0000      -0.427729       -11.6391
   8   2.0000      -0.369604       -10.0574
   9   0.0000       0.092234         2.5098
  10   0.0000       0.124726         3.3940
  11   0.0000       0.150663         4.0997
  12   0.0000       0.180420         4.9095
  13   0.0000       0.196200         5.3389

MULLIKEN ATOMIC CHARGES
-----------------------
   0 C :   -0.000111
   1 O :   -0.000587
   2 H :    0.002885
   3 H :   -0.000363
   4 H :   -0.000169
   5 H :   -0.003185
   6 C :   -0.176678
   7 O :   -0.472665
   8 H :    0.319402
   9 H :    0.125949
  10 H :    0.095932
  11 H :    0.109590
Sum of atomic charges:    0.0000000

LOEWDIN ATOMIC CHARGES
----------------------
   0 C :   -0.003053
   1 O :   -0.002785
   2 H :   -0.015546
   3 H :   -0.000113
   4 H :   -0.000038
   5 H :   -0.001398
   6 C :   -0.401455
   7 O :   -0.054064
   8 H :    0.176498
   9 H :    0.106563
  10 H :    0.103469
  11 H :    0.091923

  Mayer bond orders larger than 0.1
B(  6-C ,  7-O ) :   0.9903 B(  6-C ,  9-H ) :   0.9717 B(  6-C , 10-H ) :   0.9864
B(  6-C , 11-H ) :   0.9708 B(  7-O ,  8-H ) :   0.8916

Dispersion correction           -0.000236721
FINAL SINGLE POINT ENERGY      -115.732699026711

DIPOLE MOMENT
-------------
                                X             Y             Z
Electronic contribution:      1.84701      -0.37612      -0.10448
Nuclear contribution   :     -2.34489       0.05066      -0.16160
                        -----------------------------------------
Total Dipole Moment    :     -0.49788      -0.32546      -0.26609
                        -----------------------------------------
Magnitude (a.u.)       :      0.65162
Magnitude (Debye)      :      1.65629

Rotational constants in cm-1:     4.294175     0.841356     0.810765
Rotational constants in MHz : 128736.134829 25223.224655 24306.136270

                             ****ORCA TERMINATED NORMALLY****
TOTAL RUN TIME: 0 days 0 hours 1 minutes 6 seconds 501 msec
