                         Program Version 4.1.2  - RELEASE  -
|  1> #Run DFT-D3 single point of the dimer
|  2> ! wB97X-D3 def2-TZVP TIGHTSCF CHELPG PMODEL PAL8
|  3>
|  4> %base "6-53_DFT_AB"
|  5>
|  6> %scf
|  7> MaxIter 1000
|  8> end
|  9>
| 10> * xyz 0 1
| 11>   C                      0.196325             -0.976893            10.050342
| 12>   O                      1.433650             -0.253384            9.974844
| 13>   H                      1.432420             0.446621             10.619602
| 14>   H                      -0.611933            -0.325739            10.403889
| 15>   H                      -0.103297            -1.288178            8.974143
| 16>   H                      0.344229             -1.799503            10.711079
| 17>   C                      0.183462             0.452977             6.161411
| 18>   O                      0.088514             1.558360             6.965881
| 19>   H                      0.995912             1.881266             7.136302
| 20>   H                      -0.781948            0.267522             5.660353
| 21>   H                      0.841849             0.636354             5.347028
| 22>   H                      0.628040             -0.451358            6.668737
| 23> *
| 24>
| 25> #Run DFT-D3 single point of the molecule with dimer basis set
| 26> $new_job
| 27> %base "6-53_DFT_A"
| 28> ! wB97X-D3 def2-TZVP TIGHTSCF CHELPG PMODEL
| 29>
| 30> %scf
| 31> MaxIter 1000
| 32> end
| 33>
| 34> * xyz 0 1
| 35>   C                      0.196325             -0.976893            10.050342
| 36>   O                      1.433650             -0.253384            9.974844
| 37>   H                      1.432420             0.446621             10.619602
| 38>   H                      -0.611933            -0.325739            10.403889
| 39>   H                      -0.103297            -1.288178            8.974143
| 40>   H                      0.344229             -1.799503            10.711079
| 41>   C                    : 0.183462             0.452977             6.161411
| 42>   O                    : 0.088514             1.558360             6.965881
| 43>   H                    : 0.995912             1.881266             7.136302
| 44>   H                    : -0.781948            0.267522             5.660353
| 45>   H                    : 0.841849             0.636354             5.347028
| 46>   H                    : 0.628040             -0.451358            6.668737
| 47> *
| 48>
| 49> #Run DFT-D3 single point of the particle with dimer basis set
| 50> $new_job
| 51> %base "6-53_DFT_B"
| 52> ! wB97X-D3 def2-TZVP TIGHTSCF CHELPG PMODEL
| 53>
| 54> %scf
| 55> MaxIter 1000
| 56> end
| 57>
| 58> * xyz 0 1
| 59>   C                    : 0.196325             -0.976893            10.050342
| 60>   O                    : 1.433650             -0.253384            9.974844
| 61>   H                    : 1.432420             0.446621             10.619602
| 62>   H                    : -0.611933            -0.325739            10.403889
| 63>   H                    : -0.103297            -1.288178            8.974143
| 64>   H                    : 0.344229             -1.799503            10.711079
| 65>   C                      0.183462             0.452977             6.161411
| 66>   O                      0.088514             1.558360             6.965881
| 67>   H                      0.995912             1.881266             7.136302
| 68>   H                      -0.781948            0.267522             5.660353
| 69>   H                      0.841849             0.636354             5.347028
| 70>   H                      0.628040             -0.451358            6.668737
| 71> *
| 72>
| 73>                          ****END OF INPUT****
 Total Charge           Charge          ....    0
 Multiplicity           Mult            ....    1
 Number of Electrons    NEL             ....   36
Dispersion correction           -0.001635250
FINAL SINGLE POINT ENERGY      -231.466915550124
Dispersion correction           -0.000246669
FINAL SINGLE POINT ENERGY      -115.732452590522

CARTESIAN COORDINATES (ANGSTROEM)
---------------------------------
  C      0.196325   -0.976893   10.050342
  O      1.433650   -0.253384    9.974844
  H      1.432420    0.446621   10.619602
  H     -0.611933   -0.325739   10.403889
  H     -0.103297   -1.288178    8.974143
  H      0.344229   -1.799503   10.711079
  C      0.183462    0.452977    6.161411
  O      0.088514    1.558360    6.965881
  H      0.995912    1.881266    7.136302
  H     -0.781948    0.267522    5.660353
  H      0.841849    0.636354    5.347028
  H      0.628040   -0.451358    6.668737

 Multiplicity           Mult            ....    1
 Number of Electrons    NEL             ....   18
 Basis Dimension        Dim             ....  172

ORBITAL ENERGIES
----------------

  NO   OCC          E(Eh)            E(eV)
   0   2.0000     -19.233245      -523.3632
   1   2.0000     -10.309875      -280.5460
   2   2.0000      -1.148643       -31.2562
   3   2.0000      -0.791685       -21.5428
   4   2.0000      -0.621346       -16.9077
   5   2.0000      -0.546247       -14.8641
   6   2.0000      -0.528520       -14.3818
   7   2.0000      -0.430910       -11.7257
   8   2.0000      -0.370711       -10.0875
   9   0.0000       0.085722         2.3326
  10   0.0000       0.122009         3.3200
  11   0.0000       0.149665         4.0726
  12   0.0000       0.175919         4.7870
  13   0.0000       0.190524         5.1844

MULLIKEN ATOMIC CHARGES
-----------------------
   0 C :   -0.001919
   1 O :   -0.000341
   2 H :   -0.000227
   3 H :   -0.000065
   4 H :    0.001698
   5 H :    0.000078
   6 C :   -0.161839
   7 O :   -0.464914
   8 H :    0.319002
   9 H :    0.115470
  10 H :    0.104477
  11 H :    0.088581
Sum of atomic charges:   -0.0000000

LOEWDIN ATOMIC CHARGES
----------------------
   0 C :   -0.002561
   1 O :   -0.000565
   2 H :   -0.000236
   3 H :   -0.000226
   4 H :   -0.002418
   5 H :   -0.000050
   6 C :   -0.425301
   7 O :   -0.049442
   8 H :    0.184917
   9 H :    0.111660
  10 H :    0.086338
  11 H :    0.097884

  Mayer bond orders larger than 0.1
B(  6-C ,  7-O ) :   1.0063 B(  6-C ,  9-H ) :   0.9723 B(  6-C , 10-H ) :   0.9841
B(  6-C , 11-H ) :   0.9705 B(  7-O ,  8-H ) :   0.8926

Dispersion correction           -0.000224686
FINAL SINGLE POINT ENERGY      -115.732168605928

DIPOLE MOMENT
-------------
                                X             Y             Z
Electronic contribution:     -0.33766       1.46923       1.13195
Nuclear contribution   :      0.95589      -1.63530      -1.36474
                        -----------------------------------------
Total Dipole Moment    :      0.61823      -0.16607      -0.23279
                        -----------------------------------------
Magnitude (a.u.)       :      0.68116
Magnitude (Debye)      :      1.73137

Rotational constants in cm-1:     4.269271     0.873025     0.836081
Rotational constants in MHz : 127989.522918 26172.617757 25065.076590

                             ****ORCA TERMINATED NORMALLY****
TOTAL RUN TIME: 0 days 0 hours 0 minutes 57 seconds 433 msec
