                         Program Version 4.1.2  - RELEASE  -
|  1> #Run DFT-D3 single point of the dimer
|  2> ! wB97X-D3 def2-TZVP TIGHTSCF CHELPG PMODEL PAL8
|  3>
|  4> %base "18-12_DFT_AB"
|  5>
|  6> %scf
|  7> MaxIter 1000
|  8> end
|  9>
| 10> * xyz 0 1
| 11>   C                      1.789285             9.798423             -2.464702
| 12>   O                      2.889570             10.586637            -2.007297
| 13>   H                      2.798921             10.643839            -1.020595
| 14>   H                      1.306149             10.392855            -3.281718
| 15>   H                      2.071224             8.818361             -2.858965
| 16>   H                      0.975558             9.695420             -1.724452
| 17>   C                      5.638624             6.367757             -2.213332
| 18>   O                      6.093119             5.789280             -1.037597
| 19>   H                      6.847326             6.324056             -0.734142
| 20>   H                      6.284579             6.177200             -3.036976
| 21>   H                      4.635614             6.023966             -2.427776
| 22>   H                      5.511094             7.430852             -2.117926
| 23> *
| 24>
| 25> #Run DFT-D3 single point of the molecule with dimer basis set
| 26> $new_job
| 27> %base "18-12_DFT_A"
| 28> ! wB97X-D3 def2-TZVP TIGHTSCF CHELPG PMODEL
| 29>
| 30> %scf
| 31> MaxIter 1000
| 32> end
| 33>
| 34> * xyz 0 1
| 35>   C                      1.789285             9.798423             -2.464702
| 36>   O                      2.889570             10.586637            -2.007297
| 37>   H                      2.798921             10.643839            -1.020595
| 38>   H                      1.306149             10.392855            -3.281718
| 39>   H                      2.071224             8.818361             -2.858965
| 40>   H                      0.975558             9.695420             -1.724452
| 41>   C                    : 5.638624             6.367757             -2.213332
| 42>   O                    : 6.093119             5.789280             -1.037597
| 43>   H                    : 6.847326             6.324056             -0.734142
| 44>   H                    : 6.284579             6.177200             -3.036976
| 45>   H                    : 4.635614             6.023966             -2.427776
| 46>   H                    : 5.511094             7.430852             -2.117926
| 47> *
| 48>
| 49> #Run DFT-D3 single point of the particle with dimer basis set
| 50> $new_job
| 51> %base "18-12_DFT_B"
| 52> ! wB97X-D3 def2-TZVP TIGHTSCF CHELPG PMODEL
| 53>
| 54> %scf
| 55> MaxIter 1000
| 56> end
| 57>
| 58> * xyz 0 1
| 59>   C                    : 1.789285             9.798423             -2.464702
| 60>   O                    : 2.889570             10.586637            -2.007297
| 61>   H                    : 2.798921             10.643839            -1.020595
| 62>   H                    : 1.306149             10.392855            -3.281718
| 63>   H                    : 2.071224             8.818361             -2.858965
| 64>   H                    : 0.975558             9.695420             -1.724452
| 65>   C                      5.638624             6.367757             -2.213332
| 66>   O                      6.093119             5.789280             -1.037597
| 67>   H                      6.847326             6.324056             -0.734142
| 68>   H                      6.284579             6.177200             -3.036976
| 69>   H                      4.635614             6.023966             -2.427776
| 70>   H                      5.511094             7.430852             -2.117926
| 71> *
| 72>
| 73>                          ****END OF INPUT****
 Total Charge           Charge          ....    0
 Multiplicity           Mult            ....    1
 Number of Electrons    NEL             ....   36
Dispersion correction           -0.000799969
FINAL SINGLE POINT ENERGY      -231.468322862704
Dispersion correction           -0.000263189
FINAL SINGLE POINT ENERGY      -115.732739814955

CARTESIAN COORDINATES (ANGSTROEM)
---------------------------------
  C      1.789285    9.798423   -2.464702
  O      2.889570   10.586637   -2.007297
  H      2.798921   10.643839   -1.020595
  H      1.306149   10.392855   -3.281718
  H      2.071224    8.818361   -2.858965
  H      0.975558    9.695420   -1.724452
  C      5.638624    6.367757   -2.213332
  O      6.093119    5.789280   -1.037597
  H      6.847326    6.324056   -0.734142
  H      6.284579    6.177200   -3.036976
  H      4.635614    6.023966   -2.427776
  H      5.511094    7.430852   -2.117926

 Multiplicity           Mult            ....    1
 Number of Electrons    NEL             ....   18
 Basis Dimension        Dim             ....  172

ORBITAL ENERGIES
----------------

  NO   OCC          E(Eh)            E(eV)
   0   2.0000     -19.230687      -523.2936
   1   2.0000     -10.302816      -280.3539
   2   2.0000      -1.142626       -31.0924
   3   2.0000      -0.797365       -21.6974
   4   2.0000      -0.615449       -16.7472
   5   2.0000      -0.552206       -15.0263
   6   2.0000      -0.528491       -14.3810
   7   2.0000      -0.431071       -11.7300
   8   2.0000      -0.373897       -10.1743
   9   0.0000       0.083229         2.2648
  10   0.0000       0.115519         3.1434
  11   0.0000       0.149589         4.0705
  12   0.0000       0.161548         4.3960
  13   0.0000       0.192654         5.2424

MULLIKEN ATOMIC CHARGES
-----------------------
   0 C :    0.000156
   1 O :   -0.000006
   2 H :   -0.000010
   3 H :   -0.000007
   4 H :   -0.000380
   5 H :   -0.000010
   6 C :   -0.156132
   7 O :   -0.470847
   8 H :    0.316646
   9 H :    0.099879
  10 H :    0.111068
  11 H :    0.099644
Sum of atomic charges:   -0.0000000

LOEWDIN ATOMIC CHARGES
----------------------
   0 C :   -0.000138
   1 O :   -0.000036
   2 H :   -0.000018
   3 H :   -0.000001
   4 H :   -0.000168
   5 H :   -0.000002
   6 C :   -0.402712
   7 O :   -0.062292
   8 H :    0.179853
   9 H :    0.087829
  10 H :    0.106591
  11 H :    0.091095

  Mayer bond orders larger than 0.1
B(  6-C ,  7-O ) :   1.0057 B(  6-C ,  9-H ) :   0.9753 B(  6-C , 10-H ) :   0.9743
B(  6-C , 11-H ) :   0.9829 B(  7-O ,  8-H ) :   0.8969

Dispersion correction           -0.000218739
FINAL SINGLE POINT ENERGY      -115.734822110146

DIPOLE MOMENT
-------------
                                X             Y             Z
Electronic contribution:      0.54128      -0.90517       1.49900
Nuclear contribution   :     -0.25473       1.47722      -1.75461
                        -----------------------------------------
Total Dipole Moment    :      0.28655       0.57205      -0.25560
                        -----------------------------------------
Magnitude (a.u.)       :      0.68897
Magnitude (Debye)      :      1.75123

Rotational constants in cm-1:     4.420602     0.860194     0.830298
Rotational constants in MHz : 132526.302907 25787.968156 24891.696570

                             ****ORCA TERMINATED NORMALLY****
TOTAL RUN TIME: 0 days 0 hours 1 minutes 1 seconds 575 msec
