                         Program Version 4.1.2  - RELEASE  -
|  1> #Run DFT-D3 single point of the dimer
|  2> ! wB97X-D3 def2-TZVP TIGHTSCF CHELPG PMODEL PAL8
|  3>
|  4> %base "8-40_DFT_AB"
|  5>
|  6> %scf
|  7> MaxIter 1000
|  8> end
|  9>
| 10> * xyz 0 1
| 11>   C                      -5.732268            -10.125279           -1.351968
| 12>   O                      -6.836174            -9.413016            -0.708576
| 13>   H                      -7.613012            -9.982425            -0.455737
| 14>   H                      -4.905482            -9.401689            -1.548393
| 15>   H                      -5.473831            -11.022509           -0.746062
| 16>   H                      -6.049753            -10.514197           -2.342592
| 17>   C                      -8.183820            -8.890528            -5.592475
| 18>   O                      -8.780247            -8.304853            -6.702268
| 19>   H                      -8.825074            -8.889431            -7.467641
| 20>   H                      -8.462808            -9.888458            -5.483758
| 21>   H                      -7.092335            -8.916244            -5.847130
| 22>   H                      -8.420054            -8.462473            -4.565540
| 23> *
| 24>
| 25> #Run DFT-D3 single point of the molecule with dimer basis set
| 26> $new_job
| 27> %base "8-40_DFT_A"
| 28> ! wB97X-D3 def2-TZVP TIGHTSCF CHELPG PMODEL
| 29>
| 30> %scf
| 31> MaxIter 1000
| 32> end
| 33>
| 34> * xyz 0 1
| 35>   C                      -5.732268            -10.125279           -1.351968
| 36>   O                      -6.836174            -9.413016            -0.708576
| 37>   H                      -7.613012            -9.982425            -0.455737
| 38>   H                      -4.905482            -9.401689            -1.548393
| 39>   H                      -5.473831            -11.022509           -0.746062
| 40>   H                      -6.049753            -10.514197           -2.342592
| 41>   C                    : -8.183820            -8.890528            -5.592475
| 42>   O                    : -8.780247            -8.304853            -6.702268
| 43>   H                    : -8.825074            -8.889431            -7.467641
| 44>   H                    : -8.462808            -9.888458            -5.483758
| 45>   H                    : -7.092335            -8.916244            -5.847130
| 46>   H                    : -8.420054            -8.462473            -4.565540
| 47> *
| 48>
| 49> #Run DFT-D3 single point of the particle with dimer basis set
| 50> $new_job
| 51> %base "8-40_DFT_B"
| 52> ! wB97X-D3 def2-TZVP TIGHTSCF CHELPG PMODEL
| 53>
| 54> %scf
| 55> MaxIter 1000
| 56> end
| 57>
| 58> * xyz 0 1
| 59>   C                    : -5.732268            -10.125279           -1.351968
| 60>   O                    : -6.836174            -9.413016            -0.708576
| 61>   H                    : -7.613012            -9.982425            -0.455737
| 62>   H                    : -4.905482            -9.401689            -1.548393
| 63>   H                    : -5.473831            -11.022509           -0.746062
| 64>   H                    : -6.049753            -10.514197           -2.342592
| 65>   C                      -8.183820            -8.890528            -5.592475
| 66>   O                      -8.780247            -8.304853            -6.702268
| 67>   H                      -8.825074            -8.889431            -7.467641
| 68>   H                      -8.462808            -9.888458            -5.483758
| 69>   H                      -7.092335            -8.916244            -5.847130
| 70>   H                      -8.420054            -8.462473            -4.565540
| 71> *
| 72>
| 73>                          ****END OF INPUT****
 Total Charge           Charge          ....    0
 Multiplicity           Mult            ....    1
 Number of Electrons    NEL             ....   36
Dispersion correction           -0.000841223
FINAL SINGLE POINT ENERGY      -231.455898683098
Dispersion correction           -0.000279408
FINAL SINGLE POINT ENERGY      -115.730407015085

CARTESIAN COORDINATES (ANGSTROEM)
---------------------------------
  C     -5.732268  -10.125279   -1.351968
  O     -6.836174   -9.413016   -0.708576
  H     -7.613012   -9.982425   -0.455737
  H     -4.905482   -9.401689   -1.548393
  H     -5.473831  -11.022509   -0.746062
  H     -6.049753  -10.514197   -2.342592
  C     -8.183820   -8.890528   -5.592475
  O     -8.780247   -8.304853   -6.702268
  H     -8.825074   -8.889431   -7.467641
  H     -8.462808   -9.888458   -5.483758
  H     -7.092335   -8.916244   -5.847130
  H     -8.420054   -8.462473   -4.565540

 Multiplicity           Mult            ....    1
 Number of Electrons    NEL             ....   18
 Basis Dimension        Dim             ....  172

ORBITAL ENERGIES
----------------

  NO   OCC          E(Eh)            E(eV)
   0   2.0000     -19.226079      -523.1682
   1   2.0000     -10.313029      -280.6318
   2   2.0000      -1.139222       -30.9998
   3   2.0000      -0.795460       -21.6456
   4   2.0000      -0.619024       -16.8445
   5   2.0000      -0.547343       -14.8940
   6   2.0000      -0.525575       -14.3016
   7   2.0000      -0.421861       -11.4794
   8   2.0000      -0.367159        -9.9909
   9   0.0000       0.081439         2.2161
  10   0.0000       0.114808         3.1241
  11   0.0000       0.144550         3.9334
  12   0.0000       0.158708         4.3187
  13   0.0000       0.187399         5.0994

MULLIKEN ATOMIC CHARGES
-----------------------
   0 C :   -0.000101
   1 O :    0.000000
   2 H :   -0.000006
   3 H :   -0.000002
   4 H :    0.000001
   5 H :    0.000103
   6 C :   -0.158438
   7 O :   -0.485231
   8 H :    0.320748
   9 H :    0.105335
  10 H :    0.098591
  11 H :    0.118999
Sum of atomic charges:   -0.0000000

LOEWDIN ATOMIC CHARGES
----------------------
   0 C :   -0.000069
   1 O :   -0.000016
   2 H :   -0.000010
   3 H :   -0.000005
   4 H :   -0.000001
   5 H :   -0.000072
   6 C :   -0.406017
   7 O :   -0.068082
   8 H :    0.173396
   9 H :    0.081372
  10 H :    0.101675
  11 H :    0.117828

  Mayer bond orders larger than 0.1
B(  6-C ,  7-O ) :   0.9898 B(  6-C ,  9-H ) :   0.9789 B(  6-C , 10-H ) :   0.9889
B(  6-C , 11-H ) :   0.9634 B(  7-O ,  8-H ) :   0.8900

Dispersion correction           -0.000233558
FINAL SINGLE POINT ENERGY      -115.725149388715

DIPOLE MOMENT
-------------
                                X             Y             Z
Electronic contribution:     -0.89028       0.91994      -1.31531
Nuclear contribution   :      1.05988      -1.58037       1.25641
                        -----------------------------------------
Total Dipole Moment    :      0.16960      -0.66042      -0.05890
                        -----------------------------------------
Magnitude (a.u.)       :      0.68439
Magnitude (Debye)      :      1.73959

Rotational constants in cm-1:     4.390732     0.844318     0.814951
Rotational constants in MHz : 131630.824295 25312.011299 24431.629916

                             ****ORCA TERMINATED NORMALLY****
TOTAL RUN TIME: 0 days 0 hours 0 minutes 42 seconds 30 msec
