                         Program Version 4.1.2  - RELEASE  -
|  1> #Run DFT-D3 single point of the dimer
|  2> ! wB97X-D3 def2-TZVP TIGHTSCF CHELPG PMODEL PAL8
|  3>
|  4> %base "11-8_DFT_AB"
|  5>
|  6> %scf
|  7> MaxIter 1000
|  8> end
|  9>
| 10> * xyz 0 1
| 11>   C                      -2.148013            2.129847             1.911966
| 12>   O                      -0.703100            2.202816             2.039990
| 13>   H                      -0.327344            2.930984             1.522731
| 14>   H                      -2.414317            2.238284             0.914172
| 15>   H                      -2.582117            1.155431             2.198879
| 16>   H                      -2.594961            2.946416             2.554262
| 17>   C                      -1.021915            2.852459             -2.001228
| 18>   O                      -0.952008            4.277122             -1.661741
| 19>   H                      -1.236880            4.719434             -2.465130
| 20>   H                      -0.167043            2.540624             -2.682369
| 21>   H                      -1.096906            2.264152             -1.113842
| 22>   H                      -1.909074            2.582421             -2.660496
| 23> *
| 24>
| 25> #Run DFT-D3 single point of the molecule with dimer basis set
| 26> $new_job
| 27> %base "11-8_DFT_A"
| 28> ! wB97X-D3 def2-TZVP TIGHTSCF CHELPG PMODEL
| 29>
| 30> %scf
| 31> MaxIter 1000
| 32> end
| 33>
| 34> * xyz 0 1
| 35>   C                      -2.148013            2.129847             1.911966
| 36>   O                      -0.703100            2.202816             2.039990
| 37>   H                      -0.327344            2.930984             1.522731
| 38>   H                      -2.414317            2.238284             0.914172
| 39>   H                      -2.582117            1.155431             2.198879
| 40>   H                      -2.594961            2.946416             2.554262
| 41>   C                    : -1.021915            2.852459             -2.001228
| 42>   O                    : -0.952008            4.277122             -1.661741
| 43>   H                    : -1.236880            4.719434             -2.465130
| 44>   H                    : -0.167043            2.540624             -2.682369
| 45>   H                    : -1.096906            2.264152             -1.113842
| 46>   H                    : -1.909074            2.582421             -2.660496
| 47> *
| 48>
| 49> #Run DFT-D3 single point of the particle with dimer basis set
| 50> $new_job
| 51> %base "11-8_DFT_B"
| 52> ! wB97X-D3 def2-TZVP TIGHTSCF CHELPG PMODEL
| 53>
| 54> %scf
| 55> MaxIter 1000
| 56> end
| 57>
| 58> * xyz 0 1
| 59>   C                    : -2.148013            2.129847             1.911966
| 60>   O                    : -0.703100            2.202816             2.039990
| 61>   H                    : -0.327344            2.930984             1.522731
| 62>   H                    : -2.414317            2.238284             0.914172
| 63>   H                    : -2.582117            1.155431             2.198879
| 64>   H                    : -2.594961            2.946416             2.554262
| 65>   C                      -1.021915            2.852459             -2.001228
| 66>   O                      -0.952008            4.277122             -1.661741
| 67>   H                      -1.236880            4.719434             -2.465130
| 68>   H                      -0.167043            2.540624             -2.682369
| 69>   H                      -1.096906            2.264152             -1.113842
| 70>   H                      -1.909074            2.582421             -2.660496
| 71> *
| 72>
| 73>                          ****END OF INPUT****
 Total Charge           Charge          ....    0
 Multiplicity           Mult            ....    1
 Number of Electrons    NEL             ....   36
Dispersion correction           -0.001642112
FINAL SINGLE POINT ENERGY      -231.463318898059
Dispersion correction           -0.000260017
FINAL SINGLE POINT ENERGY      -115.730251097845

CARTESIAN COORDINATES (ANGSTROEM)
---------------------------------
  C     -2.148013    2.129847    1.911966
  O     -0.703100    2.202816    2.039990
  H     -0.327344    2.930984    1.522731
  H     -2.414317    2.238284    0.914172
  H     -2.582117    1.155431    2.198879
  H     -2.594961    2.946416    2.554262
  C     -1.021915    2.852459   -2.001228
  O     -0.952008    4.277122   -1.661741
  H     -1.236880    4.719434   -2.465130
  H     -0.167043    2.540624   -2.682369
  H     -1.096906    2.264152   -1.113842
  H     -1.909074    2.582421   -2.660496

 Multiplicity           Mult            ....    1
 Number of Electrons    NEL             ....   18
 Basis Dimension        Dim             ....  172

ORBITAL ENERGIES
----------------

  NO   OCC          E(Eh)            E(eV)
   0   2.0000     -19.234357      -523.3935
   1   2.0000     -10.324854      -280.9535
   2   2.0000      -1.125139       -30.6166
   3   2.0000      -0.793266       -21.5859
   4   2.0000      -0.603800       -16.4302
   5   2.0000      -0.534105       -14.5337
   6   2.0000      -0.514174       -13.9914
   7   2.0000      -0.446639       -12.1537
   8   2.0000      -0.374402       -10.1880
   9   0.0000       0.091183         2.4812
  10   0.0000       0.117941         3.2093
  11   0.0000       0.148813         4.0494
  12   0.0000       0.170082         4.6282
  13   0.0000       0.190253         5.1771

MULLIKEN ATOMIC CHARGES
-----------------------
   0 C :   -0.001598
   1 O :   -0.000007
   2 H :   -0.000043
   3 H :    0.002034
   4 H :    0.000129
   5 H :   -0.000017
   6 C :   -0.208073
   7 O :   -0.468209
   8 H :    0.313842
   9 H :    0.114531
  10 H :    0.136485
  11 H :    0.110927
Sum of atomic charges:    0.0000000

LOEWDIN ATOMIC CHARGES
----------------------
   0 C :   -0.002308
   1 O :   -0.000240
   2 H :   -0.000699
   3 H :   -0.002355
   4 H :   -0.000012
   5 H :   -0.000015
   6 C :   -0.360364
   7 O :   -0.109394
   8 H :    0.166661
   9 H :    0.103748
  10 H :    0.101476
  11 H :    0.103501

  Mayer bond orders larger than 0.1
B(  6-C ,  7-O ) :   0.9980 B(  6-C ,  9-H ) :   0.9708 B(  6-C , 10-H ) :   0.9715
B(  6-C , 11-H ) :   0.9736 B(  7-O ,  8-H ) :   0.9030

Dispersion correction           -0.000271257
FINAL SINGLE POINT ENERGY      -115.730632588956

DIPOLE MOMENT
-------------
                                X             Y             Z
Electronic contribution:      0.16981       1.78075       0.75002
Nuclear contribution   :     -0.39460      -2.08782      -1.38517
                        -----------------------------------------
Total Dipole Moment    :     -0.22479      -0.30707      -0.63515
                        -----------------------------------------
Magnitude (a.u.)       :      0.74043
Magnitude (Debye)      :      1.88203

Rotational constants in cm-1:     4.167162     0.781159     0.750421
Rotational constants in MHz : 124928.383261 23418.564263 22497.049094

                             ****ORCA TERMINATED NORMALLY****
TOTAL RUN TIME: 0 days 0 hours 1 minutes 9 seconds 739 msec
