                         Program Version 4.1.2  - RELEASE  -
|  1> #Run DFT-D3 single point of the dimer
|  2> ! wB97X-D3 def2-TZVP TIGHTSCF CHELPG PMODEL PAL8
|  3>
|  4> %base "11-100_DFT_AB"
|  5>
|  6> %scf
|  7> MaxIter 1000
|  8> end
|  9>
| 10> * xyz 0 1
| 11>   C                      -3.641882            -6.013494            -3.653541
| 12>   O                      -3.109496            -5.033797            -2.834084
| 13>   H                      -2.177298            -4.956198            -2.865698
| 14>   H                      -3.149717            -6.980031            -3.450855
| 15>   H                      -4.734627            -6.165777            -3.567122
| 16>   H                      -3.537758            -5.813317            -4.687027
| 17>   C                      -3.521671            -3.671496            -7.858580
| 18>   O                      -4.822215            -3.315356            -8.168324
| 19>   H                      -5.477363            -4.041059            -8.013014
| 20>   H                      -3.465493            -4.596778            -7.181754
| 21>   H                      -2.943379            -3.945071            -8.770524
| 22>   H                      -2.993046            -2.870484            -7.387127
| 23> *
| 24>
| 25> #Run DFT-D3 single point of the molecule with dimer basis set
| 26> $new_job
| 27> %base "11-100_DFT_A"
| 28> ! wB97X-D3 def2-TZVP TIGHTSCF CHELPG PMODEL
| 29>
| 30> %scf
| 31> MaxIter 1000
| 32> end
| 33>
| 34> * xyz 0 1
| 35>   C                      -3.641882            -6.013494            -3.653541
| 36>   O                      -3.109496            -5.033797            -2.834084
| 37>   H                      -2.177298            -4.956198            -2.865698
| 38>   H                      -3.149717            -6.980031            -3.450855
| 39>   H                      -4.734627            -6.165777            -3.567122
| 40>   H                      -3.537758            -5.813317            -4.687027
| 41>   C                    : -3.521671            -3.671496            -7.858580
| 42>   O                    : -4.822215            -3.315356            -8.168324
| 43>   H                    : -5.477363            -4.041059            -8.013014
| 44>   H                    : -3.465493            -4.596778            -7.181754
| 45>   H                    : -2.943379            -3.945071            -8.770524
| 46>   H                    : -2.993046            -2.870484            -7.387127
| 47> *
| 48>
| 49> #Run DFT-D3 single point of the particle with dimer basis set
| 50> $new_job
| 51> %base "11-100_DFT_B"
| 52> ! wB97X-D3 def2-TZVP TIGHTSCF CHELPG PMODEL
| 53>
| 54> %scf
| 55> MaxIter 1000
| 56> end
| 57>
| 58> * xyz 0 1
| 59>   C                    : -3.641882            -6.013494            -3.653541
| 60>   O                    : -3.109496            -5.033797            -2.834084
| 61>   H                    : -2.177298            -4.956198            -2.865698
| 62>   H                    : -3.149717            -6.980031            -3.450855
| 63>   H                    : -4.734627            -6.165777            -3.567122
| 64>   H                    : -3.537758            -5.813317            -4.687027
| 65>   C                      -3.521671            -3.671496            -7.858580
| 66>   O                      -4.822215            -3.315356            -8.168324
| 67>   H                      -5.477363            -4.041059            -8.013014
| 68>   H                      -3.465493            -4.596778            -7.181754
| 69>   H                      -2.943379            -3.945071            -8.770524
| 70>   H                      -2.993046            -2.870484            -7.387127
| 71> *
| 72>
| 73>                          ****END OF INPUT****
 Total Charge           Charge          ....    0
 Multiplicity           Mult            ....    1
 Number of Electrons    NEL             ....   36
Dispersion correction           -0.000977063
FINAL SINGLE POINT ENERGY      -231.463734756138
Dispersion correction           -0.000242879
FINAL SINGLE POINT ENERGY      -115.731535931911

CARTESIAN COORDINATES (ANGSTROEM)
---------------------------------
  C     -3.641882   -6.013494   -3.653541
  O     -3.109496   -5.033797   -2.834084
  H     -2.177298   -4.956198   -2.865698
  H     -3.149717   -6.980031   -3.450855
  H     -4.734627   -6.165777   -3.567122
  H     -3.537758   -5.813317   -4.687027
  C     -3.521671   -3.671496   -7.858580
  O     -4.822215   -3.315356   -8.168324
  H     -5.477363   -4.041059   -8.013014
  H     -3.465493   -4.596778   -7.181754
  H     -2.943379   -3.945071   -8.770524
  H     -2.993046   -2.870484   -7.387127

 Multiplicity           Mult            ....    1
 Number of Electrons    NEL             ....   18
 Basis Dimension        Dim             ....  172

ORBITAL ENERGIES
----------------

  NO   OCC          E(Eh)            E(eV)
   0   2.0000     -19.231615      -523.3188
   1   2.0000     -10.315371      -280.6955
   2   2.0000      -1.137532       -30.9538
   3   2.0000      -0.791297       -21.5323
   4   2.0000      -0.612827       -16.6759
   5   2.0000      -0.540675       -14.7125
   6   2.0000      -0.531229       -14.4555
   7   2.0000      -0.423456       -11.5228
   8   2.0000      -0.369041       -10.0421
   9   0.0000       0.081071         2.2061
  10   0.0000       0.112530         3.0621
  11   0.0000       0.151823         4.1313
  12   0.0000       0.161906         4.4057
  13   0.0000       0.185573         5.0497

MULLIKEN ATOMIC CHARGES
-----------------------
   0 C :   -0.000711
   1 O :   -0.000005
   2 H :   -0.000013
   3 H :    0.000055
   4 H :   -0.000025
   5 H :    0.001241
   6 C :   -0.154548
   7 O :   -0.477217
   8 H :    0.325305
   9 H :    0.089830
  10 H :    0.096778
  11 H :    0.119311
Sum of atomic charges:   -0.0000000

LOEWDIN ATOMIC CHARGES
----------------------
   0 C :   -0.000575
   1 O :   -0.000003
   2 H :   -0.000005
   3 H :   -0.000001
   4 H :   -0.000008
   5 H :   -0.002055
   6 C :   -0.414384
   7 O :   -0.070175
   8 H :    0.189409
   9 H :    0.103303
  10 H :    0.096814
  11 H :    0.097681

  Mayer bond orders larger than 0.1
B(  6-C ,  7-O ) :   1.0122 B(  6-C ,  9-H ) :   0.9843 B(  6-C , 10-H ) :   0.9727
B(  6-C , 11-H ) :   0.9738 B(  7-O ,  8-H ) :   0.8871

Dispersion correction           -0.000258750
FINAL SINGLE POINT ENERGY      -115.732006353588

DIPOLE MOMENT
-------------
                                X             Y             Z
Electronic contribution:     -1.71722       0.69629      -0.41472
Nuclear contribution   :      1.77764      -1.29370       0.64523
                        -----------------------------------------
Total Dipole Moment    :      0.06042      -0.59741       0.23051
                        -----------------------------------------
Magnitude (a.u.)       :      0.64318
Magnitude (Debye)      :      1.63484

Rotational constants in cm-1:     4.257116     0.847030     0.812406
Rotational constants in MHz : 127625.113247 25393.321333 24355.316622

                             ****ORCA TERMINATED NORMALLY****
TOTAL RUN TIME: 0 days 0 hours 1 minutes 8 seconds 17 msec
