                         Program Version 4.1.2  - RELEASE  -
|  1> #Run DFT-D3 single point of the dimer
|  2> ! wB97X-D3 def2-TZVP TIGHTSCF CHELPG PMODEL PAL8
|  3>
|  4> %base "22-33_DFT_AB"
|  5>
|  6> %scf
|  7> MaxIter 1000
|  8> end
|  9>
| 10> * xyz 0 1
| 11>   C                      -7.103731            6.653923             -1.669574
| 12>   O                      -6.894566            5.210805             -1.789627
| 13>   H                      -7.334692            4.689197             -1.072243
| 14>   H                      -8.194465            6.918869             -1.815733
| 15>   H                      -6.801057            7.072376             -0.661411
| 16>   H                      -6.560077            7.160748             -2.438667
| 17>   C                      -7.406490            5.114962             2.194658
| 18>   O                      -8.127863            5.716703             3.172104
| 19>   H                      -8.698114            5.083331             3.538264
| 20>   H                      -7.612737            5.667259             1.305622
| 21>   H                      -6.353386            5.182250             2.467790
| 22>   H                      -7.619469            4.045659             1.948745
| 23> *
| 24>
| 25> #Run DFT-D3 single point of the molecule with dimer basis set
| 26> $new_job
| 27> %base "22-33_DFT_A"
| 28> ! wB97X-D3 def2-TZVP TIGHTSCF CHELPG PMODEL
| 29>
| 30> %scf
| 31> MaxIter 1000
| 32> end
| 33>
| 34> * xyz 0 1
| 35>   C                      -7.103731            6.653923             -1.669574
| 36>   O                      -6.894566            5.210805             -1.789627
| 37>   H                      -7.334692            4.689197             -1.072243
| 38>   H                      -8.194465            6.918869             -1.815733
| 39>   H                      -6.801057            7.072376             -0.661411
| 40>   H                      -6.560077            7.160748             -2.438667
| 41>   C                    : -7.406490            5.114962             2.194658
| 42>   O                    : -8.127863            5.716703             3.172104
| 43>   H                    : -8.698114            5.083331             3.538264
| 44>   H                    : -7.612737            5.667259             1.305622
| 45>   H                    : -6.353386            5.182250             2.467790
| 46>   H                    : -7.619469            4.045659             1.948745
| 47> *
| 48>
| 49> #Run DFT-D3 single point of the particle with dimer basis set
| 50> $new_job
| 51> %base "22-33_DFT_B"
| 52> ! wB97X-D3 def2-TZVP TIGHTSCF CHELPG PMODEL
| 53>
| 54> %scf
| 55> MaxIter 1000
| 56> end
| 57>
| 58> * xyz 0 1
| 59>   C                    : -7.103731            6.653923             -1.669574
| 60>   O                    : -6.894566            5.210805             -1.789627
| 61>   H                    : -7.334692            4.689197             -1.072243
| 62>   H                    : -8.194465            6.918869             -1.815733
| 63>   H                    : -6.801057            7.072376             -0.661411
| 64>   H                    : -6.560077            7.160748             -2.438667
| 65>   C                      -7.406490            5.114962             2.194658
| 66>   O                      -8.127863            5.716703             3.172104
| 67>   H                      -8.698114            5.083331             3.538264
| 68>   H                      -7.612737            5.667259             1.305622
| 69>   H                      -6.353386            5.182250             2.467790
| 70>   H                      -7.619469            4.045659             1.948745
| 71> *
| 72>
| 73>                          ****END OF INPUT****
 Total Charge           Charge          ....    0
 Multiplicity           Mult            ....    1
 Number of Electrons    NEL             ....   36
Dispersion correction           -0.001591624
FINAL SINGLE POINT ENERGY      -231.461755363793
Dispersion correction           -0.000295650
FINAL SINGLE POINT ENERGY      -115.731841149120

CARTESIAN COORDINATES (ANGSTROEM)
---------------------------------
  C     -7.103731    6.653923   -1.669574
  O     -6.894566    5.210805   -1.789627
  H     -7.334692    4.689197   -1.072243
  H     -8.194465    6.918869   -1.815733
  H     -6.801057    7.072376   -0.661411
  H     -6.560077    7.160748   -2.438667
  C     -7.406490    5.114962    2.194658
  O     -8.127863    5.716703    3.172104
  H     -8.698114    5.083331    3.538264
  H     -7.612737    5.667259    1.305622
  H     -6.353386    5.182250    2.467790
  H     -7.619469    4.045659    1.948745

 Multiplicity           Mult            ....    1
 Number of Electrons    NEL             ....   18
 Basis Dimension        Dim             ....  172

ORBITAL ENERGIES
----------------

  NO   OCC          E(Eh)            E(eV)
   0   2.0000     -19.225578      -523.1546
   1   2.0000     -10.305431      -280.4250
   2   2.0000      -1.161935       -31.6178
   3   2.0000      -0.797087       -21.6898
   4   2.0000      -0.626066       -17.0361
   5   2.0000      -0.555270       -15.1097
   6   2.0000      -0.527433       -14.3522
   7   2.0000      -0.431935       -11.7536
   8   2.0000      -0.369574       -10.0566
   9   0.0000       0.087937         2.3929
  10   0.0000       0.120149         3.2694
  11   0.0000       0.149450         4.0667
  12   0.0000       0.177534         4.8309
  13   0.0000       0.190414         5.1814

MULLIKEN ATOMIC CHARGES
-----------------------
   0 C :    0.000024
   1 O :    0.000136
   2 H :   -0.002025
   3 H :   -0.000180
   4 H :    0.000743
   5 H :    0.000075
   6 C :   -0.159549
   7 O :   -0.455155
   8 H :    0.311476
   9 H :    0.107499
  10 H :    0.099400
  11 H :    0.097555
Sum of atomic charges:    0.0000000

LOEWDIN ATOMIC CHARGES
----------------------
   0 C :   -0.003928
   1 O :   -0.000285
   2 H :   -0.002852
   3 H :   -0.000134
   4 H :   -0.002563
   5 H :   -0.000036
   6 C :   -0.426055
   7 O :   -0.015990
   8 H :    0.153296
   9 H :    0.099097
  10 H :    0.099610
  11 H :    0.099840

  Mayer bond orders larger than 0.1
B(  6-C ,  7-O ) :   1.0060 B(  6-C ,  9-H ) :   0.9786 B(  6-C , 10-H ) :   0.9755
B(  6-C , 11-H ) :   0.9802 B(  7-O ,  8-H ) :   0.9074

Dispersion correction           -0.000221812
FINAL SINGLE POINT ENERGY      -115.729075242364

DIPOLE MOMENT
-------------
                                X             Y             Z
Electronic contribution:     -0.94570       0.87504       1.32512
Nuclear contribution   :      0.80722      -1.51761      -1.42938
                        -----------------------------------------
Total Dipole Moment    :     -0.13848      -0.64258      -0.10425
                        -----------------------------------------
Magnitude (a.u.)       :      0.66554
Magnitude (Debye)      :      1.69168

Rotational constants in cm-1:     4.379728     0.892459     0.862632
Rotational constants in MHz : 131300.928820 26755.257249 25861.062062

                             ****ORCA TERMINATED NORMALLY****
TOTAL RUN TIME: 0 days 0 hours 0 minutes 58 seconds 351 msec
