                         Program Version 4.1.2  - RELEASE  -
|  1> #Run DFT-D3 single point of the dimer
|  2> ! wB97X-D3 def2-TZVP TIGHTSCF CHELPG PMODEL PAL8
|  3>
|  4> %base "2-124_DFT_AB"
|  5>
|  6> %scf
|  7> MaxIter 1000
|  8> end
|  9>
| 10> * xyz 0 1
| 11>   C                      -10.353476           -3.644243            -1.666090
| 12>   O                      -10.961982           -3.131352            -2.793197
| 13>   H                      -10.428086           -2.428784            -3.211941
| 14>   H                      -9.308761            -3.229230            -1.545156
| 15>   H                      -10.916785           -3.388706            -0.756654
| 16>   H                      -10.260516           -4.742474            -1.658339
| 17>   C                      -6.316329            -5.802914            -5.097869
| 18>   O                      -6.414243            -4.511786            -5.694485
| 19>   H                      -7.301852            -4.215808            -5.520922
| 20>   H                      -7.225144            -6.399396            -5.193592
| 21>   H                      -5.578863            -6.487633            -5.451147
| 22>   H                      -6.465521            -5.734463            -4.001976
| 23> *
| 24>
| 25> #Run DFT-D3 single point of the molecule with dimer basis set
| 26> $new_job
| 27> %base "2-124_DFT_A"
| 28> ! wB97X-D3 def2-TZVP TIGHTSCF CHELPG PMODEL
| 29>
| 30> %scf
| 31> MaxIter 1000
| 32> end
| 33>
| 34> * xyz 0 1
| 35>   C                      -10.353476           -3.644243            -1.666090
| 36>   O                      -10.961982           -3.131352            -2.793197
| 37>   H                      -10.428086           -2.428784            -3.211941
| 38>   H                      -9.308761            -3.229230            -1.545156
| 39>   H                      -10.916785           -3.388706            -0.756654
| 40>   H                      -10.260516           -4.742474            -1.658339
| 41>   C                    : -6.316329            -5.802914            -5.097869
| 42>   O                    : -6.414243            -4.511786            -5.694485
| 43>   H                    : -7.301852            -4.215808            -5.520922
| 44>   H                    : -7.225144            -6.399396            -5.193592
| 45>   H                    : -5.578863            -6.487633            -5.451147
| 46>   H                    : -6.465521            -5.734463            -4.001976
| 47> *
| 48>
| 49> #Run DFT-D3 single point of the particle with dimer basis set
| 50> $new_job
| 51> %base "2-124_DFT_B"
| 52> ! wB97X-D3 def2-TZVP TIGHTSCF CHELPG PMODEL
| 53>
| 54> %scf
| 55> MaxIter 1000
| 56> end
| 57>
| 58> * xyz 0 1
| 59>   C                    : -10.353476           -3.644243            -1.666090
| 60>   O                    : -10.961982           -3.131352            -2.793197
| 61>   H                    : -10.428086           -2.428784            -3.211941
| 62>   H                    : -9.308761            -3.229230            -1.545156
| 63>   H                    : -10.916785           -3.388706            -0.756654
| 64>   H                    : -10.260516           -4.742474            -1.658339
| 65>   C                      -6.316329            -5.802914            -5.097869
| 66>   O                      -6.414243            -4.511786            -5.694485
| 67>   H                      -7.301852            -4.215808            -5.520922
| 68>   H                      -7.225144            -6.399396            -5.193592
| 69>   H                      -5.578863            -6.487633            -5.451147
| 70>   H                      -6.465521            -5.734463            -4.001976
| 71> *
| 72>
| 73>                          ****END OF INPUT****
 Total Charge           Charge          ....    0
 Multiplicity           Mult            ....    1
 Number of Electrons    NEL             ....   36
Dispersion correction           -0.000709597
FINAL SINGLE POINT ENERGY      -231.454874519626
Dispersion correction           -0.000252607
FINAL SINGLE POINT ENERGY      -115.733169026371

CARTESIAN COORDINATES (ANGSTROEM)
---------------------------------
  C    -10.353476   -3.644243   -1.666090
  O    -10.961982   -3.131352   -2.793197
  H    -10.428086   -2.428784   -3.211941
  H     -9.308761   -3.229230   -1.545156
  H    -10.916785   -3.388706   -0.756654
  H    -10.260516   -4.742474   -1.658339
  C     -6.316329   -5.802914   -5.097869
  O     -6.414243   -4.511786   -5.694485
  H     -7.301852   -4.215808   -5.520922
  H     -7.225144   -6.399396   -5.193592
  H     -5.578863   -6.487633   -5.451147
  H     -6.465521   -5.734463   -4.001976

 Multiplicity           Mult            ....    1
 Number of Electrons    NEL             ....   18
 Basis Dimension        Dim             ....  172

ORBITAL ENERGIES
----------------

  NO   OCC          E(Eh)            E(eV)
   0   2.0000     -19.233611      -523.3732
   1   2.0000     -10.313793      -280.6526
   2   2.0000      -1.137705       -30.9585
   3   2.0000      -0.802539       -21.8382
   4   2.0000      -0.619231       -16.8501
   5   2.0000      -0.549141       -14.9429
   6   2.0000      -0.511251       -13.9119
   7   2.0000      -0.443876       -12.0785
   8   2.0000      -0.367565       -10.0020
   9   0.0000       0.075347         2.0503
  10   0.0000       0.115789         3.1508
  11   0.0000       0.143555         3.9063
  12   0.0000       0.164714         4.4821
  13   0.0000       0.186372         5.0714

MULLIKEN ATOMIC CHARGES
-----------------------
   0 C :    0.000007
   1 O :    0.000003
   2 H :   -0.000017
   3 H :   -0.000013
   4 H :   -0.000000
   5 H :   -0.000022
   6 C :   -0.197361
   7 O :   -0.465992
   8 H :    0.316506
   9 H :    0.103843
  10 H :    0.139528
  11 H :    0.103518
Sum of atomic charges:   -0.0000000

LOEWDIN ATOMIC CHARGES
----------------------
   0 C :   -0.000025
   1 O :   -0.000002
   2 H :   -0.000019
   3 H :   -0.000010
   4 H :   -0.000001
   5 H :   -0.000008
   6 C :   -0.391157
   7 O :   -0.078535
   8 H :    0.166956
   9 H :    0.096796
  10 H :    0.104672
  11 H :    0.101332

  Mayer bond orders larger than 0.1
B(  6-C ,  7-O ) :   0.9951 B(  6-C ,  9-H ) :   0.9761 B(  6-C , 10-H ) :   0.9686
B(  6-C , 11-H ) :   0.9763 B(  7-O ,  8-H ) :   0.8998

Dispersion correction           -0.000240279
FINAL SINGLE POINT ENERGY      -115.721423896023

DIPOLE MOMENT
-------------
                                X             Y             Z
Electronic contribution:      0.31434       1.74678      -0.96931
Nuclear contribution   :     -0.88778      -2.10288       1.29698
                        -----------------------------------------
Total Dipole Moment    :     -0.57344      -0.35610       0.32767
                        -----------------------------------------
Magnitude (a.u.)       :      0.75034
Magnitude (Debye)      :      1.90720

Rotational constants in cm-1:     4.507679     0.819289     0.775695
Rotational constants in MHz : 135136.831258 24561.660658 23254.758507

                             ****ORCA TERMINATED NORMALLY****
TOTAL RUN TIME: 0 days 0 hours 6 minutes 22 seconds 583 msec
