                         Program Version 4.1.2  - RELEASE  -
|  1> #Run DFT-D3 single point of the dimer
|  2> ! wB97X-D3 def2-TZVP TIGHTSCF CHELPG PMODEL PAL8
|  3>
|  4> %base "6-212_DFT_AB"
|  5>
|  6> %scf
|  7> MaxIter 1000
|  8> end
|  9>
| 10> * xyz 0 1
| 11>   C                      1.357554             3.752919             0.927399
| 12>   O                      2.636666             3.112207             1.170774
| 13>   H                      3.170213             3.525869             0.504691
| 14>   H                      1.409759             4.871002             1.051048
| 15>   H                      0.903366             3.512577             -0.023999
| 16>   H                      0.608316             3.462401             1.670895
| 17>   C                      4.364700             5.661872             1.276716
| 18>   O                      4.283674             5.137588             0.021780
| 19>   H                      4.220110             5.916101             -0.602200
| 20>   H                      3.959004             4.933454             1.932303
| 21>   H                      5.423931             5.760916             1.506227
| 22>   H                      3.971303             6.688295             1.301329
| 23> *
| 24>
| 25> #Run DFT-D3 single point of the molecule with dimer basis set
| 26> $new_job
| 27> %base "6-212_DFT_A"
| 28> ! wB97X-D3 def2-TZVP TIGHTSCF CHELPG PMODEL
| 29>
| 30> %scf
| 31> MaxIter 1000
| 32> end
| 33>
| 34> * xyz 0 1
| 35>   C                      1.357554             3.752919             0.927399
| 36>   O                      2.636666             3.112207             1.170774
| 37>   H                      3.170213             3.525869             0.504691
| 38>   H                      1.409759             4.871002             1.051048
| 39>   H                      0.903366             3.512577             -0.023999
| 40>   H                      0.608316             3.462401             1.670895
| 41>   C                    : 4.364700             5.661872             1.276716
| 42>   O                    : 4.283674             5.137588             0.021780
| 43>   H                    : 4.220110             5.916101             -0.602200
| 44>   H                    : 3.959004             4.933454             1.932303
| 45>   H                    : 5.423931             5.760916             1.506227
| 46>   H                    : 3.971303             6.688295             1.301329
| 47> *
| 48>
| 49> #Run DFT-D3 single point of the particle with dimer basis set
| 50> $new_job
| 51> %base "6-212_DFT_B"
| 52> ! wB97X-D3 def2-TZVP TIGHTSCF CHELPG PMODEL
| 53>
| 54> %scf
| 55> MaxIter 1000
| 56> end
| 57>
| 58> * xyz 0 1
| 59>   C                    : 1.357554             3.752919             0.927399
| 60>   O                    : 2.636666             3.112207             1.170774
| 61>   H                    : 3.170213             3.525869             0.504691
| 62>   H                    : 1.409759             4.871002             1.051048
| 63>   H                    : 0.903366             3.512577             -0.023999
| 64>   H                    : 0.608316             3.462401             1.670895
| 65>   C                      4.364700             5.661872             1.276716
| 66>   O                      4.283674             5.137588             0.021780
| 67>   H                      4.220110             5.916101             -0.602200
| 68>   H                      3.959004             4.933454             1.932303
| 69>   H                      5.423931             5.760916             1.506227
| 70>   H                      3.971303             6.688295             1.301329
| 71> *
| 72>
| 73>                          ****END OF INPUT****
 Total Charge           Charge          ....    0
 Multiplicity           Mult            ....    1
 Number of Electrons    NEL             ....   36
Dispersion correction           -0.002177497
FINAL SINGLE POINT ENERGY      -231.468853945792
Dispersion correction           -0.000255191
FINAL SINGLE POINT ENERGY      -115.733600081869

CARTESIAN COORDINATES (ANGSTROEM)
---------------------------------
  C      1.357554    3.752919    0.927399
  O      2.636666    3.112207    1.170774
  H      3.170213    3.525869    0.504691
  H      1.409759    4.871002    1.051048
  H      0.903366    3.512577   -0.023999
  H      0.608316    3.462401    1.670895
  C      4.364700    5.661872    1.276716
  O      4.283674    5.137588    0.021780
  H      4.220110    5.916101   -0.602200
  H      3.959004    4.933454    1.932303
  H      5.423931    5.760916    1.506227
  H      3.971303    6.688295    1.301329

 Multiplicity           Mult            ....    1
 Number of Electrons    NEL             ....   18
 Basis Dimension        Dim             ....  172

ORBITAL ENERGIES
----------------

  NO   OCC          E(Eh)            E(eV)
   0   2.0000     -19.229713      -523.2671
   1   2.0000     -10.303626      -280.3759
   2   2.0000      -1.147270       -31.2188
   3   2.0000      -0.788987       -21.4694
   4   2.0000      -0.619778       -16.8650
   5   2.0000      -0.543418       -14.7871
   6   2.0000      -0.536284       -14.5930
   7   2.0000      -0.437268       -11.8987
   8   2.0000      -0.362233        -9.8569
   9   0.0000       0.091718         2.4958
  10   0.0000       0.119391         3.2488
  11   0.0000       0.161329         4.3900
  12   0.0000       0.178922         4.8687
  13   0.0000       0.201549         5.4844

MULLIKEN ATOMIC CHARGES
-----------------------
   0 C :   -0.003163
   1 O :    0.002423
   2 H :   -0.004578
   3 H :   -0.000171
   4 H :   -0.000393
   5 H :   -0.000073
   6 C :   -0.153906
   7 O :   -0.461381
   8 H :    0.314577
   9 H :    0.112440
  10 H :    0.096339
  11 H :    0.097886
Sum of atomic charges:    0.0000000

LOEWDIN ATOMIC CHARGES
----------------------
   0 C :   -0.009030
   1 O :   -0.008413
   2 H :   -0.030483
   3 H :   -0.002141
   4 H :   -0.000207
   5 H :   -0.000081
   6 C :   -0.414366
   7 O :   -0.028425
   8 H :    0.196094
   9 H :    0.105564
  10 H :    0.093868
  11 H :    0.097618

  Mayer bond orders larger than 0.1
B(  6-C ,  7-O ) :   0.9891 B(  6-C ,  9-H ) :   0.9825 B(  6-C , 10-H ) :   0.9795
B(  6-C , 11-H ) :   0.9865 B(  7-O ,  8-H ) :   0.8943

Dispersion correction           -0.000201235
FINAL SINGLE POINT ENERGY      -115.727789480401

DIPOLE MOMENT
-------------
                                X             Y             Z
Electronic contribution:     -0.24693      -0.83430      -1.48789
Nuclear contribution   :      0.24593       1.51233       1.54776
                        -----------------------------------------
Total Dipole Moment    :     -0.00100       0.67803       0.05987
                        -----------------------------------------
Magnitude (a.u.)       :      0.68067
Magnitude (Debye)      :      1.73012

Rotational constants in cm-1:     4.161110     0.909010     0.855878
Rotational constants in MHz : 124746.943424 27251.434820 25658.570312

                             ****ORCA TERMINATED NORMALLY****
TOTAL RUN TIME: 0 days 0 hours 1 minutes 6 seconds 915 msec
