                         Program Version 4.1.2  - RELEASE  -
|  1> #Run DFT-D3 single point of the dimer
|  2> ! wB97X-D3 def2-TZVP TIGHTSCF CHELPG PMODEL PAL8
|  3>
|  4> %base "18-144_DFT_AB"
|  5>
|  6> %scf
|  7> MaxIter 1000
|  8> end
|  9>
| 10> * xyz 0 1
| 11>   C                      2.523888             4.676657             7.090738
| 12>   O                      2.566897             6.070124             6.773619
| 13>   H                      1.949694             6.599378             7.303895
| 14>   H                      3.367195             4.206097             6.586594
| 15>   H                      2.634672             4.644139             8.164876
| 16>   H                      1.636308             4.135860             6.734283
| 17>   C                      1.153015             7.440494             9.687069
| 18>   O                      1.148087             8.072663             8.492310
| 19>   H                      0.596401             8.857626             8.516023
| 20>   H                      0.116682             7.233832             9.945417
| 21>   H                      1.592980             6.470411             9.584700
| 22>   H                      1.713234             7.958562             10.442163
| 23> *
| 24>
| 25> #Run DFT-D3 single point of the molecule with dimer basis set
| 26> $new_job
| 27> %base "18-144_DFT_A"
| 28> ! wB97X-D3 def2-TZVP TIGHTSCF CHELPG PMODEL
| 29>
| 30> %scf
| 31> MaxIter 1000
| 32> end
| 33>
| 34> * xyz 0 1
| 35>   C                      2.523888             4.676657             7.090738
| 36>   O                      2.566897             6.070124             6.773619
| 37>   H                      1.949694             6.599378             7.303895
| 38>   H                      3.367195             4.206097             6.586594
| 39>   H                      2.634672             4.644139             8.164876
| 40>   H                      1.636308             4.135860             6.734283
| 41>   C                    : 1.153015             7.440494             9.687069
| 42>   O                    : 1.148087             8.072663             8.492310
| 43>   H                    : 0.596401             8.857626             8.516023
| 44>   H                    : 0.116682             7.233832             9.945417
| 45>   H                    : 1.592980             6.470411             9.584700
| 46>   H                    : 1.713234             7.958562             10.442163
| 47> *
| 48>
| 49> #Run DFT-D3 single point of the particle with dimer basis set
| 50> $new_job
| 51> %base "18-144_DFT_B"
| 52> ! wB97X-D3 def2-TZVP TIGHTSCF CHELPG PMODEL
| 53>
| 54> %scf
| 55> MaxIter 1000
| 56> end
| 57>
| 58> * xyz 0 1
| 59>   C                    : 2.523888             4.676657             7.090738
| 60>   O                    : 2.566897             6.070124             6.773619
| 61>   H                    : 1.949694             6.599378             7.303895
| 62>   H                    : 3.367195             4.206097             6.586594
| 63>   H                    : 2.634672             4.644139             8.164876
| 64>   H                    : 1.636308             4.135860             6.734283
| 65>   C                      1.153015             7.440494             9.687069
| 66>   O                      1.148087             8.072663             8.492310
| 67>   H                      0.596401             8.857626             8.516023
| 68>   H                      0.116682             7.233832             9.945417
| 69>   H                      1.592980             6.470411             9.584700
| 70>   H                      1.713234             7.958562             10.442163
| 71> *
| 72>
| 73>                          ****END OF INPUT****
 Total Charge           Charge          ....    0
 Multiplicity           Mult            ....    1
 Number of Electrons    NEL             ....   36
Dispersion correction           -0.001836390
FINAL SINGLE POINT ENERGY      -231.472028951565
Dispersion correction           -0.000249218
FINAL SINGLE POINT ENERGY      -115.734061952379

CARTESIAN COORDINATES (ANGSTROEM)
---------------------------------
  C      2.523888    4.676657    7.090738
  O      2.566897    6.070124    6.773619
  H      1.949694    6.599378    7.303895
  H      3.367195    4.206097    6.586594
  H      2.634672    4.644139    8.164876
  H      1.636308    4.135860    6.734283
  C      1.153015    7.440494    9.687069
  O      1.148087    8.072663    8.492310
  H      0.596401    8.857626    8.516023
  H      0.116682    7.233832    9.945417
  H      1.592980    6.470411    9.584700
  H      1.713234    7.958562   10.442163

 Multiplicity           Mult            ....    1
 Number of Electrons    NEL             ....   18
 Basis Dimension        Dim             ....  172

ORBITAL ENERGIES
----------------

  NO   OCC          E(Eh)            E(eV)
   0   2.0000     -19.226293      -523.1740
   1   2.0000     -10.301026      -280.3052
   2   2.0000      -1.154034       -31.4029
   3   2.0000      -0.798047       -21.7160
   4   2.0000      -0.618671       -16.8349
   5   2.0000      -0.559735       -15.2312
   6   2.0000      -0.538397       -14.6505
   7   2.0000      -0.419178       -11.4064
   8   2.0000      -0.371521       -10.1096
   9   0.0000       0.097385         2.6500
  10   0.0000       0.120809         3.2874
  11   0.0000       0.161719         4.4006
  12   0.0000       0.194618         5.2958
  13   0.0000       0.202450         5.5090

MULLIKEN ATOMIC CHARGES
-----------------------
   0 C :   -0.000568
   1 O :    0.000543
   2 H :   -0.007786
   3 H :    0.000004
   4 H :    0.000519
   5 H :   -0.000063
   6 C :   -0.133794
   7 O :   -0.463722
   8 H :    0.313090
   9 H :    0.087983
  10 H :    0.112235
  11 H :    0.091559
Sum of atomic charges:    0.0000000

LOEWDIN ATOMIC CHARGES
----------------------
   0 C :   -0.002363
   1 O :   -0.003104
   2 H :   -0.028658
   3 H :   -0.000011
   4 H :   -0.002413
   5 H :   -0.000022
   6 C :   -0.419201
   7 O :   -0.007982
   8 H :    0.172119
   9 H :    0.094827
  10 H :    0.107546
  11 H :    0.089263

  Mayer bond orders larger than 0.1
B(  6-C ,  7-O ) :   1.0006 B(  6-C ,  9-H ) :   0.9898 B(  6-C , 10-H ) :   0.9767
B(  6-C , 11-H ) :   0.9736 B(  7-O ,  8-H ) :   0.8936

Dispersion correction           -0.000209557
FINAL SINGLE POINT ENERGY      -115.732109248056

DIPOLE MOMENT
-------------
                                X             Y             Z
Electronic contribution:      0.12610       0.81208      -1.56623
Nuclear contribution   :     -0.47666      -0.55819       2.01678
                        -----------------------------------------
Total Dipole Moment    :     -0.35056       0.25389       0.45054
                        -----------------------------------------
Magnitude (a.u.)       :      0.62477
Magnitude (Debye)      :      1.58805

Rotational constants in cm-1:     4.432596     0.891817     0.870640
Rotational constants in MHz : 132885.890601 26736.009646 26101.128449

                             ****ORCA TERMINATED NORMALLY****
TOTAL RUN TIME: 0 days 0 hours 1 minutes 1 seconds 714 msec
