                         Program Version 4.1.2  - RELEASE  -
|  1> #Run DFT-D3 single point of the dimer
|  2> ! wB97X-D3 def2-TZVP TIGHTSCF CHELPG PMODEL PAL8
|  3>
|  4> %base "9-63_DFT_AB"
|  5>
|  6> %scf
|  7> MaxIter 1000
|  8> end
|  9>
| 10> * xyz 0 1
| 11>   C                      8.125646             0.140868             0.205538
| 12>   O                      9.020085             0.985751             0.913121
| 13>   H                      8.829592             1.132982             1.835882
| 14>   H                      7.075105             0.521568             0.141395
| 15>   H                      8.639908             -0.057721            -0.755773
| 16>   H                      8.148752             -0.882839            0.640323
| 17>   C                      4.706203             3.239788             0.780180
| 18>   O                      4.902455             3.772127             -0.475501
| 19>   H                      5.840434             3.599339             -0.761379
| 20>   H                      5.637058             3.269896             1.351008
| 21>   H                      3.858075             3.700776             1.224186
| 22>   H                      4.302059             2.223933             0.724914
| 23> *
| 24>
| 25> #Run DFT-D3 single point of the molecule with dimer basis set
| 26> $new_job
| 27> %base "9-63_DFT_A"
| 28> ! wB97X-D3 def2-TZVP TIGHTSCF CHELPG PMODEL
| 29>
| 30> %scf
| 31> MaxIter 1000
| 32> end
| 33>
| 34> * xyz 0 1
| 35>   C                      8.125646             0.140868             0.205538
| 36>   O                      9.020085             0.985751             0.913121
| 37>   H                      8.829592             1.132982             1.835882
| 38>   H                      7.075105             0.521568             0.141395
| 39>   H                      8.639908             -0.057721            -0.755773
| 40>   H                      8.148752             -0.882839            0.640323
| 41>   C                    : 4.706203             3.239788             0.780180
| 42>   O                    : 4.902455             3.772127             -0.475501
| 43>   H                    : 5.840434             3.599339             -0.761379
| 44>   H                    : 5.637058             3.269896             1.351008
| 45>   H                    : 3.858075             3.700776             1.224186
| 46>   H                    : 4.302059             2.223933             0.724914
| 47> *
| 48>
| 49> #Run DFT-D3 single point of the particle with dimer basis set
| 50> $new_job
| 51> %base "9-63_DFT_B"
| 52> ! wB97X-D3 def2-TZVP TIGHTSCF CHELPG PMODEL
| 53>
| 54> %scf
| 55> MaxIter 1000
| 56> end
| 57>
| 58> * xyz 0 1
| 59>   C                    : 8.125646             0.140868             0.205538
| 60>   O                    : 9.020085             0.985751             0.913121
| 61>   H                    : 8.829592             1.132982             1.835882
| 62>   H                    : 7.075105             0.521568             0.141395
| 63>   H                    : 8.639908             -0.057721            -0.755773
| 64>   H                    : 8.148752             -0.882839            0.640323
| 65>   C                      4.706203             3.239788             0.780180
| 66>   O                      4.902455             3.772127             -0.475501
| 67>   H                      5.840434             3.599339             -0.761379
| 68>   H                      5.637058             3.269896             1.351008
| 69>   H                      3.858075             3.700776             1.224186
| 70>   H                      4.302059             2.223933             0.724914
| 71> *
| 72>
| 73>                          ****END OF INPUT****
 Total Charge           Charge          ....    0
 Multiplicity           Mult            ....    1
 Number of Electrons    NEL             ....   36
Dispersion correction           -0.001159233
FINAL SINGLE POINT ENERGY      -231.462495181906
Dispersion correction           -0.000272531
FINAL SINGLE POINT ENERGY      -115.731788157790

CARTESIAN COORDINATES (ANGSTROEM)
---------------------------------
  C      8.125646    0.140868    0.205538
  O      9.020085    0.985751    0.913121
  H      8.829592    1.132982    1.835882
  H      7.075105    0.521568    0.141395
  H      8.639908   -0.057721   -0.755773
  H      8.148752   -0.882839    0.640323
  C      4.706203    3.239788    0.780180
  O      4.902455    3.772127   -0.475501
  H      5.840434    3.599339   -0.761379
  H      5.637058    3.269896    1.351008
  H      3.858075    3.700776    1.224186
  H      4.302059    2.223933    0.724914

 Multiplicity           Mult            ....    1
 Number of Electrons    NEL             ....   18
 Basis Dimension        Dim             ....  172

ORBITAL ENERGIES
----------------

  NO   OCC          E(Eh)            E(eV)
   0   2.0000     -19.230407      -523.2860
   1   2.0000     -10.305081      -280.4155
   2   2.0000      -1.140064       -31.0227
   3   2.0000      -0.793973       -21.6051
   4   2.0000      -0.612928       -16.6786
   5   2.0000      -0.551740       -15.0136
   6   2.0000      -0.528385       -14.3781
   7   2.0000      -0.432194       -11.7606
   8   2.0000      -0.364356        -9.9146
   9   0.0000       0.073625         2.0034
  10   0.0000       0.116375         3.1667
  11   0.0000       0.149017         4.0550
  12   0.0000       0.158267         4.3067
  13   0.0000       0.196104         5.3363

MULLIKEN ATOMIC CHARGES
-----------------------
   0 C :   -0.000541
   1 O :    0.000001
   2 H :   -0.000073
   3 H :    0.000818
   4 H :    0.000015
   5 H :    0.000042
   6 C :   -0.158421
   7 O :   -0.472037
   8 H :    0.319115
   9 H :    0.102707
  10 H :    0.117866
  11 H :    0.090510
Sum of atomic charges:    0.0000000

LOEWDIN ATOMIC CHARGES
----------------------
   0 C :   -0.000303
   1 O :   -0.000016
   2 H :   -0.000066
   3 H :   -0.000416
   4 H :   -0.000002
   5 H :   -0.000005
   6 C :   -0.414951
   7 O :   -0.067860
   8 H :    0.191921
   9 H :    0.096763
  10 H :    0.101313
  11 H :    0.093623

  Mayer bond orders larger than 0.1
B(  6-C ,  7-O ) :   1.0122 B(  6-C ,  9-H ) :   0.9854 B(  6-C , 10-H ) :   0.9765
B(  6-C , 11-H ) :   0.9758 B(  7-O ,  8-H ) :   0.8925

Dispersion correction           -0.000227306
FINAL SINGLE POINT ENERGY      -115.729589154601

DIPOLE MOMENT
-------------
                                X             Y             Z
Electronic contribution:      0.20236       0.82884      -1.57028
Nuclear contribution   :      0.29995      -1.12896       1.86653
                        -----------------------------------------
Total Dipole Moment    :      0.50231      -0.30012       0.29626
                        -----------------------------------------
Magnitude (a.u.)       :      0.65586
Magnitude (Debye)      :      1.66707

Rotational constants in cm-1:     4.303577     0.876939     0.828811
Rotational constants in MHz : 129017.978809 26289.969017 24847.130555

                             ****ORCA TERMINATED NORMALLY****
TOTAL RUN TIME: 0 days 0 hours 0 minutes 41 seconds 485 msec
