                         Program Version 4.1.2  - RELEASE  -
|  1> #Run DFT-D3 single point of the dimer
|  2> ! wB97X-D3 def2-TZVP TIGHTSCF CHELPG PMODEL PAL8
|  3>
|  4> %base "20-75_DFT_AB"
|  5>
|  6> %scf
|  7> MaxIter 1000
|  8> end
|  9>
| 10> * xyz 0 1
| 11>   C                      7.632217             9.699304             -7.585289
| 12>   O                      8.220885             8.717487             -8.487322
| 13>   H                      8.292732             7.918457             -7.923862
| 14>   H                      7.388094             10.683171            -8.048767
| 15>   H                      6.886025             9.245156             -6.974468
| 16>   H                      8.453979             9.988415             -6.909452
| 17>   C                      7.299081             6.211905             -6.216237
| 18>   O                      7.809995             5.944913             -7.503371
| 19>   H                      8.447531             5.220115             -7.369496
| 20>   H                      8.033073             6.723322             -5.566266
| 21>   H                      6.499122             6.867116             -6.233632
| 22>   H                      7.012004             5.264748             -5.650469
| 23> *
| 24>
| 25> #Run DFT-D3 single point of the molecule with dimer basis set
| 26> $new_job
| 27> %base "20-75_DFT_A"
| 28> ! wB97X-D3 def2-TZVP TIGHTSCF CHELPG PMODEL
| 29>
| 30> %scf
| 31> MaxIter 1000
| 32> end
| 33>
| 34> * xyz 0 1
| 35>   C                      7.632217             9.699304             -7.585289
| 36>   O                      8.220885             8.717487             -8.487322
| 37>   H                      8.292732             7.918457             -7.923862
| 38>   H                      7.388094             10.683171            -8.048767
| 39>   H                      6.886025             9.245156             -6.974468
| 40>   H                      8.453979             9.988415             -6.909452
| 41>   C                    : 7.299081             6.211905             -6.216237
| 42>   O                    : 7.809995             5.944913             -7.503371
| 43>   H                    : 8.447531             5.220115             -7.369496
| 44>   H                    : 8.033073             6.723322             -5.566266
| 45>   H                    : 6.499122             6.867116             -6.233632
| 46>   H                    : 7.012004             5.264748             -5.650469
| 47> *
| 48>
| 49> #Run DFT-D3 single point of the particle with dimer basis set
| 50> $new_job
| 51> %base "20-75_DFT_B"
| 52> ! wB97X-D3 def2-TZVP TIGHTSCF CHELPG PMODEL
| 53>
| 54> %scf
| 55> MaxIter 1000
| 56> end
| 57>
| 58> * xyz 0 1
| 59>   C                    : 7.632217             9.699304             -7.585289
| 60>   O                    : 8.220885             8.717487             -8.487322
| 61>   H                    : 8.292732             7.918457             -7.923862
| 62>   H                    : 7.388094             10.683171            -8.048767
| 63>   H                    : 6.886025             9.245156             -6.974468
| 64>   H                    : 8.453979             9.988415             -6.909452
| 65>   C                      7.299081             6.211905             -6.216237
| 66>   O                      7.809995             5.944913             -7.503371
| 67>   H                      8.447531             5.220115             -7.369496
| 68>   H                      8.033073             6.723322             -5.566266
| 69>   H                      6.499122             6.867116             -6.233632
| 70>   H                      7.012004             5.264748             -5.650469
| 71> *
| 72>
| 73>                          ****END OF INPUT****
 Total Charge           Charge          ....    0
 Multiplicity           Mult            ....    1
 Number of Electrons    NEL             ....   36
Dispersion correction           -0.002087750
FINAL SINGLE POINT ENERGY      -231.465272005932
Dispersion correction           -0.000233072
FINAL SINGLE POINT ENERGY      -115.728203508870

CARTESIAN COORDINATES (ANGSTROEM)
---------------------------------
  C      7.632217    9.699304   -7.585289
  O      8.220885    8.717487   -8.487322
  H      8.292732    7.918457   -7.923862
  H      7.388094   10.683171   -8.048767
  H      6.886025    9.245156   -6.974468
  H      8.453979    9.988415   -6.909452
  C      7.299081    6.211905   -6.216237
  O      7.809995    5.944913   -7.503371
  H      8.447531    5.220115   -7.369496
  H      8.033073    6.723322   -5.566266
  H      6.499122    6.867116   -6.233632
  H      7.012004    5.264748   -5.650469

 Multiplicity           Mult            ....    1
 Number of Electrons    NEL             ....   18
 Basis Dimension        Dim             ....  172

ORBITAL ENERGIES
----------------

  NO   OCC          E(Eh)            E(eV)
   0   2.0000     -19.235767      -523.4318
   1   2.0000     -10.312684      -280.6224
   2   2.0000      -1.138408       -30.9776
   3   2.0000      -0.796356       -21.6700
   4   2.0000      -0.609940       -16.5973
   5   2.0000      -0.538449       -14.6519
   6   2.0000      -0.532245       -14.4831
   7   2.0000      -0.440809       -11.9950
   8   2.0000      -0.372251       -10.1295
   9   0.0000       0.093303         2.5389
  10   0.0000       0.121089         3.2950
  11   0.0000       0.153073         4.1653
  12   0.0000       0.186191         5.0665
  13   0.0000       0.191618         5.2142

MULLIKEN ATOMIC CHARGES
-----------------------
   0 C :    0.002448
   1 O :   -0.000487
   2 H :   -0.008311
   3 H :    0.000072
   4 H :   -0.000671
   5 H :   -0.000389
   6 C :   -0.180873
   7 O :   -0.462491
   8 H :    0.317400
   9 H :    0.102370
  10 H :    0.125425
  11 H :    0.105506
Sum of atomic charges:   -0.0000000

LOEWDIN ATOMIC CHARGES
----------------------
   0 C :   -0.002349
   1 O :   -0.004199
   2 H :   -0.030524
   3 H :   -0.000006
   4 H :   -0.002286
   5 H :   -0.000099
   6 C :   -0.388030
   7 O :   -0.049877
   8 H :    0.181347
   9 H :    0.097477
  10 H :    0.093862
  11 H :    0.104683

  Mayer bond orders larger than 0.1
B(  6-C ,  7-O ) :   0.9912 B(  6-C ,  9-H ) :   0.9791 B(  6-C , 10-H ) :   0.9771
B(  6-C , 11-H ) :   0.9703 B(  7-O ,  8-H ) :   0.8970

Dispersion correction           -0.000239997
FINAL SINGLE POINT ENERGY      -115.732396844296

DIPOLE MOMENT
-------------
                                X             Y             Z
Electronic contribution:      0.48398      -0.19760      -1.86686
Nuclear contribution   :     -0.30160      -0.13473       2.43922
                        -----------------------------------------
Total Dipole Moment    :      0.18239      -0.33233       0.57237
                        -----------------------------------------
Magnitude (a.u.)       :      0.68652
Magnitude (Debye)      :      1.74500

Rotational constants in cm-1:     4.310328     0.832602     0.799761
Rotational constants in MHz : 129220.378646 24960.782805 23976.246322

                             ****ORCA TERMINATED NORMALLY****
TOTAL RUN TIME: 0 days 0 hours 1 minutes 1 seconds 675 msec
