                         Program Version 4.1.2  - RELEASE  -
|  1> #Run DFT-D3 single point of the dimer
|  2> ! wB97X-D3 def2-TZVP TIGHTSCF CHELPG PMODEL PAL8
|  3>
|  4> %base "20-172_DFT_AB"
|  5>
|  6> %scf
|  7> MaxIter 1000
|  8> end
|  9>
| 10> * xyz 0 1
| 11>   C                      2.302825             5.372533             -7.243400
| 12>   O                      3.642213             4.939602             -6.990858
| 13>   H                      4.230001             5.532004             -7.423894
| 14>   H                      1.829396             4.900507             -8.072251
| 15>   H                      1.624187             5.072687             -6.452229
| 16>   H                      2.318800             6.441176             -7.319937
| 17>   C                      3.870062             9.588237             -6.431992
| 18>   O                      4.333502             8.226179             -6.452210
| 19>   H                      4.139159             7.860522             -7.309450
| 20>   H                      4.710507             10.342658            -6.567665
| 21>   H                      3.127605             9.907514             -7.176449
| 22>   H                      3.433877             9.691790             -5.417177
| 23> *
| 24>
| 25> #Run DFT-D3 single point of the molecule with dimer basis set
| 26> $new_job
| 27> %base "20-172_DFT_A"
| 28> ! wB97X-D3 def2-TZVP TIGHTSCF CHELPG PMODEL
| 29>
| 30> %scf
| 31> MaxIter 1000
| 32> end
| 33>
| 34> * xyz 0 1
| 35>   C                      2.302825             5.372533             -7.243400
| 36>   O                      3.642213             4.939602             -6.990858
| 37>   H                      4.230001             5.532004             -7.423894
| 38>   H                      1.829396             4.900507             -8.072251
| 39>   H                      1.624187             5.072687             -6.452229
| 40>   H                      2.318800             6.441176             -7.319937
| 41>   C                    : 3.870062             9.588237             -6.431992
| 42>   O                    : 4.333502             8.226179             -6.452210
| 43>   H                    : 4.139159             7.860522             -7.309450
| 44>   H                    : 4.710507             10.342658            -6.567665
| 45>   H                    : 3.127605             9.907514             -7.176449
| 46>   H                    : 3.433877             9.691790             -5.417177
| 47> *
| 48>
| 49> #Run DFT-D3 single point of the particle with dimer basis set
| 50> $new_job
| 51> %base "20-172_DFT_B"
| 52> ! wB97X-D3 def2-TZVP TIGHTSCF CHELPG PMODEL
| 53>
| 54> %scf
| 55> MaxIter 1000
| 56> end
| 57>
| 58> * xyz 0 1
| 59>   C                    : 2.302825             5.372533             -7.243400
| 60>   O                    : 3.642213             4.939602             -6.990858
| 61>   H                    : 4.230001             5.532004             -7.423894
| 62>   H                    : 1.829396             4.900507             -8.072251
| 63>   H                    : 1.624187             5.072687             -6.452229
| 64>   H                    : 2.318800             6.441176             -7.319937
| 65>   C                      3.870062             9.588237             -6.431992
| 66>   O                      4.333502             8.226179             -6.452210
| 67>   H                      4.139159             7.860522             -7.309450
| 68>   H                      4.710507             10.342658            -6.567665
| 69>   H                      3.127605             9.907514             -7.176449
| 70>   H                      3.433877             9.691790             -5.417177
| 71> *
| 72>
| 73>                          ****END OF INPUT****
 Total Charge           Charge          ....    0
 Multiplicity           Mult            ....    1
 Number of Electrons    NEL             ....   36
Dispersion correction           -0.001755736
FINAL SINGLE POINT ENERGY      -231.463027767176
Dispersion correction           -0.000242844
FINAL SINGLE POINT ENERGY      -115.732344195678

CARTESIAN COORDINATES (ANGSTROEM)
---------------------------------
  C      2.302825    5.372533   -7.243400
  O      3.642213    4.939602   -6.990858
  H      4.230001    5.532004   -7.423894
  H      1.829396    4.900507   -8.072251
  H      1.624187    5.072687   -6.452229
  H      2.318800    6.441176   -7.319937
  C      3.870062    9.588237   -6.431992
  O      4.333502    8.226179   -6.452210
  H      4.139159    7.860522   -7.309450
  H      4.710507   10.342658   -6.567665
  H      3.127605    9.907514   -7.176449
  H      3.433877    9.691790   -5.417177

 Multiplicity           Mult            ....    1
 Number of Electrons    NEL             ....   18
 Basis Dimension        Dim             ....  172

ORBITAL ENERGIES
----------------

  NO   OCC          E(Eh)            E(eV)
   0   2.0000     -19.233786      -523.3779
   1   2.0000     -10.322163      -280.8803
   2   2.0000      -1.132720       -30.8229
   3   2.0000      -0.793545       -21.5935
   4   2.0000      -0.613772       -16.7016
   5   2.0000      -0.531611       -14.4659
   6   2.0000      -0.515362       -14.0237
   7   2.0000      -0.442306       -12.0358
   8   2.0000      -0.374794       -10.1987
   9   0.0000       0.084524         2.3000
  10   0.0000       0.129465         3.5229
  11   0.0000       0.146340         3.9821
  12   0.0000       0.179511         4.8848
  13   0.0000       0.185570         5.0496

MULLIKEN ATOMIC CHARGES
-----------------------
   0 C :    0.006218
   1 O :    0.000130
   2 H :   -0.001248
   3 H :   -0.000556
   4 H :   -0.000539
   5 H :   -0.015246
   6 C :   -0.185590
   7 O :   -0.464293
   8 H :    0.315632
   9 H :    0.105854
  10 H :    0.115933
  11 H :    0.123706
Sum of atomic charges:   -0.0000000

LOEWDIN ATOMIC CHARGES
----------------------
   0 C :   -0.005353
   1 O :   -0.000887
   2 H :   -0.003161
   3 H :   -0.000087
   4 H :   -0.000087
   5 H :   -0.006917
   6 C :   -0.379708
   7 O :   -0.078012
   8 H :    0.162737
   9 H :    0.103702
  10 H :    0.096872
  11 H :    0.110901

  Mayer bond orders larger than 0.1
B(  6-C ,  7-O ) :   0.9980 B(  6-C ,  9-H ) :   0.9700 B(  6-C , 10-H ) :   0.9691
B(  6-C , 11-H ) :   0.9800 B(  7-O ,  8-H ) :   0.8999

Dispersion correction           -0.000281105
FINAL SINGLE POINT ENERGY      -115.732621464508

DIPOLE MOMENT
-------------
                                X             Y             Z
Electronic contribution:      0.59527      -1.77391       0.02262
Nuclear contribution   :     -0.92159       2.09092      -0.57108
                        -----------------------------------------
Total Dipole Moment    :     -0.32632       0.31700      -0.54846
                        -----------------------------------------
Magnitude (a.u.)       :      0.71259
Magnitude (Debye)      :      1.81126

Rotational constants in cm-1:     4.232891     0.799041     0.773290
Rotational constants in MHz : 126898.870653 23954.634385 23182.645896

                             ****ORCA TERMINATED NORMALLY****
TOTAL RUN TIME: 0 days 0 hours 1 minutes 9 seconds 586 msec
