                         Program Version 4.1.2  - RELEASE  -
|  1> #Run DFT-D3 single point of the dimer
|  2> ! wB97X-D3 def2-TZVP TIGHTSCF CHELPG PMODEL PAL8
|  3>
|  4> %base "22-77_DFT_AB"
|  5>
|  6> %scf
|  7> MaxIter 1000
|  8> end
|  9>
| 10> * xyz 0 1
| 11>   C                      -3.152113            -1.685180            5.511687
| 12>   O                      -3.578452            -2.644021            4.578806
| 13>   H                      -2.831220            -3.224825            4.420491
| 14>   H                      -2.231712            -1.127083            5.128433
| 15>   H                      -3.887088            -1.022022            5.889255
| 16>   H                      -2.718246            -2.180419            6.352590
| 17>   C                      -5.692550            1.901608             3.566777
| 18>   O                      -7.040810            1.705457             3.262053
| 19>   H                      -7.466480            2.089699             4.000003
| 20>   H                      -5.360571            1.400540             4.493794
| 21>   H                      -5.074684            1.437243             2.750245
| 22>   H                      -5.512614            2.980023             3.658668
| 23> *
| 24>
| 25> #Run DFT-D3 single point of the molecule with dimer basis set
| 26> $new_job
| 27> %base "22-77_DFT_A"
| 28> ! wB97X-D3 def2-TZVP TIGHTSCF CHELPG PMODEL
| 29>
| 30> %scf
| 31> MaxIter 1000
| 32> end
| 33>
| 34> * xyz 0 1
| 35>   C                      -3.152113            -1.685180            5.511687
| 36>   O                      -3.578452            -2.644021            4.578806
| 37>   H                      -2.831220            -3.224825            4.420491
| 38>   H                      -2.231712            -1.127083            5.128433
| 39>   H                      -3.887088            -1.022022            5.889255
| 40>   H                      -2.718246            -2.180419            6.352590
| 41>   C                    : -5.692550            1.901608             3.566777
| 42>   O                    : -7.040810            1.705457             3.262053
| 43>   H                    : -7.466480            2.089699             4.000003
| 44>   H                    : -5.360571            1.400540             4.493794
| 45>   H                    : -5.074684            1.437243             2.750245
| 46>   H                    : -5.512614            2.980023             3.658668
| 47> *
| 48>
| 49> #Run DFT-D3 single point of the particle with dimer basis set
| 50> $new_job
| 51> %base "22-77_DFT_B"
| 52> ! wB97X-D3 def2-TZVP TIGHTSCF CHELPG PMODEL
| 53>
| 54> %scf
| 55> MaxIter 1000
| 56> end
| 57>
| 58> * xyz 0 1
| 59>   C                    : -3.152113            -1.685180            5.511687
| 60>   O                    : -3.578452            -2.644021            4.578806
| 61>   H                    : -2.831220            -3.224825            4.420491
| 62>   H                    : -2.231712            -1.127083            5.128433
| 63>   H                    : -3.887088            -1.022022            5.889255
| 64>   H                    : -2.718246            -2.180419            6.352590
| 65>   C                      -5.692550            1.901608             3.566777
| 66>   O                      -7.040810            1.705457             3.262053
| 67>   H                      -7.466480            2.089699             4.000003
| 68>   H                      -5.360571            1.400540             4.493794
| 69>   H                      -5.074684            1.437243             2.750245
| 70>   H                      -5.512614            2.980023             3.658668
| 71> *
| 72>
| 73>                          ****END OF INPUT****
 Total Charge           Charge          ....    0
 Multiplicity           Mult            ....    1
 Number of Electrons    NEL             ....   36
Dispersion correction           -0.000847459
FINAL SINGLE POINT ENERGY      -231.463597226795
Dispersion correction           -0.000223718
FINAL SINGLE POINT ENERGY      -115.729826148498

CARTESIAN COORDINATES (ANGSTROEM)
---------------------------------
  C     -3.152113   -1.685180    5.511687
  O     -3.578452   -2.644021    4.578806
  H     -2.831220   -3.224825    4.420491
  H     -2.231712   -1.127083    5.128433
  H     -3.887088   -1.022022    5.889255
  H     -2.718246   -2.180419    6.352590
  C     -5.692550    1.901608    3.566777
  O     -7.040810    1.705457    3.262053
  H     -7.466480    2.089699    4.000003
  H     -5.360571    1.400540    4.493794
  H     -5.074684    1.437243    2.750245
  H     -5.512614    2.980023    3.658668

 Multiplicity           Mult            ....    1
 Number of Electrons    NEL             ....   18
 Basis Dimension        Dim             ....  172

ORBITAL ENERGIES
----------------

  NO   OCC          E(Eh)            E(eV)
   0   2.0000     -19.229425      -523.2592
   1   2.0000     -10.316167      -280.7172
   2   2.0000      -1.151961       -31.3465
   3   2.0000      -0.790074       -21.4990
   4   2.0000      -0.616375       -16.7724
   5   2.0000      -0.548472       -14.9247
   6   2.0000      -0.523400       -14.2424
   7   2.0000      -0.438313       -11.9271
   8   2.0000      -0.373962       -10.1760
   9   0.0000       0.083729         2.2784
  10   0.0000       0.117335         3.1928
  11   0.0000       0.149168         4.0591
  12   0.0000       0.168907         4.5962
  13   0.0000       0.188400         5.1266

MULLIKEN ATOMIC CHARGES
-----------------------
   0 C :   -0.000148
   1 O :   -0.000011
   2 H :   -0.000002
   3 H :   -0.000019
   4 H :    0.000046
   5 H :   -0.000003
   6 C :   -0.172779
   7 O :   -0.453679
   8 H :    0.309397
   9 H :    0.098180
  10 H :    0.116402
  11 H :    0.102619
Sum of atomic charges:   -0.0000000

LOEWDIN ATOMIC CHARGES
----------------------
   0 C :   -0.000510
   1 O :   -0.000004
   2 H :   -0.000001
   3 H :   -0.000023
   4 H :   -0.000729
   5 H :   -0.000003
   6 C :   -0.406162
   7 O :   -0.051669
   8 H :    0.156161
   9 H :    0.093465
  10 H :    0.115036
  11 H :    0.094439

  Mayer bond orders larger than 0.1
B(  6-C ,  7-O ) :   0.9988 B(  6-C ,  9-H ) :   0.9702 B(  6-C , 10-H ) :   0.9730
B(  6-C , 11-H ) :   0.9807 B(  7-O ,  8-H ) :   0.9078

Dispersion correction           -0.000215729
FINAL SINGLE POINT ENERGY      -115.733684380071

DIPOLE MOMENT
-------------
                                X             Y             Z
Electronic contribution:     -1.75431      -0.30446      -0.51518
Nuclear contribution   :      1.98837       0.61287       1.08970
                        -----------------------------------------
Total Dipole Moment    :      0.23406       0.30841       0.57453
                        -----------------------------------------
Magnitude (a.u.)       :      0.69281
Magnitude (Debye)      :      1.76098

Rotational constants in cm-1:     4.174427     0.857946     0.823432
Rotational constants in MHz : 125146.187135 25720.573944 24685.862211

                             ****ORCA TERMINATED NORMALLY****
TOTAL RUN TIME: 0 days 0 hours 0 minutes 51 seconds 664 msec
