                         Program Version 4.1.2  - RELEASE  -
|  1> #Run DFT-D3 single point of the dimer
|  2> ! wB97X-D3 def2-TZVP TIGHTSCF CHELPG PMODEL PAL8
|  3>
|  4> %base "21-45_DFT_AB"
|  5>
|  6> %scf
|  7> MaxIter 1000
|  8> end
|  9>
| 10> * xyz 0 1
| 11>   C                      -4.571858            -8.509217            7.080362
| 12>   O                      -3.583468            -7.449682            7.394431
| 13>   H                      -3.572475            -6.902586            6.640899
| 14>   H                      -4.180799            -9.176255            6.298429
| 15>   H                      -4.673121            -9.129860            7.950470
| 16>   H                      -5.476760            -8.065264            6.898514
| 17>   C                      -2.783148            -4.777537            2.431724
| 18>   O                      -1.829021            -5.293584            3.392940
| 19>   H                      -1.867300            -4.710863            4.157976
| 20>   H                      -2.752814            -5.410339            1.611272
| 21>   H                      -3.882283            -4.787825            2.730736
| 22>   H                      -2.585822            -3.705635            2.105126
| 23> *
| 24>
| 25> #Run DFT-D3 single point of the molecule with dimer basis set
| 26> $new_job
| 27> %base "21-45_DFT_A"
| 28> ! wB97X-D3 def2-TZVP TIGHTSCF CHELPG PMODEL
| 29>
| 30> %scf
| 31> MaxIter 1000
| 32> end
| 33>
| 34> * xyz 0 1
| 35>   C                      -4.571858            -8.509217            7.080362
| 36>   O                      -3.583468            -7.449682            7.394431
| 37>   H                      -3.572475            -6.902586            6.640899
| 38>   H                      -4.180799            -9.176255            6.298429
| 39>   H                      -4.673121            -9.129860            7.950470
| 40>   H                      -5.476760            -8.065264            6.898514
| 41>   C                    : -2.783148            -4.777537            2.431724
| 42>   O                    : -1.829021            -5.293584            3.392940
| 43>   H                    : -1.867300            -4.710863            4.157976
| 44>   H                    : -2.752814            -5.410339            1.611272
| 45>   H                    : -3.882283            -4.787825            2.730736
| 46>   H                    : -2.585822            -3.705635            2.105126
| 47> *
| 48>
| 49> #Run DFT-D3 single point of the particle with dimer basis set
| 50> $new_job
| 51> %base "21-45_DFT_B"
| 52> ! wB97X-D3 def2-TZVP TIGHTSCF CHELPG PMODEL
| 53>
| 54> %scf
| 55> MaxIter 1000
| 56> end
| 57>
| 58> * xyz 0 1
| 59>   C                    : -4.571858            -8.509217            7.080362
| 60>   O                    : -3.583468            -7.449682            7.394431
| 61>   H                    : -3.572475            -6.902586            6.640899
| 62>   H                    : -4.180799            -9.176255            6.298429
| 63>   H                    : -4.673121            -9.129860            7.950470
| 64>   H                    : -5.476760            -8.065264            6.898514
| 65>   C                      -2.783148            -4.777537            2.431724
| 66>   O                      -1.829021            -5.293584            3.392940
| 67>   H                      -1.867300            -4.710863            4.157976
| 68>   H                      -2.752814            -5.410339            1.611272
| 69>   H                      -3.882283            -4.787825            2.730736
| 70>   H                      -2.585822            -3.705635            2.105126
| 71> *
| 72>
| 73>                          ****END OF INPUT****
 Total Charge           Charge          ....    0
 Multiplicity           Mult            ....    1
 Number of Electrons    NEL             ....   36
Dispersion correction           -0.000748362
FINAL SINGLE POINT ENERGY      -231.460987146542
Dispersion correction           -0.000238914
FINAL SINGLE POINT ENERGY      -115.729580754027

CARTESIAN COORDINATES (ANGSTROEM)
---------------------------------
  C     -4.571858   -8.509217    7.080362
  O     -3.583468   -7.449682    7.394431
  H     -3.572475   -6.902586    6.640899
  H     -4.180799   -9.176255    6.298429
  H     -4.673121   -9.129860    7.950470
  H     -5.476760   -8.065264    6.898514
  C     -2.783148   -4.777537    2.431724
  O     -1.829021   -5.293584    3.392940
  H     -1.867300   -4.710863    4.157976
  H     -2.752814   -5.410339    1.611272
  H     -3.882283   -4.787825    2.730736
  H     -2.585822   -3.705635    2.105126

 Multiplicity           Mult            ....    1
 Number of Electrons    NEL             ....   18
 Basis Dimension        Dim             ....  172

ORBITAL ENERGIES
----------------

  NO   OCC          E(Eh)            E(eV)
   0   2.0000     -19.236339      -523.4474
   1   2.0000     -10.319765      -280.8151
   2   2.0000      -1.128761       -30.7152
   3   2.0000      -0.797686       -21.7061
   4   2.0000      -0.606188       -16.4952
   5   2.0000      -0.532063       -14.4782
   6   2.0000      -0.520068       -14.1518
   7   2.0000      -0.444265       -12.0891
   8   2.0000      -0.376513       -10.2454
   9   0.0000       0.087568         2.3828
  10   0.0000       0.114514         3.1161
  11   0.0000       0.145976         3.9722
  12   0.0000       0.173232         4.7139
  13   0.0000       0.197792         5.3822

MULLIKEN ATOMIC CHARGES
-----------------------
   0 C :    0.000245
   1 O :    0.000173
   2 H :   -0.001636
   3 H :   -0.000048
   4 H :   -0.000002
   5 H :   -0.000010
   6 C :   -0.177289
   7 O :   -0.470466
   8 H :    0.314463
   9 H :    0.130169
  10 H :    0.101128
  11 H :    0.103272
Sum of atomic charges:   -0.0000000

LOEWDIN ATOMIC CHARGES
----------------------
   0 C :   -0.000013
   1 O :   -0.000017
   2 H :   -0.000777
   3 H :   -0.000004
   4 H :   -0.000000
   5 H :   -0.000001
   6 C :   -0.369873
   7 O :   -0.095667
   8 H :    0.167715
   9 H :    0.093991
  10 H :    0.102108
  11 H :    0.102538

  Mayer bond orders larger than 0.1
B(  6-C ,  7-O ) :   1.0060 B(  6-C ,  9-H ) :   0.9769 B(  6-C , 10-H ) :   0.9666
B(  6-C , 11-H ) :   0.9708 B(  7-O ,  8-H ) :   0.9011

Dispersion correction           -0.000285278
FINAL SINGLE POINT ENERGY      -115.730979072686

DIPOLE MOMENT
-------------
                                X             Y             Z
Electronic contribution:      1.34437      -0.81894       1.14667
Nuclear contribution   :     -1.74438       1.36926      -1.07415
                        -----------------------------------------
Total Dipole Moment    :     -0.40001       0.55033       0.07251
                        -----------------------------------------
Magnitude (a.u.)       :      0.68420
Magnitude (Debye)      :      1.73910

Rotational constants in cm-1:     4.311144     0.787111     0.763091
Rotational constants in MHz : 129244.851564 23596.985530 22876.886110

                             ****ORCA TERMINATED NORMALLY****
TOTAL RUN TIME: 0 days 0 hours 0 minutes 51 seconds 422 msec
