                         Program Version 4.1.2  - RELEASE  -
|  1> #Run DFT-D3 single point of the dimer
|  2> ! wB97X-D3 def2-TZVP TIGHTSCF CHELPG PMODEL PAL8
|  3>
|  4> %base "16-185_DFT_AB"
|  5>
|  6> %scf
|  7> MaxIter 1000
|  8> end
|  9>
| 10> * xyz 0 1
| 11>   C                      -4.560682            -4.329770            1.110956
| 12>   O                      -3.928309            -5.024112            2.117217
| 13>   H                      -3.662203            -5.864956            1.700131
| 14>   H                      -5.471232            -4.871591            0.797603
| 15>   H                      -4.921328            -3.343781            1.562688
| 16>   H                      -3.888416            -4.178399            0.273072
| 17>   C                      -6.561807            -7.762744            2.531762
| 18>   O                      -5.570586            -8.353018            3.380342
| 19>   H                      -4.834959            -7.737960            3.465775
| 20>   H                      -7.017339            -6.940221            3.027210
| 21>   H                      -6.086870            -7.384128            1.607420
| 22>   H                      -7.346640            -8.404786            2.215934
| 23> *
| 24>
| 25> #Run DFT-D3 single point of the molecule with dimer basis set
| 26> $new_job
| 27> %base "16-185_DFT_A"
| 28> ! wB97X-D3 def2-TZVP TIGHTSCF CHELPG PMODEL
| 29>
| 30> %scf
| 31> MaxIter 1000
| 32> end
| 33>
| 34> * xyz 0 1
| 35>   C                      -4.560682            -4.329770            1.110956
| 36>   O                      -3.928309            -5.024112            2.117217
| 37>   H                      -3.662203            -5.864956            1.700131
| 38>   H                      -5.471232            -4.871591            0.797603
| 39>   H                      -4.921328            -3.343781            1.562688
| 40>   H                      -3.888416            -4.178399            0.273072
| 41>   C                    : -6.561807            -7.762744            2.531762
| 42>   O                    : -5.570586            -8.353018            3.380342
| 43>   H                    : -4.834959            -7.737960            3.465775
| 44>   H                    : -7.017339            -6.940221            3.027210
| 45>   H                    : -6.086870            -7.384128            1.607420
| 46>   H                    : -7.346640            -8.404786            2.215934
| 47> *
| 48>
| 49> #Run DFT-D3 single point of the particle with dimer basis set
| 50> $new_job
| 51> %base "16-185_DFT_B"
| 52> ! wB97X-D3 def2-TZVP TIGHTSCF CHELPG PMODEL
| 53>
| 54> %scf
| 55> MaxIter 1000
| 56> end
| 57>
| 58> * xyz 0 1
| 59>   C                    : -4.560682            -4.329770            1.110956
| 60>   O                    : -3.928309            -5.024112            2.117217
| 61>   H                    : -3.662203            -5.864956            1.700131
| 62>   H                    : -5.471232            -4.871591            0.797603
| 63>   H                    : -4.921328            -3.343781            1.562688
| 64>   H                    : -3.888416            -4.178399            0.273072
| 65>   C                      -6.561807            -7.762744            2.531762
| 66>   O                      -5.570586            -8.353018            3.380342
| 67>   H                      -4.834959            -7.737960            3.465775
| 68>   H                      -7.017339            -6.940221            3.027210
| 69>   H                      -6.086870            -7.384128            1.607420
| 70>   H                      -7.346640            -8.404786            2.215934
| 71> *
| 72>
| 73>                          ****END OF INPUT****
 Total Charge           Charge          ....    0
 Multiplicity           Mult            ....    1
 Number of Electrons    NEL             ....   36
Dispersion correction           -0.001791771
FINAL SINGLE POINT ENERGY      -231.468885451499
Dispersion correction           -0.000209110
FINAL SINGLE POINT ENERGY      -115.733503925929

CARTESIAN COORDINATES (ANGSTROEM)
---------------------------------
  C     -4.560682   -4.329770    1.110956
  O     -3.928309   -5.024112    2.117217
  H     -3.662203   -5.864956    1.700131
  H     -5.471232   -4.871591    0.797603
  H     -4.921328   -3.343781    1.562688
  H     -3.888416   -4.178399    0.273072
  C     -6.561807   -7.762744    2.531762
  O     -5.570586   -8.353018    3.380342
  H     -4.834959   -7.737960    3.465775
  H     -7.017339   -6.940221    3.027210
  H     -6.086870   -7.384128    1.607420
  H     -7.346640   -8.404786    2.215934

 Multiplicity           Mult            ....    1
 Number of Electrons    NEL             ....   18
 Basis Dimension        Dim             ....  172

ORBITAL ENERGIES
----------------

  NO   OCC          E(Eh)            E(eV)
   0   2.0000     -19.228847      -523.2435
   1   2.0000     -10.309452      -280.5344
   2   2.0000      -1.128926       -30.7196
   3   2.0000      -0.801241       -21.8029
   4   2.0000      -0.605793       -16.4845
   5   2.0000      -0.542292       -14.7565
   6   2.0000      -0.533525       -14.5179
   7   2.0000      -0.431685       -11.7467
   8   2.0000      -0.373248       -10.1566
   9   0.0000       0.074621         2.0305
  10   0.0000       0.120190         3.2705
  11   0.0000       0.151749         4.1293
  12   0.0000       0.173504         4.7213
  13   0.0000       0.191015         5.1978

MULLIKEN ATOMIC CHARGES
-----------------------
   0 C :    0.000286
   1 O :    0.000136
   2 H :   -0.000511
   3 H :   -0.001423
   4 H :   -0.000104
   5 H :   -0.000038
   6 C :   -0.165349
   7 O :   -0.482512
   8 H :    0.316217
   9 H :    0.106068
  10 H :    0.100152
  11 H :    0.127078
Sum of atomic charges:   -0.0000000

LOEWDIN ATOMIC CHARGES
----------------------
   0 C :   -0.001753
   1 O :   -0.000707
   2 H :   -0.001395
   3 H :   -0.002138
   4 H :   -0.000016
   5 H :   -0.000008
   6 C :   -0.363347
   7 O :   -0.091811
   8 H :    0.169071
   9 H :    0.090431
  10 H :    0.099762
  11 H :    0.101910

  Mayer bond orders larger than 0.1
B(  6-C ,  7-O ) :   0.9936 B(  6-C ,  9-H ) :   0.9805 B(  6-C , 10-H ) :   0.9830
B(  6-C , 11-H ) :   0.9697 B(  7-O ,  8-H ) :   0.8995

Dispersion correction           -0.000238505
FINAL SINGLE POINT ENERGY      -115.733362300884

DIPOLE MOMENT
-------------
                                X             Y             Z
Electronic contribution:      1.10086      -0.94968       1.12831
Nuclear contribution   :     -1.06195       1.58025      -1.42861
                        -----------------------------------------
Total Dipole Moment    :      0.03891       0.63057      -0.30030
                        -----------------------------------------
Magnitude (a.u.)       :      0.69951
Magnitude (Debye)      :      1.77802

Rotational constants in cm-1:     4.465361     0.811604     0.785105
Rotational constants in MHz : 133868.157510 24331.280576 23536.858473

                             ****ORCA TERMINATED NORMALLY****
TOTAL RUN TIME: 0 days 0 hours 1 minutes 0 seconds 489 msec
