                         Program Version 4.1.2  - RELEASE  -
|  1> #Run DFT geometry optimization
|  2> ! wB97X-D3 def2-TZVP TIGHTSCF Grid5 FinalGrid6 Opt CHELPG PAL4
|  3>
|  4> %base "8_geo_opt"
|  5> %geom MaxIter 500
|  6> end
|  7>
|  8> %geom
|  9>   Constraints
| 10>     { B 5 0 C }
| 11>   end
| 12> end
| 13>
| 14>
| 15> * xyz 0 1
| 16>   C                    3.011163             -1.180652            0.598587
| 17>   O                    4.394529             -1.127805            0.874403
| 18>   H                    4.772052             -0.378777            0.412588
| 19>   H                    2.806290             -1.318720            -0.469255
| 20>   H                    2.611488             -2.040020            1.135993
| 21>   H                    2.484901             -0.284736            0.945564
| 22> *
| 23>
| 24>                          ****END OF INPUT****
 Total Charge           Charge          ....    0
 Multiplicity           Mult            ....    1
 Number of Electrons    NEL             ....   18
Dispersion correction           -0.000239160
FINAL SINGLE POINT ENERGY      -115.738051107874
Dispersion correction            ... done
                    ***********************HURRAY********************

CARTESIAN COORDINATES (ANGSTROEM)
---------------------------------
  C      3.011199   -1.180670    0.598621
  O      4.394558   -1.127785    0.874372
  H      4.772049   -0.378738    0.412587
  H      2.806295   -1.318751   -0.469223
  H      2.611391   -2.040020    1.135956
  H      2.484929   -0.284746    0.945568

 Multiplicity           Mult            ....    1
 Number of Electrons    NEL             ....   18
 Basis Dimension        Dim             ....   86

ORBITAL ENERGIES
----------------

  NO   OCC          E(Eh)            E(eV)
   0   2.0000     -19.228067      -523.2223
   1   2.0000     -10.315042      -280.6866
   2   2.0000      -1.136796       -30.9338
   3   2.0000      -0.795387       -21.6436
   4   2.0000      -0.611611       -16.6428
   5   2.0000      -0.541819       -14.7436
   6   2.0000      -0.526326       -14.3221
   7   2.0000      -0.433794       -11.8041
   8   2.0000      -0.373610       -10.1665
   9   0.0000       0.116653         3.1743
  10   0.0000       0.156694         4.2639
  11   0.0000       0.202588         5.5127
  12   0.0000       0.205163         5.5828
  13   0.0000       0.226383         6.1602

MULLIKEN ATOMIC CHARGES
-----------------------
   0 C :   -0.150813
   1 O :   -0.477676
   2 H :    0.313004
   3 H :    0.098592
   4 H :    0.118201
   5 H :    0.098691
Sum of atomic charges:   -0.0000000

LOEWDIN ATOMIC CHARGES
----------------------
   0 C :   -0.385094
   1 O :   -0.076087
   2 H :    0.165778
   3 H :    0.093409
   4 H :    0.108701
   5 H :    0.093292

  Mayer bond orders larger than 0.1
B(  0-C ,  1-O ) :   0.9986 B(  0-C ,  3-H ) :   0.9756 B(  0-C ,  4-H ) :   0.9749
B(  0-C ,  5-H ) :   0.9755 B(  1-O ,  2-H ) :   0.9002

Dispersion correction           -0.000239164
FINAL SINGLE POINT ENERGY      -115.738051121412

DIPOLE MOMENT
-------------
                                X             Y             Z
Electronic contribution:      1.75561      -0.02764       0.42005
Nuclear contribution   :     -2.06559       0.47540      -0.81760
                        -----------------------------------------
Total Dipole Moment    :     -0.30998       0.44776      -0.39755
                        -----------------------------------------
Magnitude (a.u.)       :      0.67426
Magnitude (Debye)      :      1.71383

Rotational constants in cm-1:     4.294253     0.833855     0.804942
Rotational constants in MHz : 128738.458416 24998.353009 24131.565507

                             ****ORCA TERMINATED NORMALLY****
TOTAL RUN TIME: 0 days 0 hours 0 minutes 35 seconds 443 msec
