                         Program Version 4.1.2  - RELEASE  -
|  1> #Run DFT-D3 single point of the dimer
|  2> ! wB97X-D3 def2-TZVP TIGHTSCF CHELPG PMODEL PAL8
|  3>
|  4> %base "18-212_DFT_AB"
|  5>
|  6> %scf
|  7> MaxIter 1000
|  8> end
|  9>
| 10> * xyz 0 1
| 11>   C                      -5.272927            -1.364108            1.728997
| 12>   O                      -5.774014            -2.247115            2.688115
| 13>   H                      -6.032081            -3.122064            2.287898
| 14>   H                      -4.128287            -1.490390            1.585377
| 15>   H                      -5.793673            -1.525544            0.712564
| 16>   H                      -5.338184            -0.335502            1.940388
| 17>   C                      -6.524072            -2.203817            -2.375962
| 18>   O                      -6.769655            -2.963355            -1.148062
| 19>   H                      -5.922754            -2.827025            -0.644799
| 20>   H                      -5.407294            -2.234582            -2.690142
| 21>   H                      -7.171416            -2.481153            -3.240957
| 22>   H                      -6.743710            -1.160809            -2.321463
| 23> *
| 24>
| 25> #Run DFT-D3 single point of the molecule with dimer basis set
| 26> $new_job
| 27> %base "18-212_DFT_A"
| 28> ! wB97X-D3 def2-TZVP TIGHTSCF CHELPG PMODEL
| 29>
| 30> %scf
| 31> MaxIter 1000
| 32> end
| 33>
| 34> * xyz 0 1
| 35>   C                      -5.272927            -1.364108            1.728997
| 36>   O                      -5.774014            -2.247115            2.688115
| 37>   H                      -6.032081            -3.122064            2.287898
| 38>   H                      -4.128287            -1.490390            1.585377
| 39>   H                      -5.793673            -1.525544            0.712564
| 40>   H                      -5.338184            -0.335502            1.940388
| 41>   C                    : -6.524072            -2.203817            -2.375962
| 42>   O                    : -6.769655            -2.963355            -1.148062
| 43>   H                    : -5.922754            -2.827025            -0.644799
| 44>   H                    : -5.407294            -2.234582            -2.690142
| 45>   H                    : -7.171416            -2.481153            -3.240957
| 46>   H                    : -6.743710            -1.160809            -2.321463
| 47> *
| 48>
| 49> #Run DFT-D3 single point of the particle with dimer basis set
| 50> $new_job
| 51> %base "18-212_DFT_B"
| 52> ! wB97X-D3 def2-TZVP TIGHTSCF CHELPG PMODEL
| 53>
| 54> %scf
| 55> MaxIter 1000
| 56> end
| 57>
| 58> * xyz 0 1
| 59>   C                    : -5.272927            -1.364108            1.728997
| 60>   O                    : -5.774014            -2.247115            2.688115
| 61>   H                    : -6.032081            -3.122064            2.287898
| 62>   H                    : -4.128287            -1.490390            1.585377
| 63>   H                    : -5.793673            -1.525544            0.712564
| 64>   H                    : -5.338184            -0.335502            1.940388
| 65>   C                      -6.524072            -2.203817            -2.375962
| 66>   O                      -6.769655            -2.963355            -1.148062
| 67>   H                      -5.922754            -2.827025            -0.644799
| 68>   H                      -5.407294            -2.234582            -2.690142
| 69>   H                      -7.171416            -2.481153            -3.240957
| 70>   H                      -6.743710            -1.160809            -2.321463
| 71> *
| 72>
| 73>                          ****END OF INPUT****
 Total Charge           Charge          ....    0
 Multiplicity           Mult            ....    1
 Number of Electrons    NEL             ....   36
Dispersion correction           -0.001730582
FINAL SINGLE POINT ENERGY      -231.453048271624
Dispersion correction           -0.000269474
FINAL SINGLE POINT ENERGY      -115.726816932324

CARTESIAN COORDINATES (ANGSTROEM)
---------------------------------
  C     -5.272927   -1.364108    1.728997
  O     -5.774014   -2.247115    2.688115
  H     -6.032081   -3.122064    2.287898
  H     -4.128287   -1.490390    1.585377
  H     -5.793673   -1.525544    0.712564
  H     -5.338184   -0.335502    1.940388
  C     -6.524072   -2.203817   -2.375962
  O     -6.769655   -2.963355   -1.148062
  H     -5.922754   -2.827025   -0.644799
  H     -5.407294   -2.234582   -2.690142
  H     -7.171416   -2.481153   -3.240957
  H     -6.743710   -1.160809   -2.321463

 Multiplicity           Mult            ....    1
 Number of Electrons    NEL             ....   18
 Basis Dimension        Dim             ....  172

ORBITAL ENERGIES
----------------

  NO   OCC          E(Eh)            E(eV)
   0   2.0000     -19.242143      -523.6053
   1   2.0000     -10.324759      -280.9510
   2   2.0000      -1.121915       -30.5289
   3   2.0000      -0.793207       -21.5843
   4   2.0000      -0.598664       -16.2905
   5   2.0000      -0.532451       -14.4887
   6   2.0000      -0.519411       -14.1339
   7   2.0000      -0.442614       -12.0441
   8   2.0000      -0.376689       -10.2502
   9   0.0000       0.075496         2.0543
  10   0.0000       0.126120         3.4319
  11   0.0000       0.142965         3.8903
  12   0.0000       0.167398         4.5551
  13   0.0000       0.181685         4.9439

MULLIKEN ATOMIC CHARGES
-----------------------
   0 C :    0.008942
   1 O :    0.000016
   2 H :   -0.000544
   3 H :   -0.000049
   4 H :   -0.022300
   5 H :   -0.000782
   6 C :   -0.204512
   7 O :   -0.456069
   8 H :    0.322778
   9 H :    0.106326
  10 H :    0.126849
  11 H :    0.119347
Sum of atomic charges:    0.0000000

LOEWDIN ATOMIC CHARGES
----------------------
   0 C :   -0.005467
   1 O :   -0.000040
   2 H :   -0.000508
   3 H :   -0.000130
   4 H :   -0.013997
   5 H :   -0.000054
   6 C :   -0.372651
   7 O :   -0.110116
   8 H :    0.194051
   9 H :    0.108066
  10 H :    0.111916
  11 H :    0.088930

  Mayer bond orders larger than 0.1
B(  6-C ,  7-O ) :   1.0084 B(  6-C ,  9-H ) :   0.9807 B(  6-C , 10-H ) :   0.9734
B(  6-C , 11-H ) :   0.9667 B(  7-O ,  8-H ) :   0.8934

Dispersion correction           -0.000282068
FINAL SINGLE POINT ENERGY      -115.726238782288

DIPOLE MOMENT
-------------
                                X             Y             Z
Electronic contribution:     -0.57333      -1.10205       1.59099
Nuclear contribution   :      1.15597       1.50913      -1.79461
                        -----------------------------------------
Total Dipole Moment    :      0.58264       0.40709      -0.20362
                        -----------------------------------------
Magnitude (a.u.)       :      0.73936
Magnitude (Debye)      :      1.87931

Rotational constants in cm-1:     4.208203     0.779926     0.738084
Rotational constants in MHz : 126158.745451 23381.586346 22127.196726

                             ****ORCA TERMINATED NORMALLY****
TOTAL RUN TIME: 0 days 0 hours 1 minutes 5 seconds 191 msec
