                         Program Version 4.1.2  - RELEASE  -
|  1> #Run DFT-D3 single point of the dimer
|  2> ! wB97X-D3 def2-TZVP TIGHTSCF CHELPG PMODEL PAL8
|  3>
|  4> %base "21-75_DFT_AB"
|  5>
|  6> %scf
|  7> MaxIter 1000
|  8> end
|  9>
| 10> * xyz 0 1
| 11>   C                      3.842016             6.695679             2.250202
| 12>   O                      2.873278             7.246164             1.343030
| 13>   H                      3.031708             6.919436             0.425400
| 14>   H                      3.817862             5.565453             2.173094
| 15>   H                      4.822762             6.953849             1.878522
| 16>   H                      3.663193             7.138407             3.241986
| 17>   C                      4.636242             10.241333            -0.168985
| 18>   O                      5.247859             10.550946            1.085915
| 19>   H                      5.687021             9.727331             1.357490
| 20>   H                      4.510501             11.202798            -0.790874
| 21>   H                      5.400138             9.598197             -0.761799
| 22>   H                      3.711608             9.682024             -0.079434
| 23> *
| 24>
| 25> #Run DFT-D3 single point of the molecule with dimer basis set
| 26> $new_job
| 27> %base "21-75_DFT_A"
| 28> ! wB97X-D3 def2-TZVP TIGHTSCF CHELPG PMODEL
| 29>
| 30> %scf
| 31> MaxIter 1000
| 32> end
| 33>
| 34> * xyz 0 1
| 35>   C                      3.842016             6.695679             2.250202
| 36>   O                      2.873278             7.246164             1.343030
| 37>   H                      3.031708             6.919436             0.425400
| 38>   H                      3.817862             5.565453             2.173094
| 39>   H                      4.822762             6.953849             1.878522
| 40>   H                      3.663193             7.138407             3.241986
| 41>   C                    : 4.636242             10.241333            -0.168985
| 42>   O                    : 5.247859             10.550946            1.085915
| 43>   H                    : 5.687021             9.727331             1.357490
| 44>   H                    : 4.510501             11.202798            -0.790874
| 45>   H                    : 5.400138             9.598197             -0.761799
| 46>   H                    : 3.711608             9.682024             -0.079434
| 47> *
| 48>
| 49> #Run DFT-D3 single point of the particle with dimer basis set
| 50> $new_job
| 51> %base "21-75_DFT_B"
| 52> ! wB97X-D3 def2-TZVP TIGHTSCF CHELPG PMODEL
| 53>
| 54> %scf
| 55> MaxIter 1000
| 56> end
| 57>
| 58> * xyz 0 1
| 59>   C                    : 3.842016             6.695679             2.250202
| 60>   O                    : 2.873278             7.246164             1.343030
| 61>   H                    : 3.031708             6.919436             0.425400
| 62>   H                    : 3.817862             5.565453             2.173094
| 63>   H                    : 4.822762             6.953849             1.878522
| 64>   H                    : 3.663193             7.138407             3.241986
| 65>   C                      4.636242             10.241333            -0.168985
| 66>   O                      5.247859             10.550946            1.085915
| 67>   H                      5.687021             9.727331             1.357490
| 68>   H                      4.510501             11.202798            -0.790874
| 69>   H                      5.400138             9.598197             -0.761799
| 70>   H                      3.711608             9.682024             -0.079434
| 71> *
| 72>
| 73>                          ****END OF INPUT****
 Total Charge           Charge          ....    0
 Multiplicity           Mult            ....    1
 Number of Electrons    NEL             ....   36
Dispersion correction           -0.001711013
FINAL SINGLE POINT ENERGY      -231.463902483238
Dispersion correction           -0.000238932
FINAL SINGLE POINT ENERGY      -115.732376379058

CARTESIAN COORDINATES (ANGSTROEM)
---------------------------------
  C      3.842016    6.695679    2.250202
  O      2.873278    7.246164    1.343030
  H      3.031708    6.919436    0.425400
  H      3.817862    5.565453    2.173094
  H      4.822762    6.953849    1.878522
  H      3.663193    7.138407    3.241986
  C      4.636242   10.241333   -0.168985
  O      5.247859   10.550946    1.085915
  H      5.687021    9.727331    1.357490
  H      4.510501   11.202798   -0.790874
  H      5.400138    9.598197   -0.761799
  H      3.711608    9.682024   -0.079434

 Multiplicity           Mult            ....    1
 Number of Electrons    NEL             ....   18
 Basis Dimension        Dim             ....  172

ORBITAL ENERGIES
----------------

  NO   OCC          E(Eh)            E(eV)
   0   2.0000     -19.233080      -523.3587
   1   2.0000     -10.327338      -281.0211
   2   2.0000      -1.132279       -30.8109
   3   2.0000      -0.784653       -21.3515
   4   2.0000      -0.604191       -16.4409
   5   2.0000      -0.542211       -14.7543
   6   2.0000      -0.519370       -14.1328
   7   2.0000      -0.430124       -11.7043
   8   2.0000      -0.375392       -10.2149
   9   0.0000       0.072141         1.9631
  10   0.0000       0.123058         3.3486
  11   0.0000       0.138965         3.7814
  12   0.0000       0.173912         4.7324
  13   0.0000       0.181423         4.9368

MULLIKEN ATOMIC CHARGES
-----------------------
   0 C :   -0.001088
   1 O :    0.000346
   2 H :   -0.000603
   3 H :   -0.000055
   4 H :   -0.000845
   5 H :    0.000334
   6 C :   -0.186694
   7 O :   -0.468497
   8 H :    0.318241
   9 H :    0.124524
  10 H :    0.098771
  11 H :    0.115566
Sum of atomic charges:    0.0000000

LOEWDIN ATOMIC CHARGES
----------------------
   0 C :   -0.001352
   1 O :   -0.001153
   2 H :   -0.001044
   3 H :   -0.000031
   4 H :   -0.000854
   5 H :   -0.000055
   6 C :   -0.389763
   7 O :   -0.095854
   8 H :    0.175817
   9 H :    0.118143
  10 H :    0.105009
  11 H :    0.091137

  Mayer bond orders larger than 0.1
B(  6-C ,  7-O ) :   0.9978 B(  6-C ,  9-H ) :   0.9711 B(  6-C , 10-H ) :   0.9869
B(  6-C , 11-H ) :   0.9614 B(  7-O ,  8-H ) :   0.8986

Dispersion correction           -0.000249398
FINAL SINGLE POINT ENERGY      -115.730502287014

DIPOLE MOMENT
-------------
                                X             Y             Z
Electronic contribution:      0.55243       0.56979       1.69353
Nuclear contribution   :     -0.51504      -1.19668      -2.01316
                        -----------------------------------------
Total Dipole Moment    :      0.03739      -0.62689      -0.31963
                        -----------------------------------------
Magnitude (a.u.)       :      0.70467
Magnitude (Debye)      :      1.79112

Rotational constants in cm-1:     3.983291     0.815102     0.784182
Rotational constants in MHz : 119416.066145 24436.157596 23509.170134

                             ****ORCA TERMINATED NORMALLY****
TOTAL RUN TIME: 0 days 0 hours 1 minutes 5 seconds 777 msec
