                         Program Version 4.1.2  - RELEASE  -
|  1> #Run DFT-D3 single point of the dimer
|  2> ! wB97X-D3 def2-TZVP TIGHTSCF CHELPG PMODEL PAL8
|  3>
|  4> %base "15-90_DFT_AB"
|  5>
|  6> %scf
|  7> MaxIter 1000
|  8> end
|  9>
| 10> * xyz 0 1
| 11>   C                      -3.485730            -1.394707            -9.730617
| 12>   O                      -2.209008            -1.200329            -10.263792
| 13>   H                      -1.614533            -1.875366            -9.926658
| 14>   H                      -4.240539            -0.844386            -10.235814
| 15>   H                      -3.804167            -2.419185            -9.794614
| 16>   H                      -3.535408            -1.094552            -8.687688
| 17>   C                      -0.775946            -4.067076            -7.922142
| 18>   O                      -0.095295            -3.031647            -8.562223
| 19>   H                      0.844014             -3.107759            -8.337877
| 20>   H                      -1.819958            -4.091292            -8.093578
| 21>   H                      -0.468927            -5.104595            -8.085485
| 22>   H                      -0.670651            -3.907409            -6.836843
| 23> *
| 24>
| 25> #Run DFT-D3 single point of the molecule with dimer basis set
| 26> $new_job
| 27> %base "15-90_DFT_A"
| 28> ! wB97X-D3 def2-TZVP TIGHTSCF CHELPG PMODEL
| 29>
| 30> %scf
| 31> MaxIter 1000
| 32> end
| 33>
| 34> * xyz 0 1
| 35>   C                      -3.485730            -1.394707            -9.730617
| 36>   O                      -2.209008            -1.200329            -10.263792
| 37>   H                      -1.614533            -1.875366            -9.926658
| 38>   H                      -4.240539            -0.844386            -10.235814
| 39>   H                      -3.804167            -2.419185            -9.794614
| 40>   H                      -3.535408            -1.094552            -8.687688
| 41>   C                    : -0.775946            -4.067076            -7.922142
| 42>   O                    : -0.095295            -3.031647            -8.562223
| 43>   H                    : 0.844014             -3.107759            -8.337877
| 44>   H                    : -1.819958            -4.091292            -8.093578
| 45>   H                    : -0.468927            -5.104595            -8.085485
| 46>   H                    : -0.670651            -3.907409            -6.836843
| 47> *
| 48>
| 49> #Run DFT-D3 single point of the particle with dimer basis set
| 50> $new_job
| 51> %base "15-90_DFT_B"
| 52> ! wB97X-D3 def2-TZVP TIGHTSCF CHELPG PMODEL
| 53>
| 54> %scf
| 55> MaxIter 1000
| 56> end
| 57>
| 58> * xyz 0 1
| 59>   C                    : -3.485730            -1.394707            -9.730617
| 60>   O                    : -2.209008            -1.200329            -10.263792
| 61>   H                    : -1.614533            -1.875366            -9.926658
| 62>   H                    : -4.240539            -0.844386            -10.235814
| 63>   H                    : -3.804167            -2.419185            -9.794614
| 64>   H                    : -3.535408            -1.094552            -8.687688
| 65>   C                      -0.775946            -4.067076            -7.922142
| 66>   O                      -0.095295            -3.031647            -8.562223
| 67>   H                      0.844014             -3.107759            -8.337877
| 68>   H                      -1.819958            -4.091292            -8.093578
| 69>   H                      -0.468927            -5.104595            -8.085485
| 70>   H                      -0.670651            -3.907409            -6.836843
| 71> *
| 72>
| 73>                          ****END OF INPUT****
 Total Charge           Charge          ....    0
 Multiplicity           Mult            ....    1
 Number of Electrons    NEL             ....   36
Dispersion correction           -0.001725608
FINAL SINGLE POINT ENERGY      -231.473169708423
Dispersion correction           -0.000232783
FINAL SINGLE POINT ENERGY      -115.735398402026

CARTESIAN COORDINATES (ANGSTROEM)
---------------------------------
  C     -3.485730   -1.394707   -9.730617
  O     -2.209008   -1.200329  -10.263792
  H     -1.614533   -1.875366   -9.926658
  H     -4.240539   -0.844386  -10.235814
  H     -3.804167   -2.419185   -9.794614
  H     -3.535408   -1.094552   -8.687688
  C     -0.775946   -4.067076   -7.922142
  O     -0.095295   -3.031647   -8.562223
  H      0.844014   -3.107759   -8.337877
  H     -1.819958   -4.091292   -8.093578
  H     -0.468927   -5.104595   -8.085485
  H     -0.670651   -3.907409   -6.836843

 Multiplicity           Mult            ....    1
 Number of Electrons    NEL             ....   18
 Basis Dimension        Dim             ....  172

ORBITAL ENERGIES
----------------

  NO   OCC          E(Eh)            E(eV)
   0   2.0000     -19.234621      -523.4006
   1   2.0000     -10.308611      -280.5116
   2   2.0000      -1.142475       -31.0883
   3   2.0000      -0.799486       -21.7551
   4   2.0000      -0.616686       -16.7809
   5   2.0000      -0.542632       -14.7658
   6   2.0000      -0.532650       -14.4941
   7   2.0000      -0.433900       -11.8070
   8   2.0000      -0.372000       -10.1226
   9   0.0000       0.095446         2.5972
  10   0.0000       0.120557         3.2805
  11   0.0000       0.151682         4.1275
  12   0.0000       0.188995         5.1428
  13   0.0000       0.197921         5.3857

MULLIKEN ATOMIC CHARGES
-----------------------
   0 C :    0.001033
   1 O :    0.000405
   2 H :   -0.007924
   3 H :   -0.000012
   4 H :   -0.000406
   5 H :   -0.000314
   6 C :   -0.176456
   7 O :   -0.459945
   8 H :    0.316150
   9 H :    0.127221
  10 H :    0.099941
  11 H :    0.100306
Sum of atomic charges:   -0.0000000

LOEWDIN ATOMIC CHARGES
----------------------
   0 C :   -0.001075
   1 O :   -0.001322
   2 H :   -0.016103
   3 H :   -0.000008
   4 H :   -0.000455
   5 H :   -0.000113
   6 C :   -0.403404
   7 O :   -0.048401
   8 H :    0.178266
   9 H :    0.101549
  10 H :    0.093496
  11 H :    0.097571

  Mayer bond orders larger than 0.1
B(  6-C ,  7-O ) :   1.0005 B(  6-C ,  9-H ) :   0.9734 B(  6-C , 10-H ) :   0.9674
B(  6-C , 11-H ) :   0.9862 B(  7-O ,  8-H ) :   0.8938

Dispersion correction           -0.000242359
FINAL SINGLE POINT ENERGY      -115.731995963805

DIPOLE MOMENT
-------------
                                X             Y             Z
Electronic contribution:      0.77971       1.43859      -1.08008
Nuclear contribution   :     -0.46031      -1.88557       1.46904
                        -----------------------------------------
Total Dipole Moment    :      0.31939      -0.44698       0.38895
                        -----------------------------------------
Magnitude (a.u.)       :      0.67312
Magnitude (Debye)      :      1.71093

Rotational constants in cm-1:     4.522198     0.837891     0.809745
Rotational constants in MHz : 135572.080767 25119.332698 24275.541568

                             ****ORCA TERMINATED NORMALLY****
TOTAL RUN TIME: 0 days 0 hours 1 minutes 6 seconds 773 msec
