                         Program Version 4.1.2  - RELEASE  -
|  1> #Run DFT-D3 single point of the dimer
|  2> ! wB97X-D3 def2-TZVP TIGHTSCF CHELPG PMODEL PAL8
|  3>
|  4> %base "17-11_DFT_AB"
|  5>
|  6> %scf
|  7> MaxIter 1000
|  8> end
|  9>
| 10> * xyz 0 1
| 11>   C                      -4.021581            2.799748             -3.951247
| 12>   O                      -3.968984            3.408857             -2.693875
| 13>   H                      -3.428997            4.133400             -2.976944
| 14>   H                      -4.837682            2.116741             -4.115847
| 15>   H                      -4.388551            3.544017             -4.698766
| 16>   H                      -3.031499            2.512948             -4.232440
| 17>   C                      -7.515037            5.582148             -3.315397
| 18>   O                      -6.525730            6.413087             -2.809489
| 19>   H                      -7.074586            7.115565             -2.361742
| 20>   H                      -8.167895            5.167696             -2.554163
| 21>   H                      -8.144789            6.128681             -3.981779
| 22>   H                      -7.049836            4.735349             -3.887886
| 23> *
| 24>
| 25> #Run DFT-D3 single point of the molecule with dimer basis set
| 26> $new_job
| 27> %base "17-11_DFT_A"
| 28> ! wB97X-D3 def2-TZVP TIGHTSCF CHELPG PMODEL
| 29>
| 30> %scf
| 31> MaxIter 1000
| 32> end
| 33>
| 34> * xyz 0 1
| 35>   C                      -4.021581            2.799748             -3.951247
| 36>   O                      -3.968984            3.408857             -2.693875
| 37>   H                      -3.428997            4.133400             -2.976944
| 38>   H                      -4.837682            2.116741             -4.115847
| 39>   H                      -4.388551            3.544017             -4.698766
| 40>   H                      -3.031499            2.512948             -4.232440
| 41>   C                    : -7.515037            5.582148             -3.315397
| 42>   O                    : -6.525730            6.413087             -2.809489
| 43>   H                    : -7.074586            7.115565             -2.361742
| 44>   H                    : -8.167895            5.167696             -2.554163
| 45>   H                    : -8.144789            6.128681             -3.981779
| 46>   H                    : -7.049836            4.735349             -3.887886
| 47> *
| 48>
| 49> #Run DFT-D3 single point of the particle with dimer basis set
| 50> $new_job
| 51> %base "17-11_DFT_B"
| 52> ! wB97X-D3 def2-TZVP TIGHTSCF CHELPG PMODEL
| 53>
| 54> %scf
| 55> MaxIter 1000
| 56> end
| 57>
| 58> * xyz 0 1
| 59>   C                    : -4.021581            2.799748             -3.951247
| 60>   O                    : -3.968984            3.408857             -2.693875
| 61>   H                    : -3.428997            4.133400             -2.976944
| 62>   H                    : -4.837682            2.116741             -4.115847
| 63>   H                    : -4.388551            3.544017             -4.698766
| 64>   H                    : -3.031499            2.512948             -4.232440
| 65>   C                      -7.515037            5.582148             -3.315397
| 66>   O                      -6.525730            6.413087             -2.809489
| 67>   H                      -7.074586            7.115565             -2.361742
| 68>   H                      -8.167895            5.167696             -2.554163
| 69>   H                      -8.144789            6.128681             -3.981779
| 70>   H                      -7.049836            4.735349             -3.887886
| 71> *
| 72>
| 73>                          ****END OF INPUT****
 Total Charge           Charge          ....    0
 Multiplicity           Mult            ....    1
 Number of Electrons    NEL             ....   36
Dispersion correction           -0.001225534
FINAL SINGLE POINT ENERGY      -231.454811101218
Dispersion correction           -0.000191094
FINAL SINGLE POINT ENERGY      -115.721773399727

CARTESIAN COORDINATES (ANGSTROEM)
---------------------------------
  C     -4.021581    2.799748   -3.951247
  O     -3.968984    3.408857   -2.693875
  H     -3.428997    4.133400   -2.976944
  H     -4.837682    2.116741   -4.115847
  H     -4.388551    3.544017   -4.698766
  H     -3.031499    2.512948   -4.232440
  C     -7.515037    5.582148   -3.315397
  O     -6.525730    6.413087   -2.809489
  H     -7.074586    7.115565   -2.361742
  H     -8.167895    5.167696   -2.554163
  H     -8.144789    6.128681   -3.981779
  H     -7.049836    4.735349   -3.887886

 Multiplicity           Mult            ....    1
 Number of Electrons    NEL             ....   18
 Basis Dimension        Dim             ....  172

ORBITAL ENERGIES
----------------

  NO   OCC          E(Eh)            E(eV)
   0   2.0000     -19.235477      -523.4239
   1   2.0000     -10.309430      -280.5339
   2   2.0000      -1.143349       -31.1121
   3   2.0000      -0.788170       -21.4472
   4   2.0000      -0.614098       -16.7105
   5   2.0000      -0.546652       -14.8752
   6   2.0000      -0.525983       -14.3127
   7   2.0000      -0.438199       -11.9240
   8   2.0000      -0.371818       -10.1177
   9   0.0000       0.089712         2.4412
  10   0.0000       0.113303         3.0831
  11   0.0000       0.153374         4.1735
  12   0.0000       0.180952         4.9240
  13   0.0000       0.186167         5.0659

MULLIKEN ATOMIC CHARGES
-----------------------
   0 C :    0.000765
   1 O :   -0.000160
   2 H :   -0.000480
   3 H :   -0.000464
   4 H :   -0.000048
   5 H :    0.000008
   6 C :   -0.167801
   7 O :   -0.460321
   8 H :    0.315862
   9 H :    0.098404
  10 H :    0.099691
  11 H :    0.114545
Sum of atomic charges:    0.0000000

LOEWDIN ATOMIC CHARGES
----------------------
   0 C :   -0.000921
   1 O :   -0.000214
   2 H :   -0.000337
   3 H :   -0.000185
   4 H :   -0.000490
   5 H :   -0.000006
   6 C :   -0.415290
   7 O :   -0.071212
   8 H :    0.197263
   9 H :    0.090206
  10 H :    0.086761
  11 H :    0.114424

  Mayer bond orders larger than 0.1
B(  6-C ,  7-O ) :   1.0016 B(  6-C ,  9-H ) :   0.9759 B(  6-C , 10-H ) :   0.9828
B(  6-C , 11-H ) :   0.9725 B(  7-O ,  8-H ) :   0.8960

Dispersion correction           -0.000208847
FINAL SINGLE POINT ENERGY      -115.732345132351

DIPOLE MOMENT
-------------
                                X             Y             Z
Electronic contribution:      1.45133       1.00571       0.63283
Nuclear contribution   :     -2.15539      -0.87979      -0.55404
                        -----------------------------------------
Total Dipole Moment    :     -0.70406       0.12592       0.07879
                        -----------------------------------------
Magnitude (a.u.)       :      0.71956
Magnitude (Debye)      :      1.82898

Rotational constants in cm-1:     4.195461     0.869033     0.824941
Rotational constants in MHz : 125776.759927 26052.951023 24731.094315

                             ****ORCA TERMINATED NORMALLY****
TOTAL RUN TIME: 0 days 0 hours 1 minutes 3 seconds 768 msec
