                         Program Version 4.1.2  - RELEASE  -
|  1> #Run DFT-D3 single point of the dimer
|  2> ! wB97X-D3 def2-TZVP TIGHTSCF CHELPG PMODEL PAL8
|  3>
|  4> %base "16-64_DFT_AB"
|  5>
|  6> %scf
|  7> MaxIter 1000
|  8> end
|  9>
| 10> * xyz 0 1
| 11>   C                      8.058946             -9.033042            0.461038
| 12>   O                      8.872390             -8.090761            1.090432
| 13>   H                      8.823240             -8.265778            1.999192
| 14>   H                      7.747471             -8.809037            -0.550858
| 15>   H                      8.601848             -9.949009            0.269711
| 16>   H                      7.118040             -9.192842            0.968932
| 17>   C                      9.490457             -4.875805            3.455950
| 18>   O                      10.344244            -5.117745            2.427739
| 19>   H                      11.255796            -5.131421            2.828803
| 20>   H                      8.538186             -5.378607            3.341968
| 21>   H                      9.866922             -5.323209            4.390639
| 22>   H                      9.396912             -3.795127            3.671283
| 23> *
| 24>
| 25> #Run DFT-D3 single point of the molecule with dimer basis set
| 26> $new_job
| 27> %base "16-64_DFT_A"
| 28> ! wB97X-D3 def2-TZVP TIGHTSCF CHELPG PMODEL
| 29>
| 30> %scf
| 31> MaxIter 1000
| 32> end
| 33>
| 34> * xyz 0 1
| 35>   C                      8.058946             -9.033042            0.461038
| 36>   O                      8.872390             -8.090761            1.090432
| 37>   H                      8.823240             -8.265778            1.999192
| 38>   H                      7.747471             -8.809037            -0.550858
| 39>   H                      8.601848             -9.949009            0.269711
| 40>   H                      7.118040             -9.192842            0.968932
| 41>   C                    : 9.490457             -4.875805            3.455950
| 42>   O                    : 10.344244            -5.117745            2.427739
| 43>   H                    : 11.255796            -5.131421            2.828803
| 44>   H                    : 8.538186             -5.378607            3.341968
| 45>   H                    : 9.866922             -5.323209            4.390639
| 46>   H                    : 9.396912             -3.795127            3.671283
| 47> *
| 48>
| 49> #Run DFT-D3 single point of the particle with dimer basis set
| 50> $new_job
| 51> %base "16-64_DFT_B"
| 52> ! wB97X-D3 def2-TZVP TIGHTSCF CHELPG PMODEL
| 53>
| 54> %scf
| 55> MaxIter 1000
| 56> end
| 57>
| 58> * xyz 0 1
| 59>   C                    : 8.058946             -9.033042            0.461038
| 60>   O                    : 8.872390             -8.090761            1.090432
| 61>   H                    : 8.823240             -8.265778            1.999192
| 62>   H                    : 7.747471             -8.809037            -0.550858
| 63>   H                    : 8.601848             -9.949009            0.269711
| 64>   H                    : 7.118040             -9.192842            0.968932
| 65>   C                      9.490457             -4.875805            3.455950
| 66>   O                      10.344244            -5.117745            2.427739
| 67>   H                      11.255796            -5.131421            2.828803
| 68>   H                      8.538186             -5.378607            3.341968
| 69>   H                      9.866922             -5.323209            4.390639
| 70>   H                      9.396912             -3.795127            3.671283
| 71> *
| 72>
| 73>                          ****END OF INPUT****
 Total Charge           Charge          ....    0
 Multiplicity           Mult            ....    1
 Number of Electrons    NEL             ....   36
Dispersion correction           -0.001122796
FINAL SINGLE POINT ENERGY      -231.459985162694
Dispersion correction           -0.000234318
FINAL SINGLE POINT ENERGY      -115.730854300774

CARTESIAN COORDINATES (ANGSTROEM)
---------------------------------
  C      8.058946   -9.033042    0.461038
  O      8.872390   -8.090761    1.090432
  H      8.823240   -8.265778    1.999192
  H      7.747471   -8.809037   -0.550858
  H      8.601848   -9.949009    0.269711
  H      7.118040   -9.192842    0.968932
  C      9.490457   -4.875805    3.455950
  O     10.344244   -5.117745    2.427739
  H     11.255796   -5.131421    2.828803
  H      8.538186   -5.378607    3.341968
  H      9.866922   -5.323209    4.390639
  H      9.396912   -3.795127    3.671283

 Multiplicity           Mult            ....    1
 Number of Electrons    NEL             ....   18
 Basis Dimension        Dim             ....  172

ORBITAL ENERGIES
----------------

  NO   OCC          E(Eh)            E(eV)
   0   2.0000     -19.234306      -523.3921
   1   2.0000     -10.308431      -280.5067
   2   2.0000      -1.150901       -31.3176
   3   2.0000      -0.788195       -21.4479
   4   2.0000      -0.619050       -16.8452
   5   2.0000      -0.553214       -15.0537
   6   2.0000      -0.530585       -14.4379
   7   2.0000      -0.425371       -11.5749
   8   2.0000      -0.371097       -10.0981
   9   0.0000       0.090648         2.4667
  10   0.0000       0.109032         2.9669
  11   0.0000       0.152338         4.1453
  12   0.0000       0.173744         4.7278
  13   0.0000       0.201993         5.4965

MULLIKEN ATOMIC CHARGES
-----------------------
   0 C :   -0.000049
   1 O :   -0.000719
   2 H :   -0.000868
   3 H :    0.000018
   4 H :   -0.000005
   5 H :   -0.000003
   6 C :   -0.158626
   7 O :   -0.460331
   8 H :    0.323454
   9 H :    0.115360
  10 H :    0.087533
  11 H :    0.094236
Sum of atomic charges:    0.0000000

LOEWDIN ATOMIC CHARGES
----------------------
   0 C :   -0.000082
   1 O :   -0.001433
   2 H :   -0.000821
   3 H :   -0.000001
   4 H :   -0.000002
   5 H :   -0.000003
   6 C :   -0.439099
   7 O :   -0.049068
   8 H :    0.198964
   9 H :    0.103183
  10 H :    0.093583
  11 H :    0.094780

  Mayer bond orders larger than 0.1
B(  6-C ,  7-O ) :   1.0108 B(  6-C ,  9-H ) :   0.9720 B(  6-C , 10-H ) :   0.9901
B(  6-C , 11-H ) :   0.9728 B(  7-O ,  8-H ) :   0.8902

Dispersion correction           -0.000217931
FINAL SINGLE POINT ENERGY      -115.730581017714

DIPOLE MOMENT
-------------
                                X             Y             Z
Electronic contribution:      0.97131      -0.30227      -1.62282
Nuclear contribution   :     -0.69515       0.34897       2.25418
                        -----------------------------------------
Total Dipole Moment    :      0.27616       0.04670       0.63135
                        -----------------------------------------
Magnitude (a.u.)       :      0.69069
Magnitude (Debye)      :      1.75560

Rotational constants in cm-1:     4.236847     0.881984     0.852987
Rotational constants in MHz : 127017.476149 26441.224063 25571.906120

                             ****ORCA TERMINATED NORMALLY****
TOTAL RUN TIME: 0 days 0 hours 1 minutes 0 seconds 615 msec
