                         Program Version 4.1.2  - RELEASE  -
|  1> #Run DFT-D3 single point of the dimer
|  2> ! wB97X-D3 def2-TZVP TIGHTSCF CHELPG PMODEL PAL8
|  3>
|  4> %base "18-210_DFT_AB"
|  5>
|  6> %scf
|  7> MaxIter 1000
|  8> end
|  9>
| 10> * xyz 0 1
| 11>   C                      8.486115             -8.376310            9.617178
| 12>   O                      9.788556             -8.097057            9.208653
| 13>   H                      10.289293            -7.832658            9.953886
| 14>   H                      8.462706             -9.083218            10.462047
| 15>   H                      8.074883             -7.368892            9.969015
| 16>   H                      7.819525             -8.727821            8.793956
| 17>   C                      9.356855             -10.495370           6.990895
| 18>   O                      10.101183            -9.380953            6.730428
| 19>   H                      10.042316            -8.766026            7.416026
| 20>   H                      9.348065             -11.247211           6.147468
| 21>   H                      9.646204             -10.966870           7.921043
| 22>   H                      8.281665             -10.263757           7.170799
| 23> *
| 24>
| 25> #Run DFT-D3 single point of the molecule with dimer basis set
| 26> $new_job
| 27> %base "18-210_DFT_A"
| 28> ! wB97X-D3 def2-TZVP TIGHTSCF CHELPG PMODEL
| 29>
| 30> %scf
| 31> MaxIter 1000
| 32> end
| 33>
| 34> * xyz 0 1
| 35>   C                      8.486115             -8.376310            9.617178
| 36>   O                      9.788556             -8.097057            9.208653
| 37>   H                      10.289293            -7.832658            9.953886
| 38>   H                      8.462706             -9.083218            10.462047
| 39>   H                      8.074883             -7.368892            9.969015
| 40>   H                      7.819525             -8.727821            8.793956
| 41>   C                    : 9.356855             -10.495370           6.990895
| 42>   O                    : 10.101183            -9.380953            6.730428
| 43>   H                    : 10.042316            -8.766026            7.416026
| 44>   H                    : 9.348065             -11.247211           6.147468
| 45>   H                    : 9.646204             -10.966870           7.921043
| 46>   H                    : 8.281665             -10.263757           7.170799
| 47> *
| 48>
| 49> #Run DFT-D3 single point of the particle with dimer basis set
| 50> $new_job
| 51> %base "18-210_DFT_B"
| 52> ! wB97X-D3 def2-TZVP TIGHTSCF CHELPG PMODEL
| 53>
| 54> %scf
| 55> MaxIter 1000
| 56> end
| 57>
| 58> * xyz 0 1
| 59>   C                    : 8.486115             -8.376310            9.617178
| 60>   O                    : 9.788556             -8.097057            9.208653
| 61>   H                    : 10.289293            -7.832658            9.953886
| 62>   H                    : 8.462706             -9.083218            10.462047
| 63>   H                    : 8.074883             -7.368892            9.969015
| 64>   H                    : 7.819525             -8.727821            8.793956
| 65>   C                      9.356855             -10.495370           6.990895
| 66>   O                      10.101183            -9.380953            6.730428
| 67>   H                      10.042316            -8.766026            7.416026
| 68>   H                      9.348065             -11.247211           6.147468
| 69>   H                      9.646204             -10.966870           7.921043
| 70>   H                      8.281665             -10.263757           7.170799
| 71> *
| 72>
| 73>                          ****END OF INPUT****
 Total Charge           Charge          ....    0
 Multiplicity           Mult            ....    1
 Number of Electrons    NEL             ....   36
Dispersion correction           -0.002270284
FINAL SINGLE POINT ENERGY      -231.471262635210
Dispersion correction           -0.000225992
FINAL SINGLE POINT ENERGY      -115.732174202189

CARTESIAN COORDINATES (ANGSTROEM)
---------------------------------
  C      8.486115   -8.376310    9.617178
  O      9.788556   -8.097057    9.208653
  H     10.289293   -7.832658    9.953886
  H      8.462706   -9.083218   10.462047
  H      8.074883   -7.368892    9.969015
  H      7.819525   -8.727821    8.793956
  C      9.356855  -10.495370    6.990895
  O     10.101183   -9.380953    6.730428
  H     10.042316   -8.766026    7.416026
  H      9.348065  -11.247211    6.147468
  H      9.646204  -10.966870    7.921043
  H      8.281665  -10.263757    7.170799

 Multiplicity           Mult            ....    1
 Number of Electrons    NEL             ....   18
 Basis Dimension        Dim             ....  172

ORBITAL ENERGIES
----------------

  NO   OCC          E(Eh)            E(eV)
   0   2.0000     -19.228560      -523.2357
   1   2.0000     -10.315054      -280.6869
   2   2.0000      -1.158886       -31.5349
   3   2.0000      -0.797604       -21.7039
   4   2.0000      -0.629955       -17.1420
   5   2.0000      -0.543979       -14.8024
   6   2.0000      -0.532759       -14.4971
   7   2.0000      -0.429479       -11.6867
   8   2.0000      -0.369850       -10.0641
   9   0.0000       0.069523         1.8918
  10   0.0000       0.140337         3.8188
  11   0.0000       0.147358         4.0098
  12   0.0000       0.164807         4.4846
  13   0.0000       0.193902         5.2764

MULLIKEN ATOMIC CHARGES
-----------------------
   0 C :   -0.001138
   1 O :   -0.006204
   2 H :   -0.000523
   3 H :   -0.000324
   4 H :    0.000111
   5 H :    0.000976
   6 C :   -0.164136
   7 O :   -0.456317
   8 H :    0.313656
   9 H :    0.125775
  10 H :    0.097550
  11 H :    0.090574
Sum of atomic charges:   -0.0000000

LOEWDIN ATOMIC CHARGES
----------------------
   0 C :   -0.009961
   1 O :   -0.019988
   2 H :   -0.000930
   3 H :   -0.000227
   4 H :   -0.000071
   5 H :   -0.005499
   6 C :   -0.418908
   7 O :   -0.006386
   8 H :    0.156746
   9 H :    0.116662
  10 H :    0.091056
  11 H :    0.097508

  Mayer bond orders larger than 0.1
B(  6-C ,  7-O ) :   0.9915 B(  6-C ,  9-H ) :   0.9702 B(  6-C , 10-H ) :   0.9807
B(  6-C , 11-H ) :   0.9789 B(  7-O ,  8-H ) :   0.9101

Dispersion correction           -0.000230252
FINAL SINGLE POINT ENERGY      -115.731762738122

DIPOLE MOMENT
-------------
                                X             Y             Z
Electronic contribution:      1.16605       1.46900      -0.50477
Nuclear contribution   :     -1.47867      -1.47532       1.05313
                        -----------------------------------------
Total Dipole Moment    :     -0.31263      -0.00633       0.54836
                        -----------------------------------------
Magnitude (a.u.)       :      0.63125
Magnitude (Debye)      :      1.60450

Rotational constants in cm-1:     4.407755     0.870290     0.832452
Rotational constants in MHz : 132141.179950 26090.650519 24956.289471

                             ****ORCA TERMINATED NORMALLY****
TOTAL RUN TIME: 0 days 0 hours 1 minutes 7 seconds 800 msec
