                         Program Version 4.1.2  - RELEASE  -
|  1> #Run DFT-D3 single point of the dimer
|  2> ! wB97X-D3 def2-TZVP TIGHTSCF CHELPG PMODEL PAL8
|  3>
|  4> %base "4-39_DFT_AB"
|  5>
|  6> %scf
|  7> MaxIter 1000
|  8> end
|  9>
| 10> * xyz 0 1
| 11>   C                      -5.192736            -2.225288            6.637700
| 12>   O                      -5.408181            -1.507434            5.386835
| 13>   H                      -4.517370            -1.420161            5.041826
| 14>   H                      -4.838058            -1.544956            7.408872
| 15>   H                      -6.004383            -2.688830            7.117625
| 16>   H                      -4.338427            -2.918640            6.592779
| 17>   C                      -5.973001            -0.386174            10.427170
| 18>   O                      -6.679194            -0.761739            9.205489
| 19>   H                      -7.170868            -1.617442            9.360693
| 20>   H                      -5.164127            0.326669             10.294653
| 21>   H                      -6.723016            0.083022             11.103129
| 22>   H                      -5.516161            -1.206222            10.949054
| 23> *
| 24>
| 25> #Run DFT-D3 single point of the molecule with dimer basis set
| 26> $new_job
| 27> %base "4-39_DFT_A"
| 28> ! wB97X-D3 def2-TZVP TIGHTSCF CHELPG PMODEL
| 29>
| 30> %scf
| 31> MaxIter 1000
| 32> end
| 33>
| 34> * xyz 0 1
| 35>   C                      -5.192736            -2.225288            6.637700
| 36>   O                      -5.408181            -1.507434            5.386835
| 37>   H                      -4.517370            -1.420161            5.041826
| 38>   H                      -4.838058            -1.544956            7.408872
| 39>   H                      -6.004383            -2.688830            7.117625
| 40>   H                      -4.338427            -2.918640            6.592779
| 41>   C                    : -5.973001            -0.386174            10.427170
| 42>   O                    : -6.679194            -0.761739            9.205489
| 43>   H                    : -7.170868            -1.617442            9.360693
| 44>   H                    : -5.164127            0.326669             10.294653
| 45>   H                    : -6.723016            0.083022             11.103129
| 46>   H                    : -5.516161            -1.206222            10.949054
| 47> *
| 48>
| 49> #Run DFT-D3 single point of the particle with dimer basis set
| 50> $new_job
| 51> %base "4-39_DFT_B"
| 52> ! wB97X-D3 def2-TZVP TIGHTSCF CHELPG PMODEL
| 53>
| 54> %scf
| 55> MaxIter 1000
| 56> end
| 57>
| 58> * xyz 0 1
| 59>   C                    : -5.192736            -2.225288            6.637700
| 60>   O                    : -5.408181            -1.507434            5.386835
| 61>   H                    : -4.517370            -1.420161            5.041826
| 62>   H                    : -4.838058            -1.544956            7.408872
| 63>   H                    : -6.004383            -2.688830            7.117625
| 64>   H                    : -4.338427            -2.918640            6.592779
| 65>   C                      -5.973001            -0.386174            10.427170
| 66>   O                      -6.679194            -0.761739            9.205489
| 67>   H                      -7.170868            -1.617442            9.360693
| 68>   H                      -5.164127            0.326669             10.294653
| 69>   H                      -6.723016            0.083022             11.103129
| 70>   H                      -5.516161            -1.206222            10.949054
| 71> *
| 72>
| 73>                          ****END OF INPUT****
 Total Charge           Charge          ....    0
 Multiplicity           Mult            ....    1
 Number of Electrons    NEL             ....   36
Dispersion correction           -0.001686660
FINAL SINGLE POINT ENERGY      -231.457648859170
Dispersion correction           -0.000252548
FINAL SINGLE POINT ENERGY      -115.726934174258

CARTESIAN COORDINATES (ANGSTROEM)
---------------------------------
  C     -5.192736   -2.225288    6.637700
  O     -5.408181   -1.507434    5.386835
  H     -4.517370   -1.420161    5.041826
  H     -4.838058   -1.544956    7.408872
  H     -6.004383   -2.688830    7.117625
  H     -4.338427   -2.918640    6.592779
  C     -5.973001   -0.386174   10.427170
  O     -6.679194   -0.761739    9.205489
  H     -7.170868   -1.617442    9.360693
  H     -5.164127    0.326669   10.294653
  H     -6.723016    0.083022   11.103129
  H     -5.516161   -1.206222   10.949054

 Multiplicity           Mult            ....    1
 Number of Electrons    NEL             ....   18
 Basis Dimension        Dim             ....  172

ORBITAL ENERGIES
----------------

  NO   OCC          E(Eh)            E(eV)
   0   2.0000     -19.234560      -523.3990
   1   2.0000     -10.316670      -280.7309
   2   2.0000      -1.115102       -30.3435
   3   2.0000      -0.797349       -21.6970
   4   2.0000      -0.599095       -16.3022
   5   2.0000      -0.536419       -14.5967
   6   2.0000      -0.523561       -14.2468
   7   2.0000      -0.433768       -11.8034
   8   2.0000      -0.373606       -10.1663
   9   0.0000       0.092461         2.5160
  10   0.0000       0.121538         3.3072
  11   0.0000       0.143688         3.9100
  12   0.0000       0.183937         5.0052
  13   0.0000       0.193516         5.2658

MULLIKEN ATOMIC CHARGES
-----------------------
   0 C :    0.008593
   1 O :   -0.000479
   2 H :   -0.000083
   3 H :   -0.006967
   4 H :   -0.009664
   5 H :   -0.000316
   6 C :   -0.179404
   7 O :   -0.483656
   8 H :    0.320237
   9 H :    0.127105
  10 H :    0.111216
  11 H :    0.113417
Sum of atomic charges:    0.0000000

LOEWDIN ATOMIC CHARGES
----------------------
   0 C :   -0.012065
   1 O :   -0.000024
   2 H :   -0.000025
   3 H :   -0.007802
   4 H :   -0.004345
   5 H :   -0.000103
   6 C :   -0.357114
   7 O :   -0.109792
   8 H :    0.189728
   9 H :    0.106539
  10 H :    0.102877
  11 H :    0.092125

  Mayer bond orders larger than 0.1
B(  6-C ,  7-O ) :   0.9860 B(  6-C ,  9-H ) :   0.9719 B(  6-C , 10-H ) :   0.9786
B(  6-C , 11-H ) :   0.9728 B(  7-O ,  8-H ) :   0.8904

Dispersion correction           -0.000271465
FINAL SINGLE POINT ENERGY      -115.731023652730

DIPOLE MOMENT
-------------
                                X             Y             Z
Electronic contribution:     -0.75016      -0.36193      -1.64605
Nuclear contribution   :      0.75888      -0.01156       2.27917
                        -----------------------------------------
Total Dipole Moment    :      0.00872      -0.37349       0.63312
                        -----------------------------------------
Magnitude (a.u.)       :      0.73513
Magnitude (Debye)      :      1.86854

Rotational constants in cm-1:     4.335657     0.777864     0.754627
Rotational constants in MHz : 129979.720189 23319.781867 22623.146635

                             ****ORCA TERMINATED NORMALLY****
TOTAL RUN TIME: 0 days 0 hours 1 minutes 32 seconds 127 msec
