                         Program Version 4.1.2  - RELEASE  -
|  1> #Run DFT-D3 single point of the dimer
|  2> ! wB97X-D3 def2-TZVP TIGHTSCF CHELPG PMODEL PAL8
|  3>
|  4> %base "17-116_DFT_AB"
|  5>
|  6> %scf
|  7> MaxIter 1000
|  8> end
|  9>
| 10> * xyz 0 1
| 11>   C                      -9.469355            -5.034915            5.023516
| 12>   O                      -9.137636            -6.276195            4.482305
| 13>   H                      -8.185798            -6.198072            4.385905
| 14>   H                      -10.343936           -5.070091            5.588574
| 15>   H                      -8.660249            -4.668172            5.713455
| 16>   H                      -9.621374            -4.272023            4.221521
| 17>   C                      -5.627778            -3.957055            4.148896
| 18>   O                      -6.325654            -5.194564            4.234933
| 19>   H                      -5.814133            -5.921400            3.824445
| 20>   H                      -6.307646            -3.150269            3.922174
| 21>   H                      -5.121940            -3.690074            5.074566
| 22>   H                      -4.861529            -3.989166            3.367635
| 23> *
| 24>
| 25> #Run DFT-D3 single point of the molecule with dimer basis set
| 26> $new_job
| 27> %base "17-116_DFT_A"
| 28> ! wB97X-D3 def2-TZVP TIGHTSCF CHELPG PMODEL
| 29>
| 30> %scf
| 31> MaxIter 1000
| 32> end
| 33>
| 34> * xyz 0 1
| 35>   C                      -9.469355            -5.034915            5.023516
| 36>   O                      -9.137636            -6.276195            4.482305
| 37>   H                      -8.185798            -6.198072            4.385905
| 38>   H                      -10.343936           -5.070091            5.588574
| 39>   H                      -8.660249            -4.668172            5.713455
| 40>   H                      -9.621374            -4.272023            4.221521
| 41>   C                    : -5.627778            -3.957055            4.148896
| 42>   O                    : -6.325654            -5.194564            4.234933
| 43>   H                    : -5.814133            -5.921400            3.824445
| 44>   H                    : -6.307646            -3.150269            3.922174
| 45>   H                    : -5.121940            -3.690074            5.074566
| 46>   H                    : -4.861529            -3.989166            3.367635
| 47> *
| 48>
| 49> #Run DFT-D3 single point of the particle with dimer basis set
| 50> $new_job
| 51> %base "17-116_DFT_B"
| 52> ! wB97X-D3 def2-TZVP TIGHTSCF CHELPG PMODEL
| 53>
| 54> %scf
| 55> MaxIter 1000
| 56> end
| 57>
| 58> * xyz 0 1
| 59>   C                    : -9.469355            -5.034915            5.023516
| 60>   O                    : -9.137636            -6.276195            4.482305
| 61>   H                    : -8.185798            -6.198072            4.385905
| 62>   H                    : -10.343936           -5.070091            5.588574
| 63>   H                    : -8.660249            -4.668172            5.713455
| 64>   H                    : -9.621374            -4.272023            4.221521
| 65>   C                      -5.627778            -3.957055            4.148896
| 66>   O                      -6.325654            -5.194564            4.234933
| 67>   H                      -5.814133            -5.921400            3.824445
| 68>   H                      -6.307646            -3.150269            3.922174
| 69>   H                      -5.121940            -3.690074            5.074566
| 70>   H                      -4.861529            -3.989166            3.367635
| 71> *
| 72>
| 73>                          ****END OF INPUT****
 Total Charge           Charge          ....    0
 Multiplicity           Mult            ....    1
 Number of Electrons    NEL             ....   36
Dispersion correction           -0.001932242
FINAL SINGLE POINT ENERGY      -231.475513275732
Dispersion correction           -0.000220572
FINAL SINGLE POINT ENERGY      -115.732507378233

CARTESIAN COORDINATES (ANGSTROEM)
---------------------------------
  C     -9.469355   -5.034915    5.023516
  O     -9.137636   -6.276195    4.482305
  H     -8.185798   -6.198072    4.385905
  H    -10.343936   -5.070091    5.588574
  H     -8.660249   -4.668172    5.713455
  H     -9.621374   -4.272023    4.221521
  C     -5.627778   -3.957055    4.148896
  O     -6.325654   -5.194564    4.234933
  H     -5.814133   -5.921400    3.824445
  H     -6.307646   -3.150269    3.922174
  H     -5.121940   -3.690074    5.074566
  H     -4.861529   -3.989166    3.367635

 Multiplicity           Mult            ....    1
 Number of Electrons    NEL             ....   18
 Basis Dimension        Dim             ....  172

ORBITAL ENERGIES
----------------

  NO   OCC          E(Eh)            E(eV)
   0   2.0000     -19.231223      -523.3082
   1   2.0000     -10.312443      -280.6159
   2   2.0000      -1.127791       -30.6887
   3   2.0000      -0.797843       -21.7104
   4   2.0000      -0.609322       -16.5805
   5   2.0000      -0.537388       -14.6231
   6   2.0000      -0.530931       -14.4474
   7   2.0000      -0.430466       -11.7136
   8   2.0000      -0.373447       -10.1620
   9   0.0000       0.098943         2.6924
  10   0.0000       0.126735         3.4486
  11   0.0000       0.148342         4.0366
  12   0.0000       0.191208         5.2030
  13   0.0000       0.197336         5.3698

MULLIKEN ATOMIC CHARGES
-----------------------
   0 C :    0.007703
   1 O :   -0.000750
   2 H :   -0.010604
   3 H :   -0.000331
   4 H :   -0.004441
   5 H :   -0.001875
   6 C :   -0.156547
   7 O :   -0.479949
   8 H :    0.320369
   9 H :    0.119951
  10 H :    0.104722
  11 H :    0.101752
Sum of atomic charges:    0.0000000

LOEWDIN ATOMIC CHARGES
----------------------
   0 C :   -0.008426
   1 O :   -0.003161
   2 H :   -0.026820
   3 H :   -0.000087
   4 H :   -0.003496
   5 H :   -0.000455
   6 C :   -0.372963
   7 O :   -0.060632
   8 H :    0.180727
   9 H :    0.102298
  10 H :    0.095729
  11 H :    0.097285

  Mayer bond orders larger than 0.1
B(  6-C ,  7-O ) :   0.9996 B(  6-C ,  9-H ) :   0.9776 B(  6-C , 10-H ) :   0.9739
B(  6-C , 11-H ) :   0.9805 B(  7-O ,  8-H ) :   0.8911

Dispersion correction           -0.000257608
FINAL SINGLE POINT ENERGY      -115.735444192568

DIPOLE MOMENT
-------------
                                X             Y             Z
Electronic contribution:     -1.00569      -1.50847       0.17601
Nuclear contribution   :      1.63516       1.55336      -0.49398
                        -----------------------------------------
Total Dipole Moment    :      0.62948       0.04489      -0.31797
                        -----------------------------------------
Magnitude (a.u.)       :      0.70666
Magnitude (Debye)      :      1.79618

Rotational constants in cm-1:     4.382014     0.816615     0.786084
Rotational constants in MHz : 131369.464976 24481.496286 23566.197413

                             ****ORCA TERMINATED NORMALLY****
TOTAL RUN TIME: 0 days 0 hours 1 minutes 5 seconds 291 msec
