                         Program Version 4.1.2  - RELEASE  -
|  1> #Run DFT-D3 single point of the dimer
|  2> ! wB97X-D3 def2-TZVP TIGHTSCF CHELPG PMODEL PAL8
|  3>
|  4> %base "12-128_DFT_AB"
|  5>
|  6> %scf
|  7> MaxIter 1000
|  8> end
|  9>
| 10> * xyz 0 1
| 11>   C                      -0.481099            9.376045             6.559686
| 12>   O                      -1.784589            9.792264             6.733425
| 13>   H                      -1.960106            10.217070            5.901776
| 14>   H                      0.121125             10.172576            6.041656
| 15>   H                      -0.019971            9.083515             7.531341
| 16>   H                      -0.468462            8.544020             5.812568
| 17>   C                      -4.684964            9.543818             5.077523
| 18>   O                      -4.916414            8.767088             6.234499
| 19>   H                      -5.675565            8.157495             5.938927
| 20>   H                      -3.998904            10.359055            5.346054
| 21>   H                      -4.087212            8.875435             4.456311
| 22>   H                      -5.571175            9.865341             4.530724
| 23> *
| 24>
| 25> #Run DFT-D3 single point of the molecule with dimer basis set
| 26> $new_job
| 27> %base "12-128_DFT_A"
| 28> ! wB97X-D3 def2-TZVP TIGHTSCF CHELPG PMODEL
| 29>
| 30> %scf
| 31> MaxIter 1000
| 32> end
| 33>
| 34> * xyz 0 1
| 35>   C                      -0.481099            9.376045             6.559686
| 36>   O                      -1.784589            9.792264             6.733425
| 37>   H                      -1.960106            10.217070            5.901776
| 38>   H                      0.121125             10.172576            6.041656
| 39>   H                      -0.019971            9.083515             7.531341
| 40>   H                      -0.468462            8.544020             5.812568
| 41>   C                    : -4.684964            9.543818             5.077523
| 42>   O                    : -4.916414            8.767088             6.234499
| 43>   H                    : -5.675565            8.157495             5.938927
| 44>   H                    : -3.998904            10.359055            5.346054
| 45>   H                    : -4.087212            8.875435             4.456311
| 46>   H                    : -5.571175            9.865341             4.530724
| 47> *
| 48>
| 49> #Run DFT-D3 single point of the particle with dimer basis set
| 50> $new_job
| 51> %base "12-128_DFT_B"
| 52> ! wB97X-D3 def2-TZVP TIGHTSCF CHELPG PMODEL
| 53>
| 54> %scf
| 55> MaxIter 1000
| 56> end
| 57>
| 58> * xyz 0 1
| 59>   C                    : -0.481099            9.376045             6.559686
| 60>   O                    : -1.784589            9.792264             6.733425
| 61>   H                    : -1.960106            10.217070            5.901776
| 62>   H                    : 0.121125             10.172576            6.041656
| 63>   H                    : -0.019971            9.083515             7.531341
| 64>   H                    : -0.468462            8.544020             5.812568
| 65>   C                      -4.684964            9.543818             5.077523
| 66>   O                      -4.916414            8.767088             6.234499
| 67>   H                      -5.675565            8.157495             5.938927
| 68>   H                      -3.998904            10.359055            5.346054
| 69>   H                      -4.087212            8.875435             4.456311
| 70>   H                      -5.571175            9.865341             4.530724
| 71> *
| 72>
| 73>                          ****END OF INPUT****
 Total Charge           Charge          ....    0
 Multiplicity           Mult            ....    1
 Number of Electrons    NEL             ....   36
Dispersion correction           -0.001593729
FINAL SINGLE POINT ENERGY      -231.457625642167
Dispersion correction           -0.000206102
FINAL SINGLE POINT ENERGY      -115.731549257887

CARTESIAN COORDINATES (ANGSTROEM)
---------------------------------
  C     -0.481099    9.376045    6.559686
  O     -1.784589    9.792264    6.733425
  H     -1.960106   10.217070    5.901776
  H      0.121125   10.172576    6.041656
  H     -0.019971    9.083515    7.531341
  H     -0.468462    8.544020    5.812568
  C     -4.684964    9.543818    5.077523
  O     -4.916414    8.767088    6.234499
  H     -5.675565    8.157495    5.938927
  H     -3.998904   10.359055    5.346054
  H     -4.087212    8.875435    4.456311
  H     -5.571175    9.865341    4.530724

 Multiplicity           Mult            ....    1
 Number of Electrons    NEL             ....   18
 Basis Dimension        Dim             ....  172

ORBITAL ENERGIES
----------------

  NO   OCC          E(Eh)            E(eV)
   0   2.0000     -19.233689      -523.3753
   1   2.0000     -10.311342      -280.5859
   2   2.0000      -1.129663       -30.7397
   3   2.0000      -0.786765       -21.4090
   4   2.0000      -0.605387       -16.4734
   5   2.0000      -0.541525       -14.7357
   6   2.0000      -0.522610       -14.2209
   7   2.0000      -0.441349       -12.0097
   8   2.0000      -0.366251        -9.9662
   9   0.0000       0.090308         2.4574
  10   0.0000       0.110768         3.0141
  11   0.0000       0.154722         4.2102
  12   0.0000       0.179445         4.8830
  13   0.0000       0.188328         5.1247

MULLIKEN ATOMIC CHARGES
-----------------------
   0 C :    0.000106
   1 O :    0.000514
   2 H :   -0.000988
   3 H :   -0.000048
   4 H :    0.000017
   5 H :   -0.000026
   6 C :   -0.181343
   7 O :   -0.467566
   8 H :    0.313184
   9 H :    0.120243
  10 H :    0.104228
  11 H :    0.111678
Sum of atomic charges:    0.0000000

LOEWDIN ATOMIC CHARGES
----------------------
   0 C :   -0.000311
   1 O :   -0.002489
   2 H :   -0.007157
   3 H :   -0.000006
   4 H :   -0.000002
   5 H :   -0.000029
   6 C :   -0.395073
   7 O :   -0.101112
   8 H :    0.202493
   9 H :    0.112553
  10 H :    0.097319
  11 H :    0.093813

  Mayer bond orders larger than 0.1
B(  6-C ,  7-O ) :   0.9926 B(  6-C ,  9-H ) :   0.9717 B(  6-C , 10-H ) :   0.9915
B(  6-C , 11-H ) :   0.9657 B(  7-O ,  8-H ) :   0.8961

Dispersion correction           -0.000217321
FINAL SINGLE POINT ENERGY      -115.728792013594

DIPOLE MOMENT
-------------
                                X             Y             Z
Electronic contribution:     -0.30910      -0.76571       1.56905
Nuclear contribution   :     -0.05408       0.69727      -2.19056
                        -----------------------------------------
Total Dipole Moment    :     -0.36319      -0.06844      -0.62150
                        -----------------------------------------
Magnitude (a.u.)       :      0.72309
Magnitude (Debye)      :      1.83794

Rotational constants in cm-1:     4.090516     0.850012     0.806842
Rotational constants in MHz : 122630.592961 25482.716776 24188.522484

                             ****ORCA TERMINATED NORMALLY****
TOTAL RUN TIME: 0 days 0 hours 1 minutes 1 seconds 715 msec
