                         Program Version 4.1.2  - RELEASE  -
|  1> #Run DFT-D3 single point of the dimer
|  2> ! wB97X-D3 def2-TZVP TIGHTSCF CHELPG PMODEL PAL8
|  3>
|  4> %base "21-10_DFT_AB"
|  5>
|  6> %scf
|  7> MaxIter 1000
|  8> end
|  9>
| 10> * xyz 0 1
| 11>   C                      -6.197209            -10.043977           -7.076087
| 12>   O                      -7.192169            -9.113181            -7.459103
| 13>   H                      -7.983588            -9.380507            -7.088494
| 14>   H                      -6.571320            -11.022002           -7.330227
| 15>   H                      -5.260879            -9.809619            -7.601295
| 16>   H                      -5.787484            -10.013825           -6.086584
| 17>   C                      -4.193454            -11.296787           -3.984335
| 18>   O                      -3.721456            -11.740180           -5.284262
| 19>   H                      -2.770841            -11.555167           -5.343181
| 20>   H                      -3.546336            -11.650999           -3.139602
| 21>   H                      -4.193360            -10.192244           -3.849085
| 22>   H                      -5.156689            -11.711549           -3.758057
| 23> *
| 24>
| 25> #Run DFT-D3 single point of the molecule with dimer basis set
| 26> $new_job
| 27> %base "21-10_DFT_A"
| 28> ! wB97X-D3 def2-TZVP TIGHTSCF CHELPG PMODEL
| 29>
| 30> %scf
| 31> MaxIter 1000
| 32> end
| 33>
| 34> * xyz 0 1
| 35>   C                      -6.197209            -10.043977           -7.076087
| 36>   O                      -7.192169            -9.113181            -7.459103
| 37>   H                      -7.983588            -9.380507            -7.088494
| 38>   H                      -6.571320            -11.022002           -7.330227
| 39>   H                      -5.260879            -9.809619            -7.601295
| 40>   H                      -5.787484            -10.013825           -6.086584
| 41>   C                    : -4.193454            -11.296787           -3.984335
| 42>   O                    : -3.721456            -11.740180           -5.284262
| 43>   H                    : -2.770841            -11.555167           -5.343181
| 44>   H                    : -3.546336            -11.650999           -3.139602
| 45>   H                    : -4.193360            -10.192244           -3.849085
| 46>   H                    : -5.156689            -11.711549           -3.758057
| 47> *
| 48>
| 49> #Run DFT-D3 single point of the particle with dimer basis set
| 50> $new_job
| 51> %base "21-10_DFT_B"
| 52> ! wB97X-D3 def2-TZVP TIGHTSCF CHELPG PMODEL
| 53>
| 54> %scf
| 55> MaxIter 1000
| 56> end
| 57>
| 58> * xyz 0 1
| 59>   C                    : -6.197209            -10.043977           -7.076087
| 60>   O                    : -7.192169            -9.113181            -7.459103
| 61>   H                    : -7.983588            -9.380507            -7.088494
| 62>   H                    : -6.571320            -11.022002           -7.330227
| 63>   H                    : -5.260879            -9.809619            -7.601295
| 64>   H                    : -5.787484            -10.013825           -6.086584
| 65>   C                      -4.193454            -11.296787           -3.984335
| 66>   O                      -3.721456            -11.740180           -5.284262
| 67>   H                      -2.770841            -11.555167           -5.343181
| 68>   H                      -3.546336            -11.650999           -3.139602
| 69>   H                      -4.193360            -10.192244           -3.849085
| 70>   H                      -5.156689            -11.711549           -3.758057
| 71> *
| 72>
| 73>                          ****END OF INPUT****
 Total Charge           Charge          ....    0
 Multiplicity           Mult            ....    1
 Number of Electrons    NEL             ....   36
Dispersion correction           -0.001729969
FINAL SINGLE POINT ENERGY      -231.464417786253
Dispersion correction           -0.000241853
FINAL SINGLE POINT ENERGY      -115.728655429499

CARTESIAN COORDINATES (ANGSTROEM)
---------------------------------
  C     -6.197209  -10.043977   -7.076087
  O     -7.192169   -9.113181   -7.459103
  H     -7.983588   -9.380507   -7.088494
  H     -6.571320  -11.022002   -7.330227
  H     -5.260879   -9.809619   -7.601295
  H     -5.787484  -10.013825   -6.086584
  C     -4.193454  -11.296787   -3.984335
  O     -3.721456  -11.740180   -5.284262
  H     -2.770841  -11.555167   -5.343181
  H     -3.546336  -11.650999   -3.139602
  H     -4.193360  -10.192244   -3.849085
  H     -5.156689  -11.711549   -3.758057

 Multiplicity           Mult            ....    1
 Number of Electrons    NEL             ....   18
 Basis Dimension        Dim             ....  172

ORBITAL ENERGIES
----------------

  NO   OCC          E(Eh)            E(eV)
   0   2.0000     -19.234849      -523.4069
   1   2.0000     -10.319614      -280.8110
   2   2.0000      -1.124274       -30.5931
   3   2.0000      -0.796758       -21.6809
   4   2.0000      -0.605636       -16.4802
   5   2.0000      -0.534426       -14.5425
   6   2.0000      -0.520442       -14.1620
   7   2.0000      -0.438492       -11.9320
   8   2.0000      -0.375471       -10.2171
   9   0.0000       0.094494         2.5713
  10   0.0000       0.120967         3.2917
  11   0.0000       0.145740         3.9658
  12   0.0000       0.180583         4.9139
  13   0.0000       0.192868         5.2482

MULLIKEN ATOMIC CHARGES
-----------------------
   0 C :   -0.000955
   1 O :   -0.000050
   2 H :    0.000007
   3 H :   -0.001424
   4 H :   -0.003232
   5 H :    0.005223
   6 C :   -0.190277
   7 O :   -0.475765
   8 H :    0.315487
   9 H :    0.112828
  10 H :    0.111294
  11 H :    0.126865
Sum of atomic charges:   -0.0000000

LOEWDIN ATOMIC CHARGES
----------------------
   0 C :   -0.006903
   1 O :   -0.000027
   2 H :   -0.000014
   3 H :   -0.000448
   4 H :   -0.001438
   5 H :   -0.004080
   6 C :   -0.366718
   7 O :   -0.097457
   8 H :    0.172443
   9 H :    0.101428
  10 H :    0.099193
  11 H :    0.104022

  Mayer bond orders larger than 0.1
B(  6-C ,  7-O ) :   0.9938 B(  6-C ,  9-H ) :   0.9705 B(  6-C , 10-H ) :   0.9713
B(  6-C , 11-H ) :   0.9751 B(  7-O ,  8-H ) :   0.8973

Dispersion correction           -0.000276715
FINAL SINGLE POINT ENERGY      -115.733682937486

DIPOLE MOMENT
-------------
                                X             Y             Z
Electronic contribution:      0.38145      -0.61312      -1.78180
Nuclear contribution   :      0.02610       0.89080       2.30108
                        -----------------------------------------
Total Dipole Moment    :      0.40755       0.27769       0.51928
                        -----------------------------------------
Magnitude (a.u.)       :      0.71614
Magnitude (Debye)      :      1.82029

Rotational constants in cm-1:     4.315719     0.785221     0.757824
Rotational constants in MHz : 129382.001862 23540.319374 22719.003808

                             ****ORCA TERMINATED NORMALLY****
TOTAL RUN TIME: 0 days 0 hours 0 minutes 55 seconds 608 msec
