                         Program Version 4.1.2  - RELEASE  -
|  1> #Run DFT-D3 single point of the dimer
|  2> ! wB97X-D3 def2-TZVP TIGHTSCF CHELPG PMODEL PAL8
|  3>
|  4> %base "9-109_DFT_AB"
|  5>
|  6> %scf
|  7> MaxIter 1000
|  8> end
|  9>
| 10> * xyz 0 1
| 11>   C                      -5.982742            -6.095501            1.316982
| 12>   O                      -6.760569            -4.916011            1.577320
| 13>   H                      -6.135223            -4.206989            1.780978
| 14>   H                      -5.438071            -6.346295            2.215708
| 15>   H                      -6.528076            -6.986041            1.068226
| 16>   H                      -5.230619            -5.928635            0.561390
| 17>   C                      -4.128590            -1.843765            1.724450
| 18>   O                      -5.434455            -2.257634            1.790054
| 19>   H                      -5.983453            -1.607229            1.349417
| 20>   H                      -3.976567            -0.840677            2.180190
| 21>   H                      -3.509313            -2.598963            2.167333
| 22>   H                      -3.743851            -1.804597            0.667647
| 23> *
| 24>
| 25> #Run DFT-D3 single point of the molecule with dimer basis set
| 26> $new_job
| 27> %base "9-109_DFT_A"
| 28> ! wB97X-D3 def2-TZVP TIGHTSCF CHELPG PMODEL
| 29>
| 30> %scf
| 31> MaxIter 1000
| 32> end
| 33>
| 34> * xyz 0 1
| 35>   C                      -5.982742            -6.095501            1.316982
| 36>   O                      -6.760569            -4.916011            1.577320
| 37>   H                      -6.135223            -4.206989            1.780978
| 38>   H                      -5.438071            -6.346295            2.215708
| 39>   H                      -6.528076            -6.986041            1.068226
| 40>   H                      -5.230619            -5.928635            0.561390
| 41>   C                    : -4.128590            -1.843765            1.724450
| 42>   O                    : -5.434455            -2.257634            1.790054
| 43>   H                    : -5.983453            -1.607229            1.349417
| 44>   H                    : -3.976567            -0.840677            2.180190
| 45>   H                    : -3.509313            -2.598963            2.167333
| 46>   H                    : -3.743851            -1.804597            0.667647
| 47> *
| 48>
| 49> #Run DFT-D3 single point of the particle with dimer basis set
| 50> $new_job
| 51> %base "9-109_DFT_B"
| 52> ! wB97X-D3 def2-TZVP TIGHTSCF CHELPG PMODEL
| 53>
| 54> %scf
| 55> MaxIter 1000
| 56> end
| 57>
| 58> * xyz 0 1
| 59>   C                    : -5.982742            -6.095501            1.316982
| 60>   O                    : -6.760569            -4.916011            1.577320
| 61>   H                    : -6.135223            -4.206989            1.780978
| 62>   H                    : -5.438071            -6.346295            2.215708
| 63>   H                    : -6.528076            -6.986041            1.068226
| 64>   H                    : -5.230619            -5.928635            0.561390
| 65>   C                      -4.128590            -1.843765            1.724450
| 66>   O                      -5.434455            -2.257634            1.790054
| 67>   H                      -5.983453            -1.607229            1.349417
| 68>   H                      -3.976567            -0.840677            2.180190
| 69>   H                      -3.509313            -2.598963            2.167333
| 70>   H                      -3.743851            -1.804597            0.667647
| 71> *
| 72>
| 73>                          ****END OF INPUT****
 Total Charge           Charge          ....    0
 Multiplicity           Mult            ....    1
 Number of Electrons    NEL             ....   36
Dispersion correction           -0.001509107
FINAL SINGLE POINT ENERGY      -231.475655407561
Dispersion correction           -0.000237401
FINAL SINGLE POINT ENERGY      -115.733213774874

CARTESIAN COORDINATES (ANGSTROEM)
---------------------------------
  C     -5.982742   -6.095501    1.316982
  O     -6.760569   -4.916011    1.577320
  H     -6.135223   -4.206989    1.780978
  H     -5.438071   -6.346295    2.215708
  H     -6.528076   -6.986041    1.068226
  H     -5.230619   -5.928635    0.561390
  C     -4.128590   -1.843765    1.724450
  O     -5.434455   -2.257634    1.790054
  H     -5.983453   -1.607229    1.349417
  H     -3.976567   -0.840677    2.180190
  H     -3.509313   -2.598963    2.167333
  H     -3.743851   -1.804597    0.667647

 Multiplicity           Mult            ....    1
 Number of Electrons    NEL             ....   18
 Basis Dimension        Dim             ....  172

ORBITAL ENERGIES
----------------

  NO   OCC          E(Eh)            E(eV)
   0   2.0000     -19.231663      -523.3201
   1   2.0000     -10.312265      -280.6110
   2   2.0000      -1.151426       -31.3319
   3   2.0000      -0.793466       -21.5913
   4   2.0000      -0.618701       -16.8357
   5   2.0000      -0.547582       -14.9005
   6   2.0000      -0.531359       -14.4590
   7   2.0000      -0.431729       -11.7479
   8   2.0000      -0.370941       -10.0938
   9   0.0000       0.096581         2.6281
  10   0.0000       0.121514         3.3066
  11   0.0000       0.154780         4.2118
  12   0.0000       0.189961         5.1691
  13   0.0000       0.199689         5.4338

MULLIKEN ATOMIC CHARGES
-----------------------
   0 C :   -0.000170
   1 O :   -0.000508
   2 H :   -0.008482
   3 H :   -0.000066
   4 H :   -0.000094
   5 H :   -0.000332
   6 C :   -0.150279
   7 O :   -0.460895
   8 H :    0.315217
   9 H :    0.096085
  10 H :    0.121179
  11 H :    0.088345
Sum of atomic charges:   -0.0000000

LOEWDIN ATOMIC CHARGES
----------------------
   0 C :   -0.000977
   1 O :   -0.004610
   2 H :   -0.033100
   3 H :   -0.000017
   4 H :   -0.000019
   5 H :   -0.000156
   6 C :   -0.420067
   7 O :   -0.011766
   8 H :    0.172152
   9 H :    0.097346
  10 H :    0.105127
  11 H :    0.096086

  Mayer bond orders larger than 0.1
B(  6-C ,  7-O ) :   0.9957 B(  6-C ,  9-H ) :   0.9708 B(  6-C , 10-H ) :   0.9763
B(  6-C , 11-H ) :   0.9746 B(  7-O ,  8-H ) :   0.8952

Dispersion correction           -0.000228498
FINAL SINGLE POINT ENERGY      -115.735176952915

DIPOLE MOMENT
-------------
                                X             Y             Z
Electronic contribution:     -1.72902      -0.64997       0.26281
Nuclear contribution   :      1.86443       1.20160      -0.55949
                        -----------------------------------------
Total Dipole Moment    :      0.13541       0.55163      -0.29669
                        -----------------------------------------
Magnitude (a.u.)       :      0.64083
Magnitude (Debye)      :      1.62885

Rotational constants in cm-1:     4.258507     0.869435     0.839259
Rotational constants in MHz : 127666.818338 26064.991745 25160.360997

                             ****ORCA TERMINATED NORMALLY****
TOTAL RUN TIME: 0 days 0 hours 0 minutes 41 seconds 906 msec
