                         Program Version 4.1.2  - RELEASE  -
|  1> #Run DFT-D3 single point of the dimer
|  2> ! wB97X-D3 def2-TZVP TIGHTSCF CHELPG PMODEL PAL8
|  3>
|  4> %base "15-212_DFT_AB"
|  5>
|  6> %scf
|  7> MaxIter 1000
|  8> end
|  9>
| 10> * xyz 0 1
| 11>   C                      6.913188             -7.788106            -6.328977
| 12>   O                      7.567748             -8.375362            -7.417592
| 13>   H                      8.466793             -8.087374            -7.358953
| 14>   H                      7.397767             -7.850017            -5.414546
| 15>   H                      6.902362             -6.729943            -6.498835
| 16>   H                      5.842008             -7.955104            -6.299766
| 17>   C                      10.222651            -6.865187            -9.434324
| 18>   O                      10.338440            -7.570229            -8.272993
| 19>   H                      11.199313            -8.019206            -8.337695
| 20>   H                      11.219913            -6.901676            -9.961368
| 21>   H                      9.505957             -7.287844            -10.153554
| 22>   H                      9.995374             -5.800123            -9.295569
| 23> *
| 24>
| 25> #Run DFT-D3 single point of the molecule with dimer basis set
| 26> $new_job
| 27> %base "15-212_DFT_A"
| 28> ! wB97X-D3 def2-TZVP TIGHTSCF CHELPG PMODEL
| 29>
| 30> %scf
| 31> MaxIter 1000
| 32> end
| 33>
| 34> * xyz 0 1
| 35>   C                      6.913188             -7.788106            -6.328977
| 36>   O                      7.567748             -8.375362            -7.417592
| 37>   H                      8.466793             -8.087374            -7.358953
| 38>   H                      7.397767             -7.850017            -5.414546
| 39>   H                      6.902362             -6.729943            -6.498835
| 40>   H                      5.842008             -7.955104            -6.299766
| 41>   C                    : 10.222651            -6.865187            -9.434324
| 42>   O                    : 10.338440            -7.570229            -8.272993
| 43>   H                    : 11.199313            -8.019206            -8.337695
| 44>   H                    : 11.219913            -6.901676            -9.961368
| 45>   H                    : 9.505957             -7.287844            -10.153554
| 46>   H                    : 9.995374             -5.800123            -9.295569
| 47> *
| 48>
| 49> #Run DFT-D3 single point of the particle with dimer basis set
| 50> $new_job
| 51> %base "15-212_DFT_B"
| 52> ! wB97X-D3 def2-TZVP TIGHTSCF CHELPG PMODEL
| 53>
| 54> %scf
| 55> MaxIter 1000
| 56> end
| 57>
| 58> * xyz 0 1
| 59>   C                    : 6.913188             -7.788106            -6.328977
| 60>   O                    : 7.567748             -8.375362            -7.417592
| 61>   H                    : 8.466793             -8.087374            -7.358953
| 62>   H                    : 7.397767             -7.850017            -5.414546
| 63>   H                    : 6.902362             -6.729943            -6.498835
| 64>   H                    : 5.842008             -7.955104            -6.299766
| 65>   C                      10.222651            -6.865187            -9.434324
| 66>   O                      10.338440            -7.570229            -8.272993
| 67>   H                      11.199313            -8.019206            -8.337695
| 68>   H                      11.219913            -6.901676            -9.961368
| 69>   H                      9.505957             -7.287844            -10.153554
| 70>   H                      9.995374             -5.800123            -9.295569
| 71> *
| 72>
| 73>                          ****END OF INPUT****
 Total Charge           Charge          ....    0
 Multiplicity           Mult            ....    1
 Number of Electrons    NEL             ....   36
Dispersion correction           -0.001519599
FINAL SINGLE POINT ENERGY      -231.464730745198
Dispersion correction           -0.000212600
FINAL SINGLE POINT ENERGY      -115.726715408124

CARTESIAN COORDINATES (ANGSTROEM)
---------------------------------
  C      6.913188   -7.788106   -6.328977
  O      7.567748   -8.375362   -7.417592
  H      8.466793   -8.087374   -7.358953
  H      7.397767   -7.850017   -5.414546
  H      6.902362   -6.729943   -6.498835
  H      5.842008   -7.955104   -6.299766
  C     10.222651   -6.865187   -9.434324
  O     10.338440   -7.570229   -8.272993
  H     11.199313   -8.019206   -8.337695
  H     11.219913   -6.901676   -9.961368
  H      9.505957   -7.287844  -10.153554
  H      9.995374   -5.800123   -9.295569

 Multiplicity           Mult            ....    1
 Number of Electrons    NEL             ....   18
 Basis Dimension        Dim             ....  172

ORBITAL ENERGIES
----------------

  NO   OCC          E(Eh)            E(eV)
   0   2.0000     -19.234072      -523.3857
   1   2.0000     -10.314038      -280.6592
   2   2.0000      -1.154864       -31.4254
   3   2.0000      -0.787678       -21.4338
   4   2.0000      -0.621149       -16.9023
   5   2.0000      -0.546655       -14.8752
   6   2.0000      -0.537147       -14.6165
   7   2.0000      -0.424980       -11.5643
   8   2.0000      -0.373621       -10.1667
   9   0.0000       0.095628         2.6022
  10   0.0000       0.114102         3.1049
  11   0.0000       0.154203         4.1961
  12   0.0000       0.186366         5.0713
  13   0.0000       0.199063         5.4168

MULLIKEN ATOMIC CHARGES
-----------------------
   0 C :    0.000160
   1 O :   -0.000778
   2 H :   -0.007215
   3 H :   -0.000114
   4 H :   -0.000118
   5 H :   -0.000048
   6 C :   -0.165638
   7 O :   -0.450335
   8 H :    0.322498
   9 H :    0.088664
  10 H :    0.103232
  11 H :    0.109692
Sum of atomic charges:   -0.0000000

LOEWDIN ATOMIC CHARGES
----------------------
   0 C :   -0.000689
   1 O :   -0.003457
   2 H :   -0.026870
   3 H :   -0.000036
   4 H :   -0.000035
   5 H :   -0.000010
   6 C :   -0.431880
   7 O :   -0.021180
   8 H :    0.186876
   9 H :    0.101433
  10 H :    0.095807
  11 H :    0.100041

  Mayer bond orders larger than 0.1
B(  6-C ,  7-O ) :   1.0065 B(  6-C ,  9-H ) :   0.9910 B(  6-C , 10-H ) :   0.9724
B(  6-C , 11-H ) :   0.9725 B(  7-O ,  8-H ) :   0.8945

Dispersion correction           -0.000229023
FINAL SINGLE POINT ENERGY      -115.730924515122

DIPOLE MOMENT
-------------
                                X             Y             Z
Electronic contribution:     -0.09443      -0.90214       1.72432
Nuclear contribution   :      0.62810       0.86662      -2.17640
                        -----------------------------------------
Total Dipole Moment    :      0.53367      -0.03552      -0.45208
                        -----------------------------------------
Magnitude (a.u.)       :      0.70032
Magnitude (Debye)      :      1.78007

Rotational constants in cm-1:     4.220493     0.878196     0.843507
Rotational constants in MHz : 126527.211243 26327.664011 25287.698892

                             ****ORCA TERMINATED NORMALLY****
TOTAL RUN TIME: 0 days 0 hours 1 minutes 5 seconds 751 msec
