                         Program Version 4.1.2  - RELEASE  -
|  1> #Run DFT-D3 single point of the dimer
|  2> ! wB97X-D3 def2-TZVP TIGHTSCF CHELPG PMODEL PAL8
|  3>
|  4> %base "19-219_DFT_AB"
|  5>
|  6> %scf
|  7> MaxIter 1000
|  8> end
|  9>
| 10> * xyz 0 1
| 11>   C                      -4.820240            -6.867480            7.732437
| 12>   O                      -3.651096            -7.047806            6.967407
| 13>   H                      -2.892290            -6.756424            7.484280
| 14>   H                      -5.073807            -7.703325            8.381583
| 15>   H                      -4.832445            -5.895153            8.276370
| 16>   H                      -5.724504            -6.692857            7.115147
| 17>   C                      -0.689859            -6.045129            10.141040
| 18>   O                      -1.623886            -6.700733            9.380281
| 19>   H                      -1.112781            -7.355313            8.860090
| 20>   H                      0.213045             -6.562357            10.054029
| 21>   H                      -0.605332            -4.968874            9.947013
| 22>   H                      -0.933497            -6.123105            11.212937
| 23> *
| 24>
| 25> #Run DFT-D3 single point of the molecule with dimer basis set
| 26> $new_job
| 27> %base "19-219_DFT_A"
| 28> ! wB97X-D3 def2-TZVP TIGHTSCF CHELPG PMODEL
| 29>
| 30> %scf
| 31> MaxIter 1000
| 32> end
| 33>
| 34> * xyz 0 1
| 35>   C                      -4.820240            -6.867480            7.732437
| 36>   O                      -3.651096            -7.047806            6.967407
| 37>   H                      -2.892290            -6.756424            7.484280
| 38>   H                      -5.073807            -7.703325            8.381583
| 39>   H                      -4.832445            -5.895153            8.276370
| 40>   H                      -5.724504            -6.692857            7.115147
| 41>   C                    : -0.689859            -6.045129            10.141040
| 42>   O                    : -1.623886            -6.700733            9.380281
| 43>   H                    : -1.112781            -7.355313            8.860090
| 44>   H                    : 0.213045             -6.562357            10.054029
| 45>   H                    : -0.605332            -4.968874            9.947013
| 46>   H                    : -0.933497            -6.123105            11.212937
| 47> *
| 48>
| 49> #Run DFT-D3 single point of the particle with dimer basis set
| 50> $new_job
| 51> %base "19-219_DFT_B"
| 52> ! wB97X-D3 def2-TZVP TIGHTSCF CHELPG PMODEL
| 53>
| 54> %scf
| 55> MaxIter 1000
| 56> end
| 57>
| 58> * xyz 0 1
| 59>   C                    : -4.820240            -6.867480            7.732437
| 60>   O                    : -3.651096            -7.047806            6.967407
| 61>   H                    : -2.892290            -6.756424            7.484280
| 62>   H                    : -5.073807            -7.703325            8.381583
| 63>   H                    : -4.832445            -5.895153            8.276370
| 64>   H                    : -5.724504            -6.692857            7.115147
| 65>   C                      -0.689859            -6.045129            10.141040
| 66>   O                      -1.623886            -6.700733            9.380281
| 67>   H                      -1.112781            -7.355313            8.860090
| 68>   H                      0.213045             -6.562357            10.054029
| 69>   H                      -0.605332            -4.968874            9.947013
| 70>   H                      -0.933497            -6.123105            11.212937
| 71> *
| 72>
| 73>                          ****END OF INPUT****
 Total Charge           Charge          ....    0
 Multiplicity           Mult            ....    1
 Number of Electrons    NEL             ....   36
Dispersion correction           -0.001496550
FINAL SINGLE POINT ENERGY      -231.467829486633
Dispersion correction           -0.000263160
FINAL SINGLE POINT ENERGY      -115.733149414022

CARTESIAN COORDINATES (ANGSTROEM)
---------------------------------
  C     -4.820240   -6.867480    7.732437
  O     -3.651096   -7.047806    6.967407
  H     -2.892290   -6.756424    7.484280
  H     -5.073807   -7.703325    8.381583
  H     -4.832445   -5.895153    8.276370
  H     -5.724504   -6.692857    7.115147
  C     -0.689859   -6.045129   10.141040
  O     -1.623886   -6.700733    9.380281
  H     -1.112781   -7.355313    8.860090
  H      0.213045   -6.562357   10.054029
  H     -0.605332   -4.968874    9.947013
  H     -0.933497   -6.123105   11.212937

 Multiplicity           Mult            ....    1
 Number of Electrons    NEL             ....   18
 Basis Dimension        Dim             ....  172

ORBITAL ENERGIES
----------------

  NO   OCC          E(Eh)            E(eV)
   0   2.0000     -19.232864      -523.3528
   1   2.0000     -10.304721      -280.4057
   2   2.0000      -1.149979       -31.2925
   3   2.0000      -0.793237       -21.5851
   4   2.0000      -0.622738       -16.9456
   5   2.0000      -0.547028       -14.8854
   6   2.0000      -0.535374       -14.5683
   7   2.0000      -0.432922       -11.7804
   8   2.0000      -0.370247       -10.0749
   9   0.0000       0.096040         2.6134
  10   0.0000       0.118970         3.2373
  11   0.0000       0.156125         4.2484
  12   0.0000       0.187546         5.1034
  13   0.0000       0.200139         5.4461

MULLIKEN ATOMIC CHARGES
-----------------------
   0 C :    0.003180
   1 O :    0.002053
   2 H :   -0.016157
   3 H :   -0.000767
   4 H :   -0.001983
   5 H :   -0.000201
   6 C :   -0.162880
   7 O :   -0.445884
   8 H :    0.321210
   9 H :    0.099101
  10 H :    0.103227
  11 H :    0.099101
Sum of atomic charges:   -0.0000000

LOEWDIN ATOMIC CHARGES
----------------------
   0 C :   -0.004216
   1 O :   -0.001679
   2 H :   -0.020211
   3 H :   -0.000314
   4 H :   -0.000737
   5 H :   -0.000054
   6 C :   -0.416733
   7 O :   -0.034172
   8 H :    0.191178
   9 H :    0.086942
  10 H :    0.098501
  11 H :    0.101495

  Mayer bond orders larger than 0.1
B(  6-C ,  7-O ) :   1.0209 B(  6-C ,  9-H ) :   0.9932 B(  6-C , 10-H ) :   0.9743
B(  6-C , 11-H ) :   0.9758 B(  7-O ,  8-H ) :   0.8945

Dispersion correction           -0.000222802
FINAL SINGLE POINT ENERGY      -115.729460025234

DIPOLE MOMENT
-------------
                                X             Y             Z
Electronic contribution:     -1.30762      -0.74847      -1.05563
Nuclear contribution   :      2.00625       0.54400       1.01815
                        -----------------------------------------
Total Dipole Moment    :      0.69862      -0.20447      -0.03748
                        -----------------------------------------
Magnitude (a.u.)       :      0.72889
Magnitude (Debye)      :      1.85270

Rotational constants in cm-1:     4.360288     0.878391     0.844089
Rotational constants in MHz : 130718.138852 26333.502091 25305.163664

                             ****ORCA TERMINATED NORMALLY****
TOTAL RUN TIME: 0 days 0 hours 0 minutes 49 seconds 465 msec
