                         Program Version 4.1.2  - RELEASE  -
|  1> #Run DFT-D3 single point of the dimer
|  2> ! wB97X-D3 def2-TZVP TIGHTSCF CHELPG PMODEL PAL8
|  3>
|  4> %base "22-120_DFT_AB"
|  5>
|  6> %scf
|  7> MaxIter 1000
|  8> end
|  9>
| 10> * xyz 0 1
| 11>   C                      11.131593            -7.344835            -2.963129
| 12>   O                      11.372094            -8.689135            -3.112150
| 13>   H                      11.419656            -9.113296            -2.276006
| 14>   H                      11.439993            -6.752302            -3.807982
| 15>   H                      10.118018            -7.126478            -2.706469
| 16>   H                      11.730790            -6.856825            -2.190263
| 17>   C                      7.695051             -7.276950            0.412980
| 18>   O                      8.970194             -6.688546            0.221901
| 19>   H                      8.750554             -5.892536            -0.340025
| 20>   H                      7.752044             -8.187793            1.079230
| 21>   H                      6.997280             -6.546783            0.831304
| 22>   H                      7.280716             -7.647085            -0.589028
| 23> *
| 24>
| 25> #Run DFT-D3 single point of the molecule with dimer basis set
| 26> $new_job
| 27> %base "22-120_DFT_A"
| 28> ! wB97X-D3 def2-TZVP TIGHTSCF CHELPG PMODEL
| 29>
| 30> %scf
| 31> MaxIter 1000
| 32> end
| 33>
| 34> * xyz 0 1
| 35>   C                      11.131593            -7.344835            -2.963129
| 36>   O                      11.372094            -8.689135            -3.112150
| 37>   H                      11.419656            -9.113296            -2.276006
| 38>   H                      11.439993            -6.752302            -3.807982
| 39>   H                      10.118018            -7.126478            -2.706469
| 40>   H                      11.730790            -6.856825            -2.190263
| 41>   C                    : 7.695051             -7.276950            0.412980
| 42>   O                    : 8.970194             -6.688546            0.221901
| 43>   H                    : 8.750554             -5.892536            -0.340025
| 44>   H                    : 7.752044             -8.187793            1.079230
| 45>   H                    : 6.997280             -6.546783            0.831304
| 46>   H                    : 7.280716             -7.647085            -0.589028
| 47> *
| 48>
| 49> #Run DFT-D3 single point of the particle with dimer basis set
| 50> $new_job
| 51> %base "22-120_DFT_B"
| 52> ! wB97X-D3 def2-TZVP TIGHTSCF CHELPG PMODEL
| 53>
| 54> %scf
| 55> MaxIter 1000
| 56> end
| 57>
| 58> * xyz 0 1
| 59>   C                    : 11.131593            -7.344835            -2.963129
| 60>   O                    : 11.372094            -8.689135            -3.112150
| 61>   H                    : 11.419656            -9.113296            -2.276006
| 62>   H                    : 11.439993            -6.752302            -3.807982
| 63>   H                    : 10.118018            -7.126478            -2.706469
| 64>   H                    : 11.730790            -6.856825            -2.190263
| 65>   C                      7.695051             -7.276950            0.412980
| 66>   O                      8.970194             -6.688546            0.221901
| 67>   H                      8.750554             -5.892536            -0.340025
| 68>   H                      7.752044             -8.187793            1.079230
| 69>   H                      6.997280             -6.546783            0.831304
| 70>   H                      7.280716             -7.647085            -0.589028
| 71> *
| 72>
| 73>                          ****END OF INPUT****
 Total Charge           Charge          ....    0
 Multiplicity           Mult            ....    1
 Number of Electrons    NEL             ....   36
Dispersion correction           -0.001247630
FINAL SINGLE POINT ENERGY      -231.466330981956
Dispersion correction           -0.000233463
FINAL SINGLE POINT ENERGY      -115.732446286109

CARTESIAN COORDINATES (ANGSTROEM)
---------------------------------
  C     11.131593   -7.344835   -2.963129
  O     11.372094   -8.689135   -3.112150
  H     11.419656   -9.113296   -2.276006
  H     11.439993   -6.752302   -3.807982
  H     10.118018   -7.126478   -2.706469
  H     11.730790   -6.856825   -2.190263
  C      7.695051   -7.276950    0.412980
  O      8.970194   -6.688546    0.221901
  H      8.750554   -5.892536   -0.340025
  H      7.752044   -8.187793    1.079230
  H      6.997280   -6.546783    0.831304
  H      7.280716   -7.647085   -0.589028

 Multiplicity           Mult            ....    1
 Number of Electrons    NEL             ....   18
 Basis Dimension        Dim             ....  172

ORBITAL ENERGIES
----------------

  NO   OCC          E(Eh)            E(eV)
   0   2.0000     -19.237267      -523.4726
   1   2.0000     -10.323231      -280.9094
   2   2.0000      -1.133753       -30.8510
   3   2.0000      -0.783213       -21.3123
   4   2.0000      -0.604665       -16.4538
   5   2.0000      -0.539510       -14.6808
   6   2.0000      -0.523936       -14.2570
   7   2.0000      -0.437201       -11.8969
   8   2.0000      -0.372374       -10.1328
   9   0.0000       0.087390         2.3780
  10   0.0000       0.118750         3.2314
  11   0.0000       0.149866         4.0780
  12   0.0000       0.171649         4.6708
  13   0.0000       0.186363         5.0712

MULLIKEN ATOMIC CHARGES
-----------------------
   0 C :    0.003961
   1 O :    0.000040
   2 H :   -0.000339
   3 H :   -0.000393
   4 H :   -0.008519
   5 H :   -0.000878
   6 C :   -0.179747
   7 O :   -0.458596
   8 H :    0.318162
   9 H :    0.119890
  10 H :    0.110940
  11 H :    0.095479
Sum of atomic charges:    0.0000000

LOEWDIN ATOMIC CHARGES
----------------------
   0 C :   -0.003079
   1 O :   -0.000015
   2 H :   -0.000109
   3 H :   -0.000044
   4 H :   -0.003221
   5 H :   -0.000518
   6 C :   -0.402293
   7 O :   -0.092456
   8 H :    0.194994
   9 H :    0.113848
  10 H :    0.093003
  11 H :    0.099893

  Mayer bond orders larger than 0.1
B(  6-C ,  7-O ) :   1.0002 B(  6-C ,  9-H ) :   0.9709 B(  6-C , 10-H ) :   0.9747
B(  6-C , 11-H ) :   0.9744 B(  7-O ,  8-H ) :   0.8941

Dispersion correction           -0.000234731
FINAL SINGLE POINT ENERGY      -115.732374447438

DIPOLE MOMENT
-------------
                                X             Y             Z
Electronic contribution:      1.75851       0.67832      -0.04493
Nuclear contribution   :     -2.37957      -0.41491      -0.19290
                        -----------------------------------------
Total Dipole Moment    :     -0.62106       0.26340      -0.23784
                        -----------------------------------------
Magnitude (a.u.)       :      0.71530
Magnitude (Debye)      :      1.81816

Rotational constants in cm-1:     3.998583     0.829405     0.795011
Rotational constants in MHz : 119874.495559 24864.945019 23833.825273

                             ****ORCA TERMINATED NORMALLY****
TOTAL RUN TIME: 0 days 0 hours 1 minutes 4 seconds 517 msec
