                         Program Version 4.1.2  - RELEASE  -
|  1> #Run DFT-D3 single point of the dimer
|  2> ! wB97X-D3 def2-TZVP TIGHTSCF CHELPG PMODEL PAL8
|  3>
|  4> %base "10-183_DFT_AB"
|  5>
|  6> %scf
|  7> MaxIter 1000
|  8> end
|  9>
| 10> * xyz 0 1
| 11>   C                      2.328037             10.892731            6.185407
| 12>   O                      2.678269             9.693648             5.646828
| 13>   H                      1.846243             9.308163             5.241861
| 14>   H                      1.585576             11.379641            5.666090
| 15>   H                      1.858622             10.737902            7.176985
| 16>   H                      3.200346             11.592831            6.302166
| 17>   C                      1.311991             8.258281             3.248429
| 18>   O                      0.436384             8.338334             4.328784
| 19>   H                      -0.298761            8.938756             4.145385
| 20>   H                      2.209316             7.776873             3.545253
| 21>   H                      0.941491             7.711517             2.293017
| 22>   H                      1.692251             9.258311             2.986769
| 23> *
| 24>
| 25> #Run DFT-D3 single point of the molecule with dimer basis set
| 26> $new_job
| 27> %base "10-183_DFT_A"
| 28> ! wB97X-D3 def2-TZVP TIGHTSCF CHELPG PMODEL
| 29>
| 30> %scf
| 31> MaxIter 1000
| 32> end
| 33>
| 34> * xyz 0 1
| 35>   C                      2.328037             10.892731            6.185407
| 36>   O                      2.678269             9.693648             5.646828
| 37>   H                      1.846243             9.308163             5.241861
| 38>   H                      1.585576             11.379641            5.666090
| 39>   H                      1.858622             10.737902            7.176985
| 40>   H                      3.200346             11.592831            6.302166
| 41>   C                    : 1.311991             8.258281             3.248429
| 42>   O                    : 0.436384             8.338334             4.328784
| 43>   H                    : -0.298761            8.938756             4.145385
| 44>   H                    : 2.209316             7.776873             3.545253
| 45>   H                    : 0.941491             7.711517             2.293017
| 46>   H                    : 1.692251             9.258311             2.986769
| 47> *
| 48>
| 49> #Run DFT-D3 single point of the particle with dimer basis set
| 50> $new_job
| 51> %base "10-183_DFT_B"
| 52> ! wB97X-D3 def2-TZVP TIGHTSCF CHELPG PMODEL
| 53>
| 54> %scf
| 55> MaxIter 1000
| 56> end
| 57>
| 58> * xyz 0 1
| 59>   C                    : 2.328037             10.892731            6.185407
| 60>   O                    : 2.678269             9.693648             5.646828
| 61>   H                    : 1.846243             9.308163             5.241861
| 62>   H                    : 1.585576             11.379641            5.666090
| 63>   H                    : 1.858622             10.737902            7.176985
| 64>   H                    : 3.200346             11.592831            6.302166
| 65>   C                      1.311991             8.258281             3.248429
| 66>   O                      0.436384             8.338334             4.328784
| 67>   H                      -0.298761            8.938756             4.145385
| 68>   H                      2.209316             7.776873             3.545253
| 69>   H                      0.941491             7.711517             2.293017
| 70>   H                      1.692251             9.258311             2.986769
| 71> *
| 72>
| 73>                          ****END OF INPUT****
 Total Charge           Charge          ....    0
 Multiplicity           Mult            ....    1
 Number of Electrons    NEL             ....   36
Dispersion correction           -0.001980591
FINAL SINGLE POINT ENERGY      -231.467334130915
Dispersion correction           -0.000215377
FINAL SINGLE POINT ENERGY      -115.728061598800

CARTESIAN COORDINATES (ANGSTROEM)
---------------------------------
  C      2.328037   10.892731    6.185407
  O      2.678269    9.693648    5.646828
  H      1.846243    9.308163    5.241861
  H      1.585576   11.379641    5.666090
  H      1.858622   10.737902    7.176985
  H      3.200346   11.592831    6.302166
  C      1.311991    8.258281    3.248429
  O      0.436384    8.338334    4.328784
  H     -0.298761    8.938756    4.145385
  H      2.209316    7.776873    3.545253
  H      0.941491    7.711517    2.293017
  H      1.692251    9.258311    2.986769

 Multiplicity           Mult            ....    1
 Number of Electrons    NEL             ....   18
 Basis Dimension        Dim             ....  172

ORBITAL ENERGIES
----------------

  NO   OCC          E(Eh)            E(eV)
   0   2.0000     -19.234324      -523.3926
   1   2.0000     -10.315500      -280.6990
   2   2.0000      -1.141590       -31.0643
   3   2.0000      -0.796282       -21.6679
   4   2.0000      -0.613425       -16.6921
   5   2.0000      -0.539315       -14.6755
   6   2.0000      -0.532948       -14.5023
   7   2.0000      -0.425715       -11.5843
   8   2.0000      -0.375061       -10.2059
   9   0.0000       0.089397         2.4326
  10   0.0000       0.128654         3.5009
  11   0.0000       0.146453         3.9852
  12   0.0000       0.186713         5.0807
  13   0.0000       0.192139         5.2284

MULLIKEN ATOMIC CHARGES
-----------------------
   0 C :   -0.002532
   1 O :   -0.001576
   2 H :    0.004895
   3 H :   -0.001578
   4 H :   -0.000001
   5 H :   -0.000276
   6 C :   -0.166501
   7 O :   -0.479288
   8 H :    0.321647
   9 H :    0.121518
  10 H :    0.104754
  11 H :    0.098937
Sum of atomic charges:    0.0000000

LOEWDIN ATOMIC CHARGES
----------------------
   0 C :   -0.002836
   1 O :   -0.004945
   2 H :   -0.040588
   3 H :   -0.000624
   4 H :   -0.000084
   5 H :   -0.000049
   6 C :   -0.402920
   7 O :   -0.030407
   8 H :    0.175649
   9 H :    0.103330
  10 H :    0.105619
  11 H :    0.097855

  Mayer bond orders larger than 0.1
B(  6-C ,  7-O ) :   0.9947 B(  6-C ,  9-H ) :   0.9795 B(  6-C , 10-H ) :   0.9626
B(  6-C , 11-H ) :   0.9847 B(  7-O ,  8-H ) :   0.8913

Dispersion correction           -0.000265562
FINAL SINGLE POINT ENERGY      -115.732339459585

DIPOLE MOMENT
-------------
                                X             Y             Z
Electronic contribution:     -1.15742      -0.02625       1.53186
Nuclear contribution   :      1.05744       0.38528      -2.03544
                        -----------------------------------------
Total Dipole Moment    :     -0.09997       0.35903      -0.50358
                        -----------------------------------------
Magnitude (a.u.)       :      0.62649
Magnitude (Debye)      :      1.59242

Rotational constants in cm-1:     4.342513     0.829107     0.812939
Rotational constants in MHz : 130185.254929 24855.988414 24371.296495

                             ****ORCA TERMINATED NORMALLY****
TOTAL RUN TIME: 0 days 0 hours 1 minutes 8 seconds 777 msec
