                         Program Version 4.1.2  - RELEASE  -
|  1> #Run DFT-D3 single point of the dimer
|  2> ! wB97X-D3 def2-TZVP TIGHTSCF CHELPG PMODEL PAL8
|  3>
|  4> %base "11-85_DFT_AB"
|  5>
|  6> %scf
|  7> MaxIter 1000
|  8> end
|  9>
| 10> * xyz 0 1
| 11>   C                      10.085171            9.090846             -6.497490
| 12>   O                      9.870105             7.743981             -6.738684
| 13>   H                      9.596428             7.627402             -7.668537
| 14>   H                      10.240051            9.593562             -7.467117
| 15>   H                      9.364494             9.634166             -5.908815
| 16>   H                      11.032180            9.300689             -5.983905
| 17>   C                      11.124728            6.806554             -1.999507
| 18>   O                      11.135662            7.524136             -3.229078
| 19>   H                      11.150037            6.941108             -3.973660
| 20>   H                      11.890149            7.088293             -1.238155
| 21>   H                      10.127329            6.923081             -1.584737
| 22>   H                      11.358672            5.789008             -2.172048
| 23> *
| 24>
| 25> #Run DFT-D3 single point of the molecule with dimer basis set
| 26> $new_job
| 27> %base "11-85_DFT_A"
| 28> ! wB97X-D3 def2-TZVP TIGHTSCF CHELPG PMODEL
| 29>
| 30> %scf
| 31> MaxIter 1000
| 32> end
| 33>
| 34> * xyz 0 1
| 35>   C                      10.085171            9.090846             -6.497490
| 36>   O                      9.870105             7.743981             -6.738684
| 37>   H                      9.596428             7.627402             -7.668537
| 38>   H                      10.240051            9.593562             -7.467117
| 39>   H                      9.364494             9.634166             -5.908815
| 40>   H                      11.032180            9.300689             -5.983905
| 41>   C                    : 11.124728            6.806554             -1.999507
| 42>   O                    : 11.135662            7.524136             -3.229078
| 43>   H                    : 11.150037            6.941108             -3.973660
| 44>   H                    : 11.890149            7.088293             -1.238155
| 45>   H                    : 10.127329            6.923081             -1.584737
| 46>   H                    : 11.358672            5.789008             -2.172048
| 47> *
| 48>
| 49> #Run DFT-D3 single point of the particle with dimer basis set
| 50> $new_job
| 51> %base "11-85_DFT_B"
| 52> ! wB97X-D3 def2-TZVP TIGHTSCF CHELPG PMODEL
| 53>
| 54> %scf
| 55> MaxIter 1000
| 56> end
| 57>
| 58> * xyz 0 1
| 59>   C                    : 10.085171            9.090846             -6.497490
| 60>   O                    : 9.870105             7.743981             -6.738684
| 61>   H                    : 9.596428             7.627402             -7.668537
| 62>   H                    : 10.240051            9.593562             -7.467117
| 63>   H                    : 9.364494             9.634166             -5.908815
| 64>   H                    : 11.032180            9.300689             -5.983905
| 65>   C                      11.124728            6.806554             -1.999507
| 66>   O                      11.135662            7.524136             -3.229078
| 67>   H                      11.150037            6.941108             -3.973660
| 68>   H                      11.890149            7.088293             -1.238155
| 69>   H                      10.127329            6.923081             -1.584737
| 70>   H                      11.358672            5.789008             -2.172048
| 71> *
| 72>
| 73>                          ****END OF INPUT****
 Total Charge           Charge          ....    0
 Multiplicity           Mult            ....    1
 Number of Electrons    NEL             ....   36
Dispersion correction           -0.001295618
FINAL SINGLE POINT ENERGY      -231.465059384057
Dispersion correction           -0.000246814
FINAL SINGLE POINT ENERGY      -115.731050391270

CARTESIAN COORDINATES (ANGSTROEM)
---------------------------------
  C     10.085171    9.090846   -6.497490
  O      9.870105    7.743981   -6.738684
  H      9.596428    7.627402   -7.668537
  H     10.240051    9.593562   -7.467117
  H      9.364494    9.634166   -5.908815
  H     11.032180    9.300689   -5.983905
  C     11.124728    6.806554   -1.999507
  O     11.135662    7.524136   -3.229078
  H     11.150037    6.941108   -3.973660
  H     11.890149    7.088293   -1.238155
  H     10.127329    6.923081   -1.584737
  H     11.358672    5.789008   -2.172048

 Multiplicity           Mult            ....    1
 Number of Electrons    NEL             ....   18
 Basis Dimension        Dim             ....  172

ORBITAL ENERGIES
----------------

  NO   OCC          E(Eh)            E(eV)
   0   2.0000     -19.226453      -523.1784
   1   2.0000     -10.312294      -280.6118
   2   2.0000      -1.133454       -30.8429
   3   2.0000      -0.800500       -21.7827
   4   2.0000      -0.615458       -16.7475
   5   2.0000      -0.542355       -14.7582
   6   2.0000      -0.527370       -14.3505
   7   2.0000      -0.427387       -11.6298
   8   2.0000      -0.374169       -10.1817
   9   0.0000       0.086882         2.3642
  10   0.0000       0.123701         3.3661
  11   0.0000       0.152123         4.1395
  12   0.0000       0.168753         4.5920
  13   0.0000       0.198025         5.3885

MULLIKEN ATOMIC CHARGES
-----------------------
   0 C :   -0.001364
   1 O :   -0.000078
   2 H :   -0.000016
   3 H :   -0.000143
   4 H :   -0.000100
   5 H :   -0.002068
   6 C :   -0.166894
   7 O :   -0.480981
   8 H :    0.318044
   9 H :    0.110549
  10 H :    0.113453
  11 H :    0.109598
Sum of atomic charges:    0.0000000

LOEWDIN ATOMIC CHARGES
----------------------
   0 C :   -0.002958
   1 O :   -0.000504
   2 H :   -0.000022
   3 H :   -0.000045
   4 H :   -0.000277
   5 H :   -0.001353
   6 C :   -0.371997
   7 O :   -0.078646
   8 H :    0.158690
   9 H :    0.107190
  10 H :    0.099990
  11 H :    0.089932

  Mayer bond orders larger than 0.1
B(  6-C ,  7-O ) :   0.9981 B(  6-C ,  9-H ) :   0.9675 B(  6-C , 10-H ) :   0.9808
B(  6-C , 11-H ) :   0.9850 B(  7-O ,  8-H ) :   0.8983

Dispersion correction           -0.000251156
FINAL SINGLE POINT ENERGY      -115.731217050630

DIPOLE MOMENT
-------------
                                X             Y             Z
Electronic contribution:      0.01892       1.01420      -1.48439
Nuclear contribution   :      0.00195      -1.73658       1.49930
                        -----------------------------------------
Total Dipole Moment    :      0.02087      -0.72239       0.01491
                        -----------------------------------------
Magnitude (a.u.)       :      0.72284
Magnitude (Debye)      :      1.83732

Rotational constants in cm-1:     4.459710     0.813313     0.794053
Rotational constants in MHz : 133698.739851 24382.520852 23805.095438

                             ****ORCA TERMINATED NORMALLY****
TOTAL RUN TIME: 0 days 0 hours 1 minutes 12 seconds 343 msec
