                         Program Version 4.1.2  - RELEASE  -
|  1> #Run DFT-D3 single point of the dimer
|  2> ! wB97X-D3 def2-TZVP TIGHTSCF CHELPG PMODEL PAL8
|  3>
|  4> %base "19-107_DFT_AB"
|  5>
|  6> %scf
|  7> MaxIter 1000
|  8> end
|  9>
| 10> * xyz 0 1
| 11>   C                      10.695585            5.804026             -9.585432
| 12>   O                      10.520854            4.713502             -8.722632
| 13>   H                      10.299957            5.135141             -7.866166
| 14>   H                      11.089620            5.402777             -10.519049
| 15>   H                      9.779639             6.421214             -9.795723
| 16>   H                      11.544549            6.403537             -9.255654
| 17>   C                      10.544457            1.920133             -10.031341
| 18>   O                      11.767581            2.621814             -10.202342
| 19>   H                      11.704217            3.323882             -9.586013
| 20>   H                      9.712899             2.329701             -10.582772
| 21>   H                      10.673492            0.950832             -10.458052
| 22>   H                      10.221189            1.866160             -9.025832
| 23> *
| 24>
| 25> #Run DFT-D3 single point of the molecule with dimer basis set
| 26> $new_job
| 27> %base "19-107_DFT_A"
| 28> ! wB97X-D3 def2-TZVP TIGHTSCF CHELPG PMODEL
| 29>
| 30> %scf
| 31> MaxIter 1000
| 32> end
| 33>
| 34> * xyz 0 1
| 35>   C                      10.695585            5.804026             -9.585432
| 36>   O                      10.520854            4.713502             -8.722632
| 37>   H                      10.299957            5.135141             -7.866166
| 38>   H                      11.089620            5.402777             -10.519049
| 39>   H                      9.779639             6.421214             -9.795723
| 40>   H                      11.544549            6.403537             -9.255654
| 41>   C                    : 10.544457            1.920133             -10.031341
| 42>   O                    : 11.767581            2.621814             -10.202342
| 43>   H                    : 11.704217            3.323882             -9.586013
| 44>   H                    : 9.712899             2.329701             -10.582772
| 45>   H                    : 10.673492            0.950832             -10.458052
| 46>   H                    : 10.221189            1.866160             -9.025832
| 47> *
| 48>
| 49> #Run DFT-D3 single point of the particle with dimer basis set
| 50> $new_job
| 51> %base "19-107_DFT_B"
| 52> ! wB97X-D3 def2-TZVP TIGHTSCF CHELPG PMODEL
| 53>
| 54> %scf
| 55> MaxIter 1000
| 56> end
| 57>
| 58> * xyz 0 1
| 59>   C                    : 10.695585            5.804026             -9.585432
| 60>   O                    : 10.520854            4.713502             -8.722632
| 61>   H                    : 10.299957            5.135141             -7.866166
| 62>   H                    : 11.089620            5.402777             -10.519049
| 63>   H                    : 9.779639             6.421214             -9.795723
| 64>   H                    : 11.544549            6.403537             -9.255654
| 65>   C                      10.544457            1.920133             -10.031341
| 66>   O                      11.767581            2.621814             -10.202342
| 67>   H                      11.704217            3.323882             -9.586013
| 68>   H                      9.712899             2.329701             -10.582772
| 69>   H                      10.673492            0.950832             -10.458052
| 70>   H                      10.221189            1.866160             -9.025832
| 71> *
| 72>
| 73>                          ****END OF INPUT****
 Total Charge           Charge          ....    0
 Multiplicity           Mult            ....    1
 Number of Electrons    NEL             ....   36
Dispersion correction           -0.002140723
FINAL SINGLE POINT ENERGY      -231.474812529009
Dispersion correction           -0.000234765
FINAL SINGLE POINT ENERGY      -115.733726049229

CARTESIAN COORDINATES (ANGSTROEM)
---------------------------------
  C     10.695585    5.804026   -9.585432
  O     10.520854    4.713502   -8.722632
  H     10.299957    5.135141   -7.866166
  H     11.089620    5.402777  -10.519049
  H      9.779639    6.421214   -9.795723
  H     11.544549    6.403537   -9.255654
  C     10.544457    1.920133  -10.031341
  O     11.767581    2.621814  -10.202342
  H     11.704217    3.323882   -9.586013
  H      9.712899    2.329701  -10.582772
  H     10.673492    0.950832  -10.458052
  H     10.221189    1.866160   -9.025832

 Multiplicity           Mult            ....    1
 Number of Electrons    NEL             ....   18
 Basis Dimension        Dim             ....  172

ORBITAL ENERGIES
----------------

  NO   OCC          E(Eh)            E(eV)
   0   2.0000     -19.231667      -523.3203
   1   2.0000     -10.304774      -280.4072
   2   2.0000      -1.143086       -31.1049
   3   2.0000      -0.803573       -21.8663
   4   2.0000      -0.618364       -16.8265
   5   2.0000      -0.541150       -14.7254
   6   2.0000      -0.526833       -14.3359
   7   2.0000      -0.448423       -12.2022
   8   2.0000      -0.375586       -10.2202
   9   0.0000       0.071641         1.9495
  10   0.0000       0.138271         3.7626
  11   0.0000       0.154686         4.2092
  12   0.0000       0.162227         4.4144
  13   0.0000       0.190042         5.1713

MULLIKEN ATOMIC CHARGES
-----------------------
   0 C :   -0.001205
   1 O :   -0.004655
   2 H :   -0.000230
   3 H :   -0.007120
   4 H :   -0.000233
   5 H :    0.000290
   6 C :   -0.174969
   7 O :   -0.456527
   8 H :    0.310156
   9 H :    0.100156
  10 H :    0.123587
  11 H :    0.110750
Sum of atomic charges:   -0.0000000

LOEWDIN ATOMIC CHARGES
----------------------
   0 C :   -0.008286
   1 O :   -0.016393
   2 H :   -0.000580
   3 H :   -0.005139
   4 H :   -0.000097
   5 H :   -0.000171
   6 C :   -0.370315
   7 O :   -0.048319
   8 H :    0.160241
   9 H :    0.093856
  10 H :    0.104821
  11 H :    0.090382

  Mayer bond orders larger than 0.1
B(  6-C ,  7-O ) :   0.9973 B(  6-C ,  9-H ) :   0.9744 B(  6-C , 10-H ) :   0.9799
B(  6-C , 11-H ) :   0.9821 B(  7-O ,  8-H ) :   0.9139

Dispersion correction           -0.000228577
FINAL SINGLE POINT ENERGY      -115.733898478679

DIPOLE MOMENT
-------------
                                X             Y             Z
Electronic contribution:      1.64454       0.80238      -0.24959
Nuclear contribution   :     -2.17300      -0.66203       0.70660
                        -----------------------------------------
Total Dipole Moment    :     -0.52846       0.14035       0.45700
                        -----------------------------------------
Magnitude (a.u.)       :      0.71261
Magnitude (Debye)      :      1.81132

Rotational constants in cm-1:     4.516973     0.836069     0.800077
Rotational constants in MHz : 135415.434202 25064.720857 23985.708547

                             ****ORCA TERMINATED NORMALLY****
TOTAL RUN TIME: 0 days 0 hours 0 minutes 55 seconds 306 msec
