                         Program Version 4.1.2  - RELEASE  -
|  1> #Run DFT-D3 single point of the dimer
|  2> ! wB97X-D3 def2-TZVP TIGHTSCF CHELPG PMODEL PAL8
|  3>
|  4> %base "22-27_DFT_AB"
|  5>
|  6> %scf
|  7> MaxIter 1000
|  8> end
|  9>
| 10> * xyz 0 1
| 11>   C                      -7.103731            6.653923             -1.669574
| 12>   O                      -6.894566            5.210805             -1.789627
| 13>   H                      -7.334692            4.689197             -1.072243
| 14>   H                      -8.194465            6.918869             -1.815733
| 15>   H                      -6.801057            7.072376             -0.661411
| 16>   H                      -6.560077            7.160748             -2.438667
| 17>   C                      -3.235452            7.974834             -3.610997
| 18>   O                      -2.335744            9.037216             -3.968717
| 19>   H                      -2.699700            9.576640             -4.691973
| 20>   H                      -3.591304            8.059104             -2.564382
| 21>   H                      -4.201722            8.035616             -4.246307
| 22>   H                      -2.818901            6.977032             -3.763111
| 23> *
| 24>
| 25> #Run DFT-D3 single point of the molecule with dimer basis set
| 26> $new_job
| 27> %base "22-27_DFT_A"
| 28> ! wB97X-D3 def2-TZVP TIGHTSCF CHELPG PMODEL
| 29>
| 30> %scf
| 31> MaxIter 1000
| 32> end
| 33>
| 34> * xyz 0 1
| 35>   C                      -7.103731            6.653923             -1.669574
| 36>   O                      -6.894566            5.210805             -1.789627
| 37>   H                      -7.334692            4.689197             -1.072243
| 38>   H                      -8.194465            6.918869             -1.815733
| 39>   H                      -6.801057            7.072376             -0.661411
| 40>   H                      -6.560077            7.160748             -2.438667
| 41>   C                    : -3.235452            7.974834             -3.610997
| 42>   O                    : -2.335744            9.037216             -3.968717
| 43>   H                    : -2.699700            9.576640             -4.691973
| 44>   H                    : -3.591304            8.059104             -2.564382
| 45>   H                    : -4.201722            8.035616             -4.246307
| 46>   H                    : -2.818901            6.977032             -3.763111
| 47> *
| 48>
| 49> #Run DFT-D3 single point of the particle with dimer basis set
| 50> $new_job
| 51> %base "22-27_DFT_B"
| 52> ! wB97X-D3 def2-TZVP TIGHTSCF CHELPG PMODEL
| 53>
| 54> %scf
| 55> MaxIter 1000
| 56> end
| 57>
| 58> * xyz 0 1
| 59>   C                    : -7.103731            6.653923             -1.669574
| 60>   O                    : -6.894566            5.210805             -1.789627
| 61>   H                    : -7.334692            4.689197             -1.072243
| 62>   H                    : -8.194465            6.918869             -1.815733
| 63>   H                    : -6.801057            7.072376             -0.661411
| 64>   H                    : -6.560077            7.160748             -2.438667
| 65>   C                      -3.235452            7.974834             -3.610997
| 66>   O                      -2.335744            9.037216             -3.968717
| 67>   H                      -2.699700            9.576640             -4.691973
| 68>   H                      -3.591304            8.059104             -2.564382
| 69>   H                      -4.201722            8.035616             -4.246307
| 70>   H                      -2.818901            6.977032             -3.763111
| 71> *
| 72>
| 73>                          ****END OF INPUT****
 Total Charge           Charge          ....    0
 Multiplicity           Mult            ....    1
 Number of Electrons    NEL             ....   36
Dispersion correction           -0.001142084
FINAL SINGLE POINT ENERGY      -231.463989757778
Dispersion correction           -0.000295650
FINAL SINGLE POINT ENERGY      -115.731624564855

CARTESIAN COORDINATES (ANGSTROEM)
---------------------------------
  C     -7.103731    6.653923   -1.669574
  O     -6.894566    5.210805   -1.789627
  H     -7.334692    4.689197   -1.072243
  H     -8.194465    6.918869   -1.815733
  H     -6.801057    7.072376   -0.661411
  H     -6.560077    7.160748   -2.438667
  C     -3.235452    7.974834   -3.610997
  O     -2.335744    9.037216   -3.968717
  H     -2.699700    9.576640   -4.691973
  H     -3.591304    8.059104   -2.564382
  H     -4.201722    8.035616   -4.246307
  H     -2.818901    6.977032   -3.763111

 Multiplicity           Mult            ....    1
 Number of Electrons    NEL             ....   18
 Basis Dimension        Dim             ....  172

ORBITAL ENERGIES
----------------

  NO   OCC          E(Eh)            E(eV)
   0   2.0000     -19.231775      -523.3232
   1   2.0000     -10.324254      -280.9372
   2   2.0000      -1.125473       -30.6257
   3   2.0000      -0.791775       -21.5453
   4   2.0000      -0.604628       -16.4528
   5   2.0000      -0.537440       -14.6245
   6   2.0000      -0.523288       -14.2394
   7   2.0000      -0.424516       -11.5517
   8   2.0000      -0.376082       -10.2337
   9   0.0000       0.082150         2.2354
  10   0.0000       0.109865         2.9896
  11   0.0000       0.139330         3.7914
  12   0.0000       0.168601         4.5879
  13   0.0000       0.177549         4.8314

MULLIKEN ATOMIC CHARGES
-----------------------
   0 C :    0.001547
   1 O :   -0.000022
   2 H :    0.000000
   3 H :   -0.000075
   4 H :   -0.000124
   5 H :   -0.002950
   6 C :   -0.168335
   7 O :   -0.483859
   8 H :    0.323093
   9 H :    0.115076
  10 H :    0.099097
  11 H :    0.116552
Sum of atomic charges:   -0.0000000

LOEWDIN ATOMIC CHARGES
----------------------
   0 C :   -0.000612
   1 O :   -0.000005
   2 H :   -0.000000
   3 H :   -0.000005
   4 H :   -0.000057
   5 H :   -0.001305
   6 C :   -0.378091
   7 O :   -0.102744
   8 H :    0.175668
   9 H :    0.102335
  10 H :    0.106360
  11 H :    0.098457

  Mayer bond orders larger than 0.1
B(  6-C ,  7-O ) :   1.0091 B(  6-C ,  9-H ) :   0.9712 B(  6-C , 10-H ) :   0.9855
B(  6-C , 11-H ) :   0.9672 B(  7-O ,  8-H ) :   0.8940

Dispersion correction           -0.000279436
FINAL SINGLE POINT ENERGY      -115.731670811983

DIPOLE MOMENT
-------------
                                X             Y             Z
Electronic contribution:      1.37635       1.28936      -0.32462
Nuclear contribution   :     -1.98231      -1.36883      -0.00594
                        -----------------------------------------
Total Dipole Moment    :     -0.60597      -0.07948      -0.33056
                        -----------------------------------------
Magnitude (a.u.)       :      0.69482
Magnitude (Debye)      :      1.76610

Rotational constants in cm-1:     4.202232     0.795364     0.767123
Rotational constants in MHz : 125979.747982 23844.408674 22997.767826

                             ****ORCA TERMINATED NORMALLY****
TOTAL RUN TIME: 0 days 0 hours 0 minutes 51 seconds 507 msec
