                         Program Version 4.1.2  - RELEASE  -
|  1> #Run DFT-D3 single point of the dimer
|  2> ! wB97X-D3 def2-TZVP TIGHTSCF CHELPG PMODEL PAL8
|  3>
|  4> %base "21-181_DFT_AB"
|  5>
|  6> %scf
|  7> MaxIter 1000
|  8> end
|  9>
| 10> * xyz 0 1
| 11>   C                      -0.209073            7.246687             3.659188
| 12>   O                      -1.346885            8.025318             3.141750
| 13>   H                      -1.003598            8.635182             2.472548
| 14>   H                      0.609450             7.974867             3.989157
| 15>   H                      -0.527729            6.725133             4.575650
| 16>   H                      0.160751             6.566100             2.895262
| 17>   C                      -3.841102            6.614214             4.620056
| 18>   O                      -3.327764            5.808069             3.606693
| 19>   H                      -2.593277            6.280095             3.215739
| 20>   H                      -4.227038            7.550951             4.196775
| 21>   H                      -4.778707            6.249320             4.989437
| 22>   H                      -3.116987            6.809601             5.396907
| 23> *
| 24>
| 25> #Run DFT-D3 single point of the molecule with dimer basis set
| 26> $new_job
| 27> %base "21-181_DFT_A"
| 28> ! wB97X-D3 def2-TZVP TIGHTSCF CHELPG PMODEL
| 29>
| 30> %scf
| 31> MaxIter 1000
| 32> end
| 33>
| 34> * xyz 0 1
| 35>   C                      -0.209073            7.246687             3.659188
| 36>   O                      -1.346885            8.025318             3.141750
| 37>   H                      -1.003598            8.635182             2.472548
| 38>   H                      0.609450             7.974867             3.989157
| 39>   H                      -0.527729            6.725133             4.575650
| 40>   H                      0.160751             6.566100             2.895262
| 41>   C                    : -3.841102            6.614214             4.620056
| 42>   O                    : -3.327764            5.808069             3.606693
| 43>   H                    : -2.593277            6.280095             3.215739
| 44>   H                    : -4.227038            7.550951             4.196775
| 45>   H                    : -4.778707            6.249320             4.989437
| 46>   H                    : -3.116987            6.809601             5.396907
| 47> *
| 48>
| 49> #Run DFT-D3 single point of the particle with dimer basis set
| 50> $new_job
| 51> %base "21-181_DFT_B"
| 52> ! wB97X-D3 def2-TZVP TIGHTSCF CHELPG PMODEL
| 53>
| 54> %scf
| 55> MaxIter 1000
| 56> end
| 57>
| 58> * xyz 0 1
| 59>   C                    : -0.209073            7.246687             3.659188
| 60>   O                    : -1.346885            8.025318             3.141750
| 61>   H                    : -1.003598            8.635182             2.472548
| 62>   H                    : 0.609450             7.974867             3.989157
| 63>   H                    : -0.527729            6.725133             4.575650
| 64>   H                    : 0.160751             6.566100             2.895262
| 65>   C                      -3.841102            6.614214             4.620056
| 66>   O                      -3.327764            5.808069             3.606693
| 67>   H                      -2.593277            6.280095             3.215739
| 68>   H                      -4.227038            7.550951             4.196775
| 69>   H                      -4.778707            6.249320             4.989437
| 70>   H                      -3.116987            6.809601             5.396907
| 71> *
| 72>
| 73>                          ****END OF INPUT****
 Total Charge           Charge          ....    0
 Multiplicity           Mult            ....    1
 Number of Electrons    NEL             ....   36
Dispersion correction           -0.002215107
FINAL SINGLE POINT ENERGY      -231.473596941656
Dispersion correction           -0.000262623
FINAL SINGLE POINT ENERGY      -115.733577728227

CARTESIAN COORDINATES (ANGSTROEM)
---------------------------------
  C     -0.209073    7.246687    3.659188
  O     -1.346885    8.025318    3.141750
  H     -1.003598    8.635182    2.472548
  H      0.609450    7.974867    3.989157
  H     -0.527729    6.725133    4.575650
  H      0.160751    6.566100    2.895262
  C     -3.841102    6.614214    4.620056
  O     -3.327764    5.808069    3.606693
  H     -2.593277    6.280095    3.215739
  H     -4.227038    7.550951    4.196775
  H     -4.778707    6.249320    4.989437
  H     -3.116987    6.809601    5.396907

 Multiplicity           Mult            ....    1
 Number of Electrons    NEL             ....   18
 Basis Dimension        Dim             ....  172

ORBITAL ENERGIES
----------------

  NO   OCC          E(Eh)            E(eV)
   0   2.0000     -19.230763      -523.2957
   1   2.0000     -10.307923      -280.4929
   2   2.0000      -1.144450       -31.1421
   3   2.0000      -0.798742       -21.7349
   4   2.0000      -0.613599       -16.6969
   5   2.0000      -0.557024       -15.1574
   6   2.0000      -0.527079       -14.3425
   7   2.0000      -0.429469       -11.6864
   8   2.0000      -0.373852       -10.1730
   9   0.0000       0.069196         1.8829
  10   0.0000       0.141333         3.8459
  11   0.0000       0.149900         4.0790
  12   0.0000       0.157518         4.2863
  13   0.0000       0.190936         5.1956

MULLIKEN ATOMIC CHARGES
-----------------------
   0 C :   -0.006357
   1 O :   -0.002020
   2 H :   -0.000230
   3 H :   -0.000239
   4 H :   -0.000510
   5 H :    0.000896
   6 C :   -0.161075
   7 O :   -0.465239
   8 H :    0.316449
   9 H :    0.094222
  10 H :    0.118597
  11 H :    0.105507
Sum of atomic charges:    0.0000000

LOEWDIN ATOMIC CHARGES
----------------------
   0 C :   -0.010273
   1 O :   -0.010762
   2 H :   -0.000452
   3 H :   -0.000152
   4 H :   -0.002218
   5 H :   -0.000487
   6 C :   -0.398022
   7 O :   -0.047440
   8 H :    0.173822
   9 H :    0.097022
  10 H :    0.105315
  11 H :    0.093647

  Mayer bond orders larger than 0.1
B(  6-C ,  7-O ) :   0.9969 B(  6-C ,  9-H ) :   0.9874 B(  6-C , 10-H ) :   0.9740
B(  6-C , 11-H ) :   0.9745 B(  7-O ,  8-H ) :   0.9067

Dispersion correction           -0.000223185
FINAL SINGLE POINT ENERGY      -115.733196895386

DIPOLE MOMENT
-------------
                                X             Y             Z
Electronic contribution:      0.65553      -1.25263      -1.19261
Nuclear contribution   :     -0.42662       1.85957       1.33283
                        -----------------------------------------
Total Dipole Moment    :      0.22892       0.60694       0.14021
                        -----------------------------------------
Magnitude (a.u.)       :      0.66366
Magnitude (Debye)      :      1.68688

Rotational constants in cm-1:     4.401577     0.850276     0.824703
Rotational constants in MHz : 131955.968394 25490.636353 24723.971667

                             ****ORCA TERMINATED NORMALLY****
TOTAL RUN TIME: 0 days 0 hours 1 minutes 8 seconds 408 msec
