                         Program Version 4.1.2  - RELEASE  -
|  1> #Run DFT-D3 single point of the dimer
|  2> ! wB97X-D3 def2-TZVP TIGHTSCF CHELPG PMODEL PAL8
|  3>
|  4> %base "8-185_DFT_AB"
|  5>
|  6> %scf
|  7> MaxIter 1000
|  8> end
|  9>
| 10> * xyz 0 1
| 11>   C                      -6.089729            4.718462             -4.995477
| 12>   O                      -7.378963            5.167259             -5.188108
| 13>   H                      -7.301230            5.778819             -5.888763
| 14>   H                      -5.713952            4.882978             -3.965145
| 15>   H                      -6.106463            3.570739             -5.127612
| 16>   H                      -5.362559            5.028709             -5.773777
| 17>   C                      -5.382027            7.680105             -7.118423
| 18>   O                      -6.712224            7.274418             -7.017612
| 19>   H                      -6.870014            6.652180             -7.679816
| 20>   H                      -4.734573            6.926680             -7.625645
| 21>   H                      -5.309369            8.612434             -7.688861
| 22>   H                      -5.064055            7.738493             -6.095595
| 23> *
| 24>
| 25> #Run DFT-D3 single point of the molecule with dimer basis set
| 26> $new_job
| 27> %base "8-185_DFT_A"
| 28> ! wB97X-D3 def2-TZVP TIGHTSCF CHELPG PMODEL
| 29>
| 30> %scf
| 31> MaxIter 1000
| 32> end
| 33>
| 34> * xyz 0 1
| 35>   C                      -6.089729            4.718462             -4.995477
| 36>   O                      -7.378963            5.167259             -5.188108
| 37>   H                      -7.301230            5.778819             -5.888763
| 38>   H                      -5.713952            4.882978             -3.965145
| 39>   H                      -6.106463            3.570739             -5.127612
| 40>   H                      -5.362559            5.028709             -5.773777
| 41>   C                    : -5.382027            7.680105             -7.118423
| 42>   O                    : -6.712224            7.274418             -7.017612
| 43>   H                    : -6.870014            6.652180             -7.679816
| 44>   H                    : -4.734573            6.926680             -7.625645
| 45>   H                    : -5.309369            8.612434             -7.688861
| 46>   H                    : -5.064055            7.738493             -6.095595
| 47> *
| 48>
| 49> #Run DFT-D3 single point of the particle with dimer basis set
| 50> $new_job
| 51> %base "8-185_DFT_B"
| 52> ! wB97X-D3 def2-TZVP TIGHTSCF CHELPG PMODEL
| 53>
| 54> %scf
| 55> MaxIter 1000
| 56> end
| 57>
| 58> * xyz 0 1
| 59>   C                    : -6.089729            4.718462             -4.995477
| 60>   O                    : -7.378963            5.167259             -5.188108
| 61>   H                    : -7.301230            5.778819             -5.888763
| 62>   H                    : -5.713952            4.882978             -3.965145
| 63>   H                    : -6.106463            3.570739             -5.127612
| 64>   H                    : -5.362559            5.028709             -5.773777
| 65>   C                      -5.382027            7.680105             -7.118423
| 66>   O                      -6.712224            7.274418             -7.017612
| 67>   H                      -6.870014            6.652180             -7.679816
| 68>   H                      -4.734573            6.926680             -7.625645
| 69>   H                      -5.309369            8.612434             -7.688861
| 70>   H                      -5.064055            7.738493             -6.095595
| 71> *
| 72>
| 73>                          ****END OF INPUT****
 Total Charge           Charge          ....    0
 Multiplicity           Mult            ....    1
 Number of Electrons    NEL             ....   36
Dispersion correction           -0.002238948
FINAL SINGLE POINT ENERGY      -231.467621324325
Dispersion correction           -0.000242875
FINAL SINGLE POINT ENERGY      -115.729547300977

CARTESIAN COORDINATES (ANGSTROEM)
---------------------------------
  C     -6.089729    4.718462   -4.995477
  O     -7.378963    5.167259   -5.188108
  H     -7.301230    5.778819   -5.888763
  H     -5.713952    4.882978   -3.965145
  H     -6.106463    3.570739   -5.127612
  H     -5.362559    5.028709   -5.773777
  C     -5.382027    7.680105   -7.118423
  O     -6.712224    7.274418   -7.017612
  H     -6.870014    6.652180   -7.679816
  H     -4.734573    6.926680   -7.625645
  H     -5.309369    8.612434   -7.688861
  H     -5.064055    7.738493   -6.095595

 Multiplicity           Mult            ....    1
 Number of Electrons    NEL             ....   18
 Basis Dimension        Dim             ....  172

ORBITAL ENERGIES
----------------

  NO   OCC          E(Eh)            E(eV)
   0   2.0000     -19.225397      -523.1496
   1   2.0000     -10.311327      -280.5855
   2   2.0000      -1.150503       -31.3068
   3   2.0000      -0.797529       -21.7019
   4   2.0000      -0.619444       -16.8559
   5   2.0000      -0.552572       -15.0362
   6   2.0000      -0.522734       -14.2243
   7   2.0000      -0.434076       -11.8118
   8   2.0000      -0.374654       -10.1948
   9   0.0000       0.090476         2.4620
  10   0.0000       0.131998         3.5918
  11   0.0000       0.154286         4.1983
  12   0.0000       0.179993         4.8978
  13   0.0000       0.202013         5.4970

MULLIKEN ATOMIC CHARGES
-----------------------
   0 C :   -0.000465
   1 O :    0.005756
   2 H :   -0.022427
   3 H :   -0.000543
   4 H :   -0.000018
   5 H :   -0.001036
   6 C :   -0.165988
   7 O :   -0.455524
   8 H :    0.309250
   9 H :    0.100859
  10 H :    0.110125
  11 H :    0.120009
Sum of atomic charges:   -0.0000000

LOEWDIN ATOMIC CHARGES
----------------------
   0 C :   -0.007109
   1 O :   -0.006216
   2 H :   -0.041153
   3 H :   -0.000130
   4 H :   -0.000064
   5 H :   -0.003202
   6 C :   -0.391001
   7 O :   -0.003127
   8 H :    0.147969
   9 H :    0.100009
  10 H :    0.098881
  11 H :    0.105143

  Mayer bond orders larger than 0.1
B(  6-C ,  7-O ) :   0.9811 B(  6-C ,  9-H ) :   0.9827 B(  6-C , 10-H ) :   0.9686
B(  6-C , 11-H ) :   0.9843 B(  7-O ,  8-H ) :   0.9079

Dispersion correction           -0.000224411
FINAL SINGLE POINT ENERGY      -115.732977896521

DIPOLE MOMENT
-------------
                                X             Y             Z
Electronic contribution:     -1.69601      -0.36945       0.21643
Nuclear contribution   :      2.11388       0.10912      -0.69324
                        -----------------------------------------
Total Dipole Moment    :      0.41786      -0.26033      -0.47682
                        -----------------------------------------
Magnitude (a.u.)       :      0.68537
Magnitude (Debye)      :      1.74208

Rotational constants in cm-1:     4.271319     0.857948     0.833463
Rotational constants in MHz : 128050.913796 25720.638793 24986.583099

                             ****ORCA TERMINATED NORMALLY****
TOTAL RUN TIME: 0 days 0 hours 0 minutes 48 seconds 501 msec
