                         Program Version 4.1.2  - RELEASE  -
|  1> #Run DFT-D3 single point of the dimer
|  2> ! wB97X-D3 def2-TZVP TIGHTSCF CHELPG PMODEL PAL8
|  3>
|  4> %base "22-149_DFT_AB"
|  5>
|  6> %scf
|  7> MaxIter 1000
|  8> end
|  9>
| 10> * xyz 0 1
| 11>   C                      5.841575             5.538677             -8.971014
| 12>   O                      5.937929             5.637680             -10.311734
| 13>   H                      6.324297             4.832202             -10.653868
| 14>   H                      5.247490             6.394668             -8.527192
| 15>   H                      5.280921             4.660592             -8.722857
| 16>   H                      6.775231             5.503065             -8.381655
| 17>   C                      2.337473             3.686751             -9.965855
| 18>   O                      3.482262             3.632745             -10.707156
| 19>   H                      3.953443             4.382835             -10.336825
| 20>   H                      1.706733             2.764936             -10.048201
| 21>   H                      2.579097             3.920902             -8.912619
| 22>   H                      1.756712             4.539307             -10.240447
| 23> *
| 24>
| 25> #Run DFT-D3 single point of the molecule with dimer basis set
| 26> $new_job
| 27> %base "22-149_DFT_A"
| 28> ! wB97X-D3 def2-TZVP TIGHTSCF CHELPG PMODEL
| 29>
| 30> %scf
| 31> MaxIter 1000
| 32> end
| 33>
| 34> * xyz 0 1
| 35>   C                      5.841575             5.538677             -8.971014
| 36>   O                      5.937929             5.637680             -10.311734
| 37>   H                      6.324297             4.832202             -10.653868
| 38>   H                      5.247490             6.394668             -8.527192
| 39>   H                      5.280921             4.660592             -8.722857
| 40>   H                      6.775231             5.503065             -8.381655
| 41>   C                    : 2.337473             3.686751             -9.965855
| 42>   O                    : 3.482262             3.632745             -10.707156
| 43>   H                    : 3.953443             4.382835             -10.336825
| 44>   H                    : 1.706733             2.764936             -10.048201
| 45>   H                    : 2.579097             3.920902             -8.912619
| 46>   H                    : 1.756712             4.539307             -10.240447
| 47> *
| 48>
| 49> #Run DFT-D3 single point of the particle with dimer basis set
| 50> $new_job
| 51> %base "22-149_DFT_B"
| 52> ! wB97X-D3 def2-TZVP TIGHTSCF CHELPG PMODEL
| 53>
| 54> %scf
| 55> MaxIter 1000
| 56> end
| 57>
| 58> * xyz 0 1
| 59>   C                    : 5.841575             5.538677             -8.971014
| 60>   O                    : 5.937929             5.637680             -10.311734
| 61>   H                    : 6.324297             4.832202             -10.653868
| 62>   H                    : 5.247490             6.394668             -8.527192
| 63>   H                    : 5.280921             4.660592             -8.722857
| 64>   H                    : 6.775231             5.503065             -8.381655
| 65>   C                      2.337473             3.686751             -9.965855
| 66>   O                      3.482262             3.632745             -10.707156
| 67>   H                      3.953443             4.382835             -10.336825
| 68>   H                      1.706733             2.764936             -10.048201
| 69>   H                      2.579097             3.920902             -8.912619
| 70>   H                      1.756712             4.539307             -10.240447
| 71> *
| 72>
| 73>                          ****END OF INPUT****
 Total Charge           Charge          ....    0
 Multiplicity           Mult            ....    1
 Number of Electrons    NEL             ....   36
Dispersion correction           -0.001896170
FINAL SINGLE POINT ENERGY      -231.465208630758
Dispersion correction           -0.000225161
FINAL SINGLE POINT ENERGY      -115.731940007347

CARTESIAN COORDINATES (ANGSTROEM)
---------------------------------
  C      5.841575    5.538677   -8.971014
  O      5.937929    5.637680  -10.311734
  H      6.324297    4.832202  -10.653868
  H      5.247490    6.394668   -8.527192
  H      5.280921    4.660592   -8.722857
  H      6.775231    5.503065   -8.381655
  C      2.337473    3.686751   -9.965855
  O      3.482262    3.632745  -10.707156
  H      3.953443    4.382835  -10.336825
  H      1.706733    2.764936  -10.048201
  H      2.579097    3.920902   -8.912619
  H      1.756712    4.539307  -10.240447

 Multiplicity           Mult            ....    1
 Number of Electrons    NEL             ....   18
 Basis Dimension        Dim             ....  172

ORBITAL ENERGIES
----------------

  NO   OCC          E(Eh)            E(eV)
   0   2.0000     -19.233089      -523.3590
   1   2.0000     -10.310834      -280.5721
   2   2.0000      -1.160278       -31.5728
   3   2.0000      -0.788521       -21.4567
   4   2.0000      -0.625567       -17.0225
   5   2.0000      -0.545019       -14.8307
   6   2.0000      -0.534651       -14.5486
   7   2.0000      -0.441964       -12.0264
   8   2.0000      -0.368160       -10.0181
   9   0.0000       0.070810         1.9268
  10   0.0000       0.134394         3.6570
  11   0.0000       0.152772         4.1571
  12   0.0000       0.176787         4.8106
  13   0.0000       0.180677         4.9165

MULLIKEN ATOMIC CHARGES
-----------------------
   0 C :    0.000120
   1 O :    0.001432
   2 H :   -0.000695
   3 H :    0.000214
   4 H :   -0.006479
   5 H :   -0.000366
   6 C :   -0.180810
   7 O :   -0.442628
   8 H :    0.313232
   9 H :    0.118870
  10 H :    0.092640
  11 H :    0.104471
Sum of atomic charges:    0.0000000

LOEWDIN ATOMIC CHARGES
----------------------
   0 C :   -0.008573
   1 O :   -0.004822
   2 H :   -0.001857
   3 H :   -0.000175
   4 H :   -0.004716
   5 H :   -0.000115
   6 C :   -0.430226
   7 O :   -0.028630
   8 H :    0.184765
   9 H :    0.113097
  10 H :    0.094236
  11 H :    0.087016

  Mayer bond orders larger than 0.1
B(  6-C ,  7-O ) :   0.9944 B(  6-C ,  9-H ) :   0.9691 B(  6-C , 10-H ) :   0.9829
B(  6-C , 11-H ) :   0.9849 B(  7-O ,  8-H ) :   0.9084

Dispersion correction           -0.000193300
FINAL SINGLE POINT ENERGY      -115.729130429103

DIPOLE MOMENT
-------------
                                X             Y             Z
Electronic contribution:      1.48567      -0.31743      -1.16768
Nuclear contribution   :     -1.60703       0.80650       1.65020
                        -----------------------------------------
Total Dipole Moment    :     -0.12136       0.48907       0.48252
                        -----------------------------------------
Magnitude (a.u.)       :      0.69767
Magnitude (Debye)      :      1.77333

Rotational constants in cm-1:     4.226710     0.898714     0.846256
Rotational constants in MHz : 126713.581864 26942.774763 25370.117908

                             ****ORCA TERMINATED NORMALLY****
TOTAL RUN TIME: 0 days 0 hours 1 minutes 5 seconds 822 msec
