                         Program Version 4.1.2  - RELEASE  -
|  1> #Run DFT-D3 single point of the dimer
|  2> ! wB97X-D3 def2-TZVP TIGHTSCF CHELPG PMODEL PAL8
|  3>
|  4> %base "10-156_DFT_AB"
|  5>
|  6> %scf
|  7> MaxIter 1000
|  8> end
|  9>
| 10> * xyz 0 1
| 11>   C                      -7.696993            4.870722             -5.249088
| 12>   O                      -8.000173            5.738073             -6.280450
| 13>   H                      -7.944936            6.626068             -5.893872
| 14>   H                      -8.323327            5.038972             -4.420288
| 15>   H                      -7.952844            3.779827             -5.439397
| 16>   H                      -6.693924            5.029218             -4.879983
| 17>   C                      -8.880556            9.734789             -3.716481
| 18>   O                      -8.486434            8.886818             -4.747538
| 19>   H                      -7.776537            9.345748             -5.179232
| 20>   H                      -8.133950            9.561247             -2.956723
| 21>   H                      -8.948586            10.842258            -3.961599
| 22>   H                      -9.782943            9.514472             -3.203322
| 23> *
| 24>
| 25> #Run DFT-D3 single point of the molecule with dimer basis set
| 26> $new_job
| 27> %base "10-156_DFT_A"
| 28> ! wB97X-D3 def2-TZVP TIGHTSCF CHELPG PMODEL
| 29>
| 30> %scf
| 31> MaxIter 1000
| 32> end
| 33>
| 34> * xyz 0 1
| 35>   C                      -7.696993            4.870722             -5.249088
| 36>   O                      -8.000173            5.738073             -6.280450
| 37>   H                      -7.944936            6.626068             -5.893872
| 38>   H                      -8.323327            5.038972             -4.420288
| 39>   H                      -7.952844            3.779827             -5.439397
| 40>   H                      -6.693924            5.029218             -4.879983
| 41>   C                    : -8.880556            9.734789             -3.716481
| 42>   O                    : -8.486434            8.886818             -4.747538
| 43>   H                    : -7.776537            9.345748             -5.179232
| 44>   H                    : -8.133950            9.561247             -2.956723
| 45>   H                    : -8.948586            10.842258            -3.961599
| 46>   H                    : -9.782943            9.514472             -3.203322
| 47> *
| 48>
| 49> #Run DFT-D3 single point of the particle with dimer basis set
| 50> $new_job
| 51> %base "10-156_DFT_B"
| 52> ! wB97X-D3 def2-TZVP TIGHTSCF CHELPG PMODEL
| 53>
| 54> %scf
| 55> MaxIter 1000
| 56> end
| 57>
| 58> * xyz 0 1
| 59>   C                    : -7.696993            4.870722             -5.249088
| 60>   O                    : -8.000173            5.738073             -6.280450
| 61>   H                    : -7.944936            6.626068             -5.893872
| 62>   H                    : -8.323327            5.038972             -4.420288
| 63>   H                    : -7.952844            3.779827             -5.439397
| 64>   H                    : -6.693924            5.029218             -4.879983
| 65>   C                      -8.880556            9.734789             -3.716481
| 66>   O                      -8.486434            8.886818             -4.747538
| 67>   H                      -7.776537            9.345748             -5.179232
| 68>   H                      -8.133950            9.561247             -2.956723
| 69>   H                      -8.948586            10.842258            -3.961599
| 70>   H                      -9.782943            9.514472             -3.203322
| 71> *
| 72>
| 73>                          ****END OF INPUT****
 Total Charge           Charge          ....    0
 Multiplicity           Mult            ....    1
 Number of Electrons    NEL             ....   36
Dispersion correction           -0.001203142
FINAL SINGLE POINT ENERGY      -231.460577668158
Dispersion correction           -0.000215992
FINAL SINGLE POINT ENERGY      -115.728790165308

CARTESIAN COORDINATES (ANGSTROEM)
---------------------------------
  C     -7.696993    4.870722   -5.249088
  O     -8.000173    5.738073   -6.280450
  H     -7.944936    6.626068   -5.893872
  H     -8.323327    5.038972   -4.420288
  H     -7.952844    3.779827   -5.439397
  H     -6.693924    5.029218   -4.879983
  C     -8.880556    9.734789   -3.716481
  O     -8.486434    8.886818   -4.747538
  H     -7.776537    9.345748   -5.179232
  H     -8.133950    9.561247   -2.956723
  H     -8.948586   10.842258   -3.961599
  H     -9.782943    9.514472   -3.203322

 Multiplicity           Mult            ....    1
 Number of Electrons    NEL             ....   18
 Basis Dimension        Dim             ....  172

ORBITAL ENERGIES
----------------

  NO   OCC          E(Eh)            E(eV)
   0   2.0000     -19.231412      -523.3133
   1   2.0000     -10.310708      -280.5686
   2   2.0000      -1.148997       -31.2658
   3   2.0000      -0.797242       -21.6941
   4   2.0000      -0.613350       -16.6901
   5   2.0000      -0.547021       -14.8852
   6   2.0000      -0.537175       -14.6173
   7   2.0000      -0.433180       -11.7874
   8   2.0000      -0.370230       -10.0745
   9   0.0000       0.097066         2.6413
  10   0.0000       0.120583         3.2812
  11   0.0000       0.153002         4.1634
  12   0.0000       0.193251         5.2586
  13   0.0000       0.196461         5.3460

MULLIKEN ATOMIC CHARGES
-----------------------
   0 C :    0.000099
   1 O :    0.000332
   2 H :   -0.005470
   3 H :   -0.000862
   4 H :   -0.000091
   5 H :   -0.000050
   6 C :   -0.181922
   7 O :   -0.456585
   8 H :    0.318777
   9 H :    0.106292
  10 H :    0.098044
  11 H :    0.121436
Sum of atomic charges:   -0.0000000

LOEWDIN ATOMIC CHARGES
----------------------
   0 C :   -0.001058
   1 O :   -0.000521
   2 H :   -0.010150
   3 H :   -0.000276
   4 H :   -0.000018
   5 H :   -0.000052
   6 C :   -0.407682
   7 O :   -0.047402
   8 H :    0.169663
   9 H :    0.095301
  10 H :    0.102583
  11 H :    0.099610

  Mayer bond orders larger than 0.1
B(  6-C ,  7-O ) :   0.9888 B(  6-C ,  9-H ) :   0.9915 B(  6-C , 10-H ) :   0.9695
B(  6-C , 11-H ) :   0.9724 B(  7-O ,  8-H ) :   0.8979

Dispersion correction           -0.000226195
FINAL SINGLE POINT ENERGY      -115.727629911367

DIPOLE MOMENT
-------------
                                X             Y             Z
Electronic contribution:      0.29590      -1.24558      -1.42956
Nuclear contribution   :     -0.01411       1.84866       1.56782
                        -----------------------------------------
Total Dipole Moment    :      0.28179       0.60308       0.13826
                        -----------------------------------------
Magnitude (a.u.)       :      0.67987
Magnitude (Debye)      :      1.72810

Rotational constants in cm-1:     4.429948     0.849370     0.819529
Rotational constants in MHz : 132806.513775 25463.465928 24568.850157

                             ****ORCA TERMINATED NORMALLY****
TOTAL RUN TIME: 0 days 0 hours 1 minutes 2 seconds 637 msec
