                         Program Version 4.1.2  - RELEASE  -
|  1> #Run DFT-D3 single point of the dimer
|  2> ! wB97X-D3 def2-TZVP TIGHTSCF CHELPG PMODEL PAL8
|  3>
|  4> %base "22-28_DFT_AB"
|  5>
|  6> %scf
|  7> MaxIter 1000
|  8> end
|  9>
| 10> * xyz 0 1
| 11>   C                      -7.103731            6.653923             -1.669574
| 12>   O                      -6.894566            5.210805             -1.789627
| 13>   H                      -7.334692            4.689197             -1.072243
| 14>   H                      -8.194465            6.918869             -1.815733
| 15>   H                      -6.801057            7.072376             -0.661411
| 16>   H                      -6.560077            7.160748             -2.438667
| 17>   C                      -4.746335            2.880887             -0.234083
| 18>   O                      -3.568935            2.925148             0.647374
| 19>   H                      -2.796051            2.897875             0.080328
| 20>   H                      -5.155526            3.875728             -0.398932
| 21>   H                      -4.485468            2.291806             -1.159059
| 22>   H                      -5.556382            2.300064             0.263460
| 23> *
| 24>
| 25> #Run DFT-D3 single point of the molecule with dimer basis set
| 26> $new_job
| 27> %base "22-28_DFT_A"
| 28> ! wB97X-D3 def2-TZVP TIGHTSCF CHELPG PMODEL
| 29>
| 30> %scf
| 31> MaxIter 1000
| 32> end
| 33>
| 34> * xyz 0 1
| 35>   C                      -7.103731            6.653923             -1.669574
| 36>   O                      -6.894566            5.210805             -1.789627
| 37>   H                      -7.334692            4.689197             -1.072243
| 38>   H                      -8.194465            6.918869             -1.815733
| 39>   H                      -6.801057            7.072376             -0.661411
| 40>   H                      -6.560077            7.160748             -2.438667
| 41>   C                    : -4.746335            2.880887             -0.234083
| 42>   O                    : -3.568935            2.925148             0.647374
| 43>   H                    : -2.796051            2.897875             0.080328
| 44>   H                    : -5.155526            3.875728             -0.398932
| 45>   H                    : -4.485468            2.291806             -1.159059
| 46>   H                    : -5.556382            2.300064             0.263460
| 47> *
| 48>
| 49> #Run DFT-D3 single point of the particle with dimer basis set
| 50> $new_job
| 51> %base "22-28_DFT_B"
| 52> ! wB97X-D3 def2-TZVP TIGHTSCF CHELPG PMODEL
| 53>
| 54> %scf
| 55> MaxIter 1000
| 56> end
| 57>
| 58> * xyz 0 1
| 59>   C                    : -7.103731            6.653923             -1.669574
| 60>   O                    : -6.894566            5.210805             -1.789627
| 61>   H                    : -7.334692            4.689197             -1.072243
| 62>   H                    : -8.194465            6.918869             -1.815733
| 63>   H                    : -6.801057            7.072376             -0.661411
| 64>   H                    : -6.560077            7.160748             -2.438667
| 65>   C                      -4.746335            2.880887             -0.234083
| 66>   O                      -3.568935            2.925148             0.647374
| 67>   H                      -2.796051            2.897875             0.080328
| 68>   H                      -5.155526            3.875728             -0.398932
| 69>   H                      -4.485468            2.291806             -1.159059
| 70>   H                      -5.556382            2.300064             0.263460
| 71> *
| 72>
| 73>                          ****END OF INPUT****
 Total Charge           Charge          ....    0
 Multiplicity           Mult            ....    1
 Number of Electrons    NEL             ....   36
Dispersion correction           -0.001442969
FINAL SINGLE POINT ENERGY      -231.465488298148
Dispersion correction           -0.000295650
FINAL SINGLE POINT ENERGY      -115.732125837038

CARTESIAN COORDINATES (ANGSTROEM)
---------------------------------
  C     -7.103731    6.653923   -1.669574
  O     -6.894566    5.210805   -1.789627
  H     -7.334692    4.689197   -1.072243
  H     -8.194465    6.918869   -1.815733
  H     -6.801057    7.072376   -0.661411
  H     -6.560077    7.160748   -2.438667
  C     -4.746335    2.880887   -0.234083
  O     -3.568935    2.925148    0.647374
  H     -2.796051    2.897875    0.080328
  H     -5.155526    3.875728   -0.398932
  H     -4.485468    2.291806   -1.159059
  H     -5.556382    2.300064    0.263460

 Multiplicity           Mult            ....    1
 Number of Electrons    NEL             ....   18
 Basis Dimension        Dim             ....  172

ORBITAL ENERGIES
----------------

  NO   OCC          E(Eh)            E(eV)
   0   2.0000     -19.228635      -523.2378
   1   2.0000     -10.323441      -280.9151
   2   2.0000      -1.119590       -30.4656
   3   2.0000      -0.793440       -21.5906
   4   2.0000      -0.595721       -16.2104
   5   2.0000      -0.541821       -14.7437
   6   2.0000      -0.518079       -14.0977
   7   2.0000      -0.432093       -11.7579
   8   2.0000      -0.376041       -10.2326
   9   0.0000       0.083148         2.2626
  10   0.0000       0.114090         3.1045
  11   0.0000       0.140390         3.8202
  12   0.0000       0.182014         4.9529
  13   0.0000       0.186467         5.0740

MULLIKEN ATOMIC CHARGES
-----------------------
   0 C :   -0.000323
   1 O :   -0.000353
   2 H :   -0.000431
   3 H :    0.000005
   4 H :   -0.000067
   5 H :    0.000010
   6 C :   -0.177604
   7 O :   -0.481517
   8 H :    0.313421
   9 H :    0.116161
  10 H :    0.111221
  11 H :    0.119478
Sum of atomic charges:    0.0000000

LOEWDIN ATOMIC CHARGES
----------------------
   0 C :   -0.000847
   1 O :   -0.004366
   2 H :   -0.003317
   3 H :   -0.000013
   4 H :   -0.000092
   5 H :   -0.000019
   6 C :   -0.349742
   7 O :   -0.119556
   8 H :    0.162454
   9 H :    0.099352
  10 H :    0.106026
  11 H :    0.110120

  Mayer bond orders larger than 0.1
B(  6-C ,  7-O ) :   0.9947 B(  6-C ,  9-H ) :   0.9717 B(  6-C , 10-H ) :   0.9808
B(  6-C , 11-H ) :   0.9713 B(  7-O ,  8-H ) :   0.9036

Dispersion correction           -0.000270240
FINAL SINGLE POINT ENERGY      -115.732225764635

DIPOLE MOMENT
-------------
                                X             Y             Z
Electronic contribution:      1.36775       0.16046       1.14530
Nuclear contribution   :     -1.38444      -0.21217      -1.87288
                        -----------------------------------------
Total Dipole Moment    :     -0.01669      -0.05171      -0.72758
                        -----------------------------------------
Magnitude (a.u.)       :      0.72961
Magnitude (Debye)      :      1.85452

Rotational constants in cm-1:     4.148902     0.779197     0.752673
Rotational constants in MHz : 124380.959009 23359.741347 22564.574022

                             ****ORCA TERMINATED NORMALLY****
TOTAL RUN TIME: 0 days 0 hours 0 minutes 58 seconds 522 msec
