                         Program Version 4.1.2  - RELEASE  -
|  1> #Run DFT-D3 single point of the dimer
|  2> ! wB97X-D3 def2-TZVP TIGHTSCF CHELPG PMODEL PAL8
|  3>
|  4> %base "9-61_DFT_AB"
|  5>
|  6> %scf
|  7> MaxIter 1000
|  8> end
|  9>
| 10> * xyz 0 1
| 11>   C                      8.125646             0.140868             0.205538
| 12>   O                      9.020085             0.985751             0.913121
| 13>   H                      8.829592             1.132982             1.835882
| 14>   H                      7.075105             0.521568             0.141395
| 15>   H                      8.639908             -0.057721            -0.755773
| 16>   H                      8.148752             -0.882839            0.640323
| 17>   C                      10.513409            -2.443197            4.555221
| 18>   O                      9.590248             -1.465275            4.817014
| 19>   H                      9.521846             -0.879403            4.054559
| 20>   H                      10.702406            -3.145262            5.437291
| 21>   H                      10.226027            -3.121277            3.698400
| 22>   H                      11.448458            -1.960485            4.280155
| 23> *
| 24>
| 25> #Run DFT-D3 single point of the molecule with dimer basis set
| 26> $new_job
| 27> %base "9-61_DFT_A"
| 28> ! wB97X-D3 def2-TZVP TIGHTSCF CHELPG PMODEL
| 29>
| 30> %scf
| 31> MaxIter 1000
| 32> end
| 33>
| 34> * xyz 0 1
| 35>   C                      8.125646             0.140868             0.205538
| 36>   O                      9.020085             0.985751             0.913121
| 37>   H                      8.829592             1.132982             1.835882
| 38>   H                      7.075105             0.521568             0.141395
| 39>   H                      8.639908             -0.057721            -0.755773
| 40>   H                      8.148752             -0.882839            0.640323
| 41>   C                    : 10.513409            -2.443197            4.555221
| 42>   O                    : 9.590248             -1.465275            4.817014
| 43>   H                    : 9.521846             -0.879403            4.054559
| 44>   H                    : 10.702406            -3.145262            5.437291
| 45>   H                    : 10.226027            -3.121277            3.698400
| 46>   H                    : 11.448458            -1.960485            4.280155
| 47> *
| 48>
| 49> #Run DFT-D3 single point of the particle with dimer basis set
| 50> $new_job
| 51> %base "9-61_DFT_B"
| 52> ! wB97X-D3 def2-TZVP TIGHTSCF CHELPG PMODEL
| 53>
| 54> %scf
| 55> MaxIter 1000
| 56> end
| 57>
| 58> * xyz 0 1
| 59>   C                    : 8.125646             0.140868             0.205538
| 60>   O                    : 9.020085             0.985751             0.913121
| 61>   H                    : 8.829592             1.132982             1.835882
| 62>   H                    : 7.075105             0.521568             0.141395
| 63>   H                    : 8.639908             -0.057721            -0.755773
| 64>   H                    : 8.148752             -0.882839            0.640323
| 65>   C                      10.513409            -2.443197            4.555221
| 66>   O                      9.590248             -1.465275            4.817014
| 67>   H                      9.521846             -0.879403            4.054559
| 68>   H                      10.702406            -3.145262            5.437291
| 69>   H                      10.226027            -3.121277            3.698400
| 70>   H                      11.448458            -1.960485            4.280155
| 71> *
| 72>
| 73>                          ****END OF INPUT****
 Total Charge           Charge          ....    0
 Multiplicity           Mult            ....    1
 Number of Electrons    NEL             ....   36
Dispersion correction           -0.000955466
FINAL SINGLE POINT ENERGY      -231.464281914496
Dispersion correction           -0.000272531
FINAL SINGLE POINT ENERGY      -115.731894159372

CARTESIAN COORDINATES (ANGSTROEM)
---------------------------------
  C      8.125646    0.140868    0.205538
  O      9.020085    0.985751    0.913121
  H      8.829592    1.132982    1.835882
  H      7.075105    0.521568    0.141395
  H      8.639908   -0.057721   -0.755773
  H      8.148752   -0.882839    0.640323
  C     10.513409   -2.443197    4.555221
  O      9.590248   -1.465275    4.817014
  H      9.521846   -0.879403    4.054559
  H     10.702406   -3.145262    5.437291
  H     10.226027   -3.121277    3.698400
  H     11.448458   -1.960485    4.280155

 Multiplicity           Mult            ....    1
 Number of Electrons    NEL             ....   18
 Basis Dimension        Dim             ....  172

ORBITAL ENERGIES
----------------

  NO   OCC          E(Eh)            E(eV)
   0   2.0000     -19.231241      -523.3087
   1   2.0000     -10.317549      -280.7548
   2   2.0000      -1.150402       -31.3040
   3   2.0000      -0.788104       -21.4454
   4   2.0000      -0.618909       -16.8414
   5   2.0000      -0.545582       -14.8460
   6   2.0000      -0.530589       -14.4381
   7   2.0000      -0.425652       -11.5826
   8   2.0000      -0.369533       -10.0555
   9   0.0000       0.071104         1.9348
  10   0.0000       0.118804         3.2328
  11   0.0000       0.144679         3.9369
  12   0.0000       0.173516         4.7216
  13   0.0000       0.192749         5.2450

MULLIKEN ATOMIC CHARGES
-----------------------
   0 C :    0.000089
   1 O :    0.000003
   2 H :   -0.000188
   3 H :    0.000001
   4 H :   -0.000004
   5 H :   -0.000251
   6 C :   -0.162738
   7 O :   -0.463333
   8 H :    0.320154
   9 H :    0.117517
  10 H :    0.091053
  11 H :    0.097697
Sum of atomic charges:    0.0000000

LOEWDIN ATOMIC CHARGES
----------------------
   0 C :   -0.000103
   1 O :   -0.000061
   2 H :   -0.000566
   3 H :   -0.000000
   4 H :   -0.000001
   5 H :   -0.000106
   6 C :   -0.430794
   7 O :   -0.047028
   8 H :    0.176401
   9 H :    0.117049
  10 H :    0.094998
  11 H :    0.090211

  Mayer bond orders larger than 0.1
B(  6-C ,  7-O ) :   1.0010 B(  6-C ,  9-H ) :   0.9674 B(  6-C , 10-H ) :   0.9719
B(  6-C , 11-H ) :   0.9851 B(  7-O ,  8-H ) :   0.8930

Dispersion correction           -0.000231996
FINAL SINGLE POINT ENERGY      -115.732312881008

DIPOLE MOMENT
-------------
                                X             Y             Z
Electronic contribution:     -1.29469       1.30827       0.52944
Nuclear contribution   :      1.59600      -1.27898      -1.10374
                        -----------------------------------------
Total Dipole Moment    :      0.30131       0.02929      -0.57429
                        -----------------------------------------
Magnitude (a.u.)       :      0.64920
Magnitude (Debye)      :      1.65013

Rotational constants in cm-1:     4.208815     0.864688     0.829921
Rotational constants in MHz : 126177.090068 25922.707923 24880.419395

                             ****ORCA TERMINATED NORMALLY****
TOTAL RUN TIME: 0 days 0 hours 0 minutes 41 seconds 458 msec
