                         Program Version 4.1.2  - RELEASE  -
|  1> #Run DFT-D3 single point of the dimer
|  2> ! wB97X-D3 def2-TZVP TIGHTSCF CHELPG PMODEL PAL8
|  3>
|  4> %base "15-35_DFT_AB"
|  5>
|  6> %scf
|  7> MaxIter 1000
|  8> end
|  9>
| 10> * xyz 0 1
| 11>   C                      -6.215711            8.702306             -1.753921
| 12>   O                      -6.204522            7.278721             -1.947713
| 13>   H                      -7.104918            7.064609             -2.073756
| 14>   H                      -5.527617            9.106006             -0.946702
| 15>   H                      -5.940116            9.260479             -2.642426
| 16>   H                      -7.167443            9.114555             -1.494518
| 17>   C                      -10.794103           7.923745             -0.381378
| 18>   O                      -9.384621            8.224671             -0.537492
| 19>   H                      -8.927272            7.739375             0.112836
| 20>   H                      -11.348183           8.222421             -1.285125
| 21>   H                      -10.884560           6.832683             -0.192969
| 22>   H                      -11.337824           8.388577             0.464184
| 23> *
| 24>
| 25> #Run DFT-D3 single point of the molecule with dimer basis set
| 26> $new_job
| 27> %base "15-35_DFT_A"
| 28> ! wB97X-D3 def2-TZVP TIGHTSCF CHELPG PMODEL
| 29>
| 30> %scf
| 31> MaxIter 1000
| 32> end
| 33>
| 34> * xyz 0 1
| 35>   C                      -6.215711            8.702306             -1.753921
| 36>   O                      -6.204522            7.278721             -1.947713
| 37>   H                      -7.104918            7.064609             -2.073756
| 38>   H                      -5.527617            9.106006             -0.946702
| 39>   H                      -5.940116            9.260479             -2.642426
| 40>   H                      -7.167443            9.114555             -1.494518
| 41>   C                    : -10.794103           7.923745             -0.381378
| 42>   O                    : -9.384621            8.224671             -0.537492
| 43>   H                    : -8.927272            7.739375             0.112836
| 44>   H                    : -11.348183           8.222421             -1.285125
| 45>   H                    : -10.884560           6.832683             -0.192969
| 46>   H                    : -11.337824           8.388577             0.464184
| 47> *
| 48>
| 49> #Run DFT-D3 single point of the particle with dimer basis set
| 50> $new_job
| 51> %base "15-35_DFT_B"
| 52> ! wB97X-D3 def2-TZVP TIGHTSCF CHELPG PMODEL
| 53>
| 54> %scf
| 55> MaxIter 1000
| 56> end
| 57>
| 58> * xyz 0 1
| 59>   C                    : -6.215711            8.702306             -1.753921
| 60>   O                    : -6.204522            7.278721             -1.947713
| 61>   H                    : -7.104918            7.064609             -2.073756
| 62>   H                    : -5.527617            9.106006             -0.946702
| 63>   H                    : -5.940116            9.260479             -2.642426
| 64>   H                    : -7.167443            9.114555             -1.494518
| 65>   C                      -10.794103           7.923745             -0.381378
| 66>   O                      -9.384621            8.224671             -0.537492
| 67>   H                      -8.927272            7.739375             0.112836
| 68>   H                      -11.348183           8.222421             -1.285125
| 69>   H                      -10.884560           6.832683             -0.192969
| 70>   H                      -11.337824           8.388577             0.464184
| 71> *
| 72>
| 73>                          ****END OF INPUT****
 Total Charge           Charge          ....    0
 Multiplicity           Mult            ....    1
 Number of Electrons    NEL             ....   36
Dispersion correction           -0.001654461
FINAL SINGLE POINT ENERGY      -231.467054768329
Dispersion correction           -0.000266581
FINAL SINGLE POINT ENERGY      -115.730067833338

CARTESIAN COORDINATES (ANGSTROEM)
---------------------------------
  C     -6.215711    8.702306   -1.753921
  O     -6.204522    7.278721   -1.947713
  H     -7.104918    7.064609   -2.073756
  H     -5.527617    9.106006   -0.946702
  H     -5.940116    9.260479   -2.642426
  H     -7.167443    9.114555   -1.494518
  C    -10.794103    7.923745   -0.381378
  O     -9.384621    8.224671   -0.537492
  H     -8.927272    7.739375    0.112836
  H    -11.348183    8.222421   -1.285125
  H    -10.884560    6.832683   -0.192969
  H    -11.337824    8.388577    0.464184

 Multiplicity           Mult            ....    1
 Number of Electrons    NEL             ....   18
 Basis Dimension        Dim             ....  172

ORBITAL ENERGIES
----------------

  NO   OCC          E(Eh)            E(eV)
   0   2.0000     -19.231341      -523.3114
   1   2.0000     -10.321963      -280.8749
   2   2.0000      -1.134317       -30.8663
   3   2.0000      -0.797575       -21.7031
   4   2.0000      -0.610956       -16.6250
   5   2.0000      -0.535535       -14.5726
   6   2.0000      -0.522425       -14.2159
   7   2.0000      -0.440967       -11.9993
   8   2.0000      -0.376016       -10.2319
   9   0.0000       0.094771         2.5789
  10   0.0000       0.125539         3.4161
  11   0.0000       0.152414         4.1474
  12   0.0000       0.180038         4.8991
  13   0.0000       0.194513         5.2930

MULLIKEN ATOMIC CHARGES
-----------------------
   0 C :    0.004900
   1 O :    0.000345
   2 H :   -0.005910
   3 H :   -0.000141
   4 H :   -0.000361
   5 H :   -0.009742
   6 C :   -0.181349
   7 O :   -0.457431
   8 H :    0.310565
   9 H :    0.128913
  10 H :    0.105396
  11 H :    0.104815
Sum of atomic charges:   -0.0000000

LOEWDIN ATOMIC CHARGES
----------------------
   0 C :   -0.005373
   1 O :   -0.000401
   2 H :   -0.004722
   3 H :   -0.000041
   4 H :   -0.000028
   5 H :   -0.009353
   6 C :   -0.364551
   7 O :   -0.071474
   8 H :    0.149127
   9 H :    0.110510
  10 H :    0.099943
  11 H :    0.096363

  Mayer bond orders larger than 0.1
B(  6-C ,  7-O ) :   0.9969 B(  6-C ,  9-H ) :   0.9762 B(  6-C , 10-H ) :   0.9820
B(  6-C , 11-H ) :   0.9614 B(  7-O ,  8-H ) :   0.9047

Dispersion correction           -0.000264749
FINAL SINGLE POINT ENERGY      -115.732895013910

DIPOLE MOMENT
-------------
                                X             Y             Z
Electronic contribution:      1.76974       0.54005      -0.31745
Nuclear contribution   :     -2.07442      -0.98124       0.80319
                        -----------------------------------------
Total Dipole Moment    :     -0.30468      -0.44119       0.48574
                        -----------------------------------------
Magnitude (a.u.)       :      0.72348
Magnitude (Debye)      :      1.83894

Rotational constants in cm-1:     4.323167     0.796052     0.762907
Rotational constants in MHz : 129605.281323 23865.026514 22871.372768

                             ****ORCA TERMINATED NORMALLY****
TOTAL RUN TIME: 0 days 0 hours 1 minutes 1 seconds 159 msec
