                         Program Version 4.1.2  - RELEASE  -
|  1> #Run DFT-D3 single point of the dimer
|  2> ! wB97X-D3 def2-TZVP TIGHTSCF CHELPG PMODEL PAL8
|  3>
|  4> %base "10-124_DFT_AB"
|  5>
|  6> %scf
|  7> MaxIter 1000
|  8> end
|  9>
| 10> * xyz 0 1
| 11>   C                      3.098485             -10.254710           3.154652
| 12>   O                      1.929443             -10.645468           2.413402
| 13>   H                      1.326363             -9.867213            2.392018
| 14>   H                      3.838667             -9.664771            2.574647
| 15>   H                      2.839848             -9.539749            3.990909
| 16>   H                      3.496632             -11.128306           3.655965
| 17>   C                      2.675618             -6.203368            1.633675
| 18>   O                      2.444537             -7.647593            1.736509
| 19>   H                      2.723204             -7.991222            2.578155
| 20>   H                      3.587809             -5.803961            2.130303
| 21>   H                      2.623426             -5.896592            0.648112
| 22>   H                      1.901644             -5.689782            2.197919
| 23> *
| 24>
| 25> #Run DFT-D3 single point of the molecule with dimer basis set
| 26> $new_job
| 27> %base "10-124_DFT_A"
| 28> ! wB97X-D3 def2-TZVP TIGHTSCF CHELPG PMODEL
| 29>
| 30> %scf
| 31> MaxIter 1000
| 32> end
| 33>
| 34> * xyz 0 1
| 35>   C                      3.098485             -10.254710           3.154652
| 36>   O                      1.929443             -10.645468           2.413402
| 37>   H                      1.326363             -9.867213            2.392018
| 38>   H                      3.838667             -9.664771            2.574647
| 39>   H                      2.839848             -9.539749            3.990909
| 40>   H                      3.496632             -11.128306           3.655965
| 41>   C                    : 2.675618             -6.203368            1.633675
| 42>   O                    : 2.444537             -7.647593            1.736509
| 43>   H                    : 2.723204             -7.991222            2.578155
| 44>   H                    : 3.587809             -5.803961            2.130303
| 45>   H                    : 2.623426             -5.896592            0.648112
| 46>   H                    : 1.901644             -5.689782            2.197919
| 47> *
| 48>
| 49> #Run DFT-D3 single point of the particle with dimer basis set
| 50> $new_job
| 51> %base "10-124_DFT_B"
| 52> ! wB97X-D3 def2-TZVP TIGHTSCF CHELPG PMODEL
| 53>
| 54> %scf
| 55> MaxIter 1000
| 56> end
| 57>
| 58> * xyz 0 1
| 59>   C                    : 3.098485             -10.254710           3.154652
| 60>   O                    : 1.929443             -10.645468           2.413402
| 61>   H                    : 1.326363             -9.867213            2.392018
| 62>   H                    : 3.838667             -9.664771            2.574647
| 63>   H                    : 2.839848             -9.539749            3.990909
| 64>   H                    : 3.496632             -11.128306           3.655965
| 65>   C                      2.675618             -6.203368            1.633675
| 66>   O                      2.444537             -7.647593            1.736509
| 67>   H                      2.723204             -7.991222            2.578155
| 68>   H                      3.587809             -5.803961            2.130303
| 69>   H                      2.623426             -5.896592            0.648112
| 70>   H                      1.901644             -5.689782            2.197919
| 71> *
| 72>
| 73>                          ****END OF INPUT****
 Total Charge           Charge          ....    0
 Multiplicity           Mult            ....    1
 Number of Electrons    NEL             ....   36
Dispersion correction           -0.001876083
FINAL SINGLE POINT ENERGY      -231.463023957047
Dispersion correction           -0.000264083
FINAL SINGLE POINT ENERGY      -115.732844700044

CARTESIAN COORDINATES (ANGSTROEM)
---------------------------------
  C      3.098485  -10.254710    3.154652
  O      1.929443  -10.645468    2.413402
  H      1.326363   -9.867213    2.392018
  H      3.838667   -9.664771    2.574647
  H      2.839848   -9.539749    3.990909
  H      3.496632  -11.128306    3.655965
  C      2.675618   -6.203368    1.633675
  O      2.444537   -7.647593    1.736509
  H      2.723204   -7.991222    2.578155
  H      3.587809   -5.803961    2.130303
  H      2.623426   -5.896592    0.648112
  H      1.901644   -5.689782    2.197919

 Multiplicity           Mult            ....    1
 Number of Electrons    NEL             ....   18
 Basis Dimension        Dim             ....  172

ORBITAL ENERGIES
----------------

  NO   OCC          E(Eh)            E(eV)
   0   2.0000     -19.230131      -523.2785
   1   2.0000     -10.314049      -280.6595
   2   2.0000      -1.121336       -30.5131
   3   2.0000      -0.806571       -21.9479
   4   2.0000      -0.607881       -16.5413
   5   2.0000      -0.537811       -14.6346
   6   2.0000      -0.521788       -14.1986
   7   2.0000      -0.440940       -11.9986
   8   2.0000      -0.373257       -10.1568
   9   0.0000       0.081729         2.2239
  10   0.0000       0.132886         3.6160
  11   0.0000       0.158408         4.3105
  12   0.0000       0.175147         4.7660
  13   0.0000       0.196283         5.3411

MULLIKEN ATOMIC CHARGES
-----------------------
   0 C :    0.003826
   1 O :    0.001597
   2 H :   -0.005421
   3 H :   -0.011160
   4 H :   -0.001633
   5 H :   -0.000202
   6 C :   -0.176159
   7 O :   -0.471699
   8 H :    0.312551
   9 H :    0.105800
  10 H :    0.133403
  11 H :    0.109098
Sum of atomic charges:   -0.0000000

LOEWDIN ATOMIC CHARGES
----------------------
   0 C :   -0.018178
   1 O :   -0.001758
   2 H :   -0.008427
   3 H :   -0.009184
   4 H :   -0.003603
   5 H :   -0.000116
   6 C :   -0.337184
   7 O :   -0.083977
   8 H :    0.169027
   9 H :    0.101749
  10 H :    0.094330
  11 H :    0.097321

  Mayer bond orders larger than 0.1
B(  6-C ,  7-O ) :   0.9889 B(  6-C ,  9-H ) :   0.9721 B(  6-C , 10-H ) :   0.9745
B(  6-C , 11-H ) :   0.9810 B(  7-O ,  8-H ) :   0.9005

Dispersion correction           -0.000275861
FINAL SINGLE POINT ENERGY      -115.730257998909

DIPOLE MOMENT
-------------
                                X             Y             Z
Electronic contribution:     -0.27124      -1.79342      -0.15282
Nuclear contribution   :      0.54080       2.22983       0.64395
                        -----------------------------------------
Total Dipole Moment    :      0.26956       0.43640       0.49113
                        -----------------------------------------
Magnitude (a.u.)       :      0.71015
Magnitude (Debye)      :      1.80506

Rotational constants in cm-1:     4.516177     0.780199     0.749518
Rotational constants in MHz : 135391.592909 23389.781830 22469.987316

                             ****ORCA TERMINATED NORMALLY****
TOTAL RUN TIME: 0 days 0 hours 1 minutes 2 seconds 719 msec
