                         Program Version 4.1.2  - RELEASE  -
|  1> #Run DFT-D3 single point of the dimer
|  2> ! wB97X-D3 def2-TZVP TIGHTSCF CHELPG PMODEL PAL8
|  3>
|  4> %base "16-134_DFT_AB"
|  5>
|  6> %scf
|  7> MaxIter 1000
|  8> end
|  9>
| 10> * xyz 0 1
| 11>   C                      -5.763177            10.794706            6.945043
| 12>   O                      -5.893133            10.454738            8.266319
| 13>   H                      -6.478443            11.113643            8.738808
| 14>   H                      -6.778517            10.830846            6.337616
| 15>   H                      -5.163623            11.696294            6.813743
| 16>   H                      -5.224453            9.985906             6.412803
| 17>   C                      -2.556372            10.486308            8.852101
| 18>   O                      -1.194580            10.615221            9.108786
| 19>   H                      -1.253816            10.952728            9.987815
| 20>   H                      -3.170197            10.257976            9.700759
| 21>   H                      -2.891611            11.454878            8.371440
| 22>   H                      -2.706511            9.691186             8.206647
| 23> *
| 24>
| 25> #Run DFT-D3 single point of the molecule with dimer basis set
| 26> $new_job
| 27> %base "16-134_DFT_A"
| 28> ! wB97X-D3 def2-TZVP TIGHTSCF CHELPG PMODEL
| 29>
| 30> %scf
| 31> MaxIter 1000
| 32> end
| 33>
| 34> * xyz 0 1
| 35>   C                      -5.763177            10.794706            6.945043
| 36>   O                      -5.893133            10.454738            8.266319
| 37>   H                      -6.478443            11.113643            8.738808
| 38>   H                      -6.778517            10.830846            6.337616
| 39>   H                      -5.163623            11.696294            6.813743
| 40>   H                      -5.224453            9.985906             6.412803
| 41>   C                    : -2.556372            10.486308            8.852101
| 42>   O                    : -1.194580            10.615221            9.108786
| 43>   H                    : -1.253816            10.952728            9.987815
| 44>   H                    : -3.170197            10.257976            9.700759
| 45>   H                    : -2.891611            11.454878            8.371440
| 46>   H                    : -2.706511            9.691186             8.206647
| 47> *
| 48>
| 49> #Run DFT-D3 single point of the particle with dimer basis set
| 50> $new_job
| 51> %base "16-134_DFT_B"
| 52> ! wB97X-D3 def2-TZVP TIGHTSCF CHELPG PMODEL
| 53>
| 54> %scf
| 55> MaxIter 1000
| 56> end
| 57>
| 58> * xyz 0 1
| 59>   C                    : -5.763177            10.794706            6.945043
| 60>   O                    : -5.893133            10.454738            8.266319
| 61>   H                    : -6.478443            11.113643            8.738808
| 62>   H                    : -6.778517            10.830846            6.337616
| 63>   H                    : -5.163623            11.696294            6.813743
| 64>   H                    : -5.224453            9.985906             6.412803
| 65>   C                      -2.556372            10.486308            8.852101
| 66>   O                      -1.194580            10.615221            9.108786
| 67>   H                      -1.253816            10.952728            9.987815
| 68>   H                      -3.170197            10.257976            9.700759
| 69>   H                      -2.891611            11.454878            8.371440
| 70>   H                      -2.706511            9.691186             8.206647
| 71> *
| 72>
| 73>                          ****END OF INPUT****
 Total Charge           Charge          ....    0
 Multiplicity           Mult            ....    1
 Number of Electrons    NEL             ....   36
Dispersion correction           -0.001876861
FINAL SINGLE POINT ENERGY      -231.459804057865
Dispersion correction           -0.000259392
FINAL SINGLE POINT ENERGY      -115.730011770413

CARTESIAN COORDINATES (ANGSTROEM)
---------------------------------
  C     -5.763177   10.794706    6.945043
  O     -5.893133   10.454738    8.266319
  H     -6.478443   11.113643    8.738808
  H     -6.778517   10.830846    6.337616
  H     -5.163623   11.696294    6.813743
  H     -5.224453    9.985906    6.412803
  C     -2.556372   10.486308    8.852101
  O     -1.194580   10.615221    9.108786
  H     -1.253816   10.952728    9.987815
  H     -3.170197   10.257976    9.700759
  H     -2.891611   11.454878    8.371440
  H     -2.706511    9.691186    8.206647

 Multiplicity           Mult            ....    1
 Number of Electrons    NEL             ....   18
 Basis Dimension        Dim             ....  172

ORBITAL ENERGIES
----------------

  NO   OCC          E(Eh)            E(eV)
   0   2.0000     -19.230014      -523.2753
   1   2.0000     -10.305873      -280.4371
   2   2.0000      -1.153765       -31.3955
   3   2.0000      -0.795824       -21.6555
   4   2.0000      -0.618500       -16.8302
   5   2.0000      -0.550682       -14.9848
   6   2.0000      -0.525336       -14.2951
   7   2.0000      -0.446175       -12.1410
   8   2.0000      -0.372361       -10.1325
   9   0.0000       0.081834         2.2268
  10   0.0000       0.117127         3.1872
  11   0.0000       0.156100         4.2477
  12   0.0000       0.162839         4.4311
  13   0.0000       0.177173         4.8211

MULLIKEN ATOMIC CHARGES
-----------------------
   0 C :    0.000849
   1 O :   -0.000102
   2 H :   -0.000110
   3 H :   -0.000047
   4 H :   -0.001161
   5 H :   -0.000475
   6 C :   -0.182505
   7 O :   -0.451205
   8 H :    0.311682
   9 H :    0.104802
  10 H :    0.096922
  11 H :    0.121350
Sum of atomic charges:   -0.0000000

LOEWDIN ATOMIC CHARGES
----------------------
   0 C :   -0.004197
   1 O :   -0.001237
   2 H :   -0.000173
   3 H :   -0.000027
   4 H :   -0.002031
   5 H :   -0.000532
   6 C :   -0.400332
   7 O :   -0.049264
   8 H :    0.165887
   9 H :    0.092475
  10 H :    0.106211
  11 H :    0.093219

  Mayer bond orders larger than 0.1
B(  6-C ,  7-O ) :   1.0033 B(  6-C ,  9-H ) :   0.9776 B(  6-C , 10-H ) :   0.9804
B(  6-C , 11-H ) :   0.9746 B(  7-O ,  8-H ) :   0.9093

Dispersion correction           -0.000201598
FINAL SINGLE POINT ENERGY      -115.727669636271

DIPOLE MOMENT
-------------
                                X             Y             Z
Electronic contribution:      1.83964       0.02049       0.24603
Nuclear contribution   :     -2.37493       0.09672       0.22441
                        -----------------------------------------
Total Dipole Moment    :     -0.53529       0.11721       0.47043
                        -----------------------------------------
Magnitude (a.u.)       :      0.72221
Magnitude (Debye)      :      1.83570

Rotational constants in cm-1:     4.313072     0.865354     0.843101
Rotational constants in MHz : 129302.659387 25942.668070 25275.538402

                             ****ORCA TERMINATED NORMALLY****
TOTAL RUN TIME: 0 days 0 hours 1 minutes 7 seconds 675 msec
