                         Program Version 4.1.2  - RELEASE  -
|  1> #Run DFT-D3 single point of the dimer
|  2> ! wB97X-D3 def2-TZVP TIGHTSCF CHELPG PMODEL PAL8
|  3>
|  4> %base "17-46_DFT_AB"
|  5>
|  6> %scf
|  7> MaxIter 1000
|  8> end
|  9>
| 10> * xyz 0 1
| 11>   C                      8.855435             2.500085             -1.398292
| 12>   O                      8.460156             1.355056             -0.672985
| 13>   H                      9.255421             1.118995             -0.121987
| 14>   H                      9.214119             3.364614             -0.741264
| 15>   H                      9.646805             2.202095             -2.062144
| 16>   H                      8.024161             2.826217             -2.019382
| 17>   C                      9.366187             0.624596             -5.339413
| 18>   O                      10.301075            0.533873             -6.427278
| 19>   H                      10.001555            1.286976             -6.961508
| 20>   H                      8.946661             -0.335658            -5.017299
| 21>   H                      9.898062             0.986266             -4.445433
| 22>   H                      8.551581             1.369687             -5.505726
| 23> *
| 24>
| 25> #Run DFT-D3 single point of the molecule with dimer basis set
| 26> $new_job
| 27> %base "17-46_DFT_A"
| 28> ! wB97X-D3 def2-TZVP TIGHTSCF CHELPG PMODEL
| 29>
| 30> %scf
| 31> MaxIter 1000
| 32> end
| 33>
| 34> * xyz 0 1
| 35>   C                      8.855435             2.500085             -1.398292
| 36>   O                      8.460156             1.355056             -0.672985
| 37>   H                      9.255421             1.118995             -0.121987
| 38>   H                      9.214119             3.364614             -0.741264
| 39>   H                      9.646805             2.202095             -2.062144
| 40>   H                      8.024161             2.826217             -2.019382
| 41>   C                    : 9.366187             0.624596             -5.339413
| 42>   O                    : 10.301075            0.533873             -6.427278
| 43>   H                    : 10.001555            1.286976             -6.961508
| 44>   H                    : 8.946661             -0.335658            -5.017299
| 45>   H                    : 9.898062             0.986266             -4.445433
| 46>   H                    : 8.551581             1.369687             -5.505726
| 47> *
| 48>
| 49> #Run DFT-D3 single point of the particle with dimer basis set
| 50> $new_job
| 51> %base "17-46_DFT_B"
| 52> ! wB97X-D3 def2-TZVP TIGHTSCF CHELPG PMODEL
| 53>
| 54> %scf
| 55> MaxIter 1000
| 56> end
| 57>
| 58> * xyz 0 1
| 59>   C                    : 8.855435             2.500085             -1.398292
| 60>   O                    : 8.460156             1.355056             -0.672985
| 61>   H                    : 9.255421             1.118995             -0.121987
| 62>   H                    : 9.214119             3.364614             -0.741264
| 63>   H                    : 9.646805             2.202095             -2.062144
| 64>   H                    : 8.024161             2.826217             -2.019382
| 65>   C                      9.366187             0.624596             -5.339413
| 66>   O                      10.301075            0.533873             -6.427278
| 67>   H                      10.001555            1.286976             -6.961508
| 68>   H                      8.946661             -0.335658            -5.017299
| 69>   H                      9.898062             0.986266             -4.445433
| 70>   H                      8.551581             1.369687             -5.505726
| 71> *
| 72>
| 73>                          ****END OF INPUT****
 Total Charge           Charge          ....    0
 Multiplicity           Mult            ....    1
 Number of Electrons    NEL             ....   36
Dispersion correction           -0.001147302
FINAL SINGLE POINT ENERGY      -231.465192893725
Dispersion correction           -0.000231603
FINAL SINGLE POINT ENERGY      -115.733421804383

CARTESIAN COORDINATES (ANGSTROEM)
---------------------------------
  C      8.855435    2.500085   -1.398292
  O      8.460156    1.355056   -0.672985
  H      9.255421    1.118995   -0.121987
  H      9.214119    3.364614   -0.741264
  H      9.646805    2.202095   -2.062144
  H      8.024161    2.826217   -2.019382
  C      9.366187    0.624596   -5.339413
  O     10.301075    0.533873   -6.427278
  H     10.001555    1.286976   -6.961508
  H      8.946661   -0.335658   -5.017299
  H      9.898062    0.986266   -4.445433
  H      8.551581    1.369687   -5.505726

 Multiplicity           Mult            ....    1
 Number of Electrons    NEL             ....   18
 Basis Dimension        Dim             ....  172

ORBITAL ENERGIES
----------------

  NO   OCC          E(Eh)            E(eV)
   0   2.0000     -19.235638      -523.4283
   1   2.0000     -10.318667      -280.7852
   2   2.0000      -1.133949       -30.8563
   3   2.0000      -0.791266       -21.5315
   4   2.0000      -0.606668       -16.5083
   5   2.0000      -0.532243       -14.4831
   6   2.0000      -0.525294       -14.2940
   7   2.0000      -0.446756       -12.1569
   8   2.0000      -0.372857       -10.1459
   9   0.0000       0.083222         2.2646
  10   0.0000       0.111057         3.0220
  11   0.0000       0.146643         3.9904
  12   0.0000       0.167198         4.5497
  13   0.0000       0.178249         4.8504

MULLIKEN ATOMIC CHARGES
-----------------------
   0 C :    0.000582
   1 O :   -0.000013
   2 H :   -0.000018
   3 H :   -0.000052
   4 H :   -0.001693
   5 H :   -0.000118
   6 C :   -0.189749
   7 O :   -0.457766
   8 H :    0.318094
   9 H :    0.113082
  10 H :    0.111279
  11 H :    0.106372
Sum of atomic charges:    0.0000000

LOEWDIN ATOMIC CHARGES
----------------------
   0 C :   -0.001401
   1 O :   -0.000005
   2 H :   -0.000003
   3 H :   -0.000009
   4 H :   -0.002711
   5 H :   -0.000129
   6 C :   -0.383463
   7 O :   -0.095295
   8 H :    0.179493
   9 H :    0.101884
  10 H :    0.100392
  11 H :    0.101248

  Mayer bond orders larger than 0.1
B(  6-C ,  7-O ) :   1.0135 B(  6-C ,  9-H ) :   0.9703 B(  6-C , 10-H ) :   0.9781
B(  6-C , 11-H ) :   0.9834 B(  7-O ,  8-H ) :   0.9015

Dispersion correction           -0.000253057
FINAL SINGLE POINT ENERGY      -115.731033515980

DIPOLE MOMENT
-------------
                                X             Y             Z
Electronic contribution:      1.25088      -0.32575      -1.46595
Nuclear contribution   :     -1.79967       0.83233       1.56126
                        -----------------------------------------
Total Dipole Moment    :     -0.54879       0.50658       0.09531
                        -----------------------------------------
Magnitude (a.u.)       :      0.75292
Magnitude (Debye)      :      1.91376

Rotational constants in cm-1:     4.213465     0.814410     0.775574
Rotational constants in MHz : 126316.491951 24415.393893 23251.118498

                             ****ORCA TERMINATED NORMALLY****
TOTAL RUN TIME: 0 days 0 hours 1 minutes 10 seconds 159 msec
