                         Program Version 4.1.2  - RELEASE  -
|  1> #Run DFT-D3 single point of the dimer
|  2> ! wB97X-D3 def2-TZVP TIGHTSCF CHELPG PMODEL PAL8
|  3>
|  4> %base "13-133_DFT_AB"
|  5>
|  6> %scf
|  7> MaxIter 1000
|  8> end
|  9>
| 10> * xyz 0 1
| 11>   C                      -0.928917            -10.983566           -2.640763
| 12>   O                      -0.381111            -10.784562           -1.350864
| 13>   H                      -0.633451            -9.900913            -1.077589
| 14>   H                      -2.030045            -11.105637           -2.622247
| 15>   H                      -0.622373            -10.169376           -3.405240
| 16>   H                      -0.643391            -12.010807           -2.977018
| 17>   C                      0.792838             -9.070158            2.401882
| 18>   O                      0.276286             -9.218674            1.112925
| 19>   H                      0.124117             -10.154247           0.983870
| 20>   H                      1.551485             -9.769572            2.706125
| 21>   H                      1.156227             -7.997919            2.475319
| 22>   H                      0.128918             -9.274081            3.271337
| 23> *
| 24>
| 25> #Run DFT-D3 single point of the molecule with dimer basis set
| 26> $new_job
| 27> %base "13-133_DFT_A"
| 28> ! wB97X-D3 def2-TZVP TIGHTSCF CHELPG PMODEL
| 29>
| 30> %scf
| 31> MaxIter 1000
| 32> end
| 33>
| 34> * xyz 0 1
| 35>   C                      -0.928917            -10.983566           -2.640763
| 36>   O                      -0.381111            -10.784562           -1.350864
| 37>   H                      -0.633451            -9.900913            -1.077589
| 38>   H                      -2.030045            -11.105637           -2.622247
| 39>   H                      -0.622373            -10.169376           -3.405240
| 40>   H                      -0.643391            -12.010807           -2.977018
| 41>   C                    : 0.792838             -9.070158            2.401882
| 42>   O                    : 0.276286             -9.218674            1.112925
| 43>   H                    : 0.124117             -10.154247           0.983870
| 44>   H                    : 1.551485             -9.769572            2.706125
| 45>   H                    : 1.156227             -7.997919            2.475319
| 46>   H                    : 0.128918             -9.274081            3.271337
| 47> *
| 48>
| 49> #Run DFT-D3 single point of the particle with dimer basis set
| 50> $new_job
| 51> %base "13-133_DFT_B"
| 52> ! wB97X-D3 def2-TZVP TIGHTSCF CHELPG PMODEL
| 53>
| 54> %scf
| 55> MaxIter 1000
| 56> end
| 57>
| 58> * xyz 0 1
| 59>   C                    : -0.928917            -10.983566           -2.640763
| 60>   O                    : -0.381111            -10.784562           -1.350864
| 61>   H                    : -0.633451            -9.900913            -1.077589
| 62>   H                    : -2.030045            -11.105637           -2.622247
| 63>   H                    : -0.622373            -10.169376           -3.405240
| 64>   H                    : -0.643391            -12.010807           -2.977018
| 65>   C                      0.792838             -9.070158            2.401882
| 66>   O                      0.276286             -9.218674            1.112925
| 67>   H                      0.124117             -10.154247           0.983870
| 68>   H                      1.551485             -9.769572            2.706125
| 69>   H                      1.156227             -7.997919            2.475319
| 70>   H                      0.128918             -9.274081            3.271337
| 71> *
| 72>
| 73>                          ****END OF INPUT****
 Total Charge           Charge          ....    0
 Multiplicity           Mult            ....    1
 Number of Electrons    NEL             ....   36
Dispersion correction           -0.001255363
FINAL SINGLE POINT ENERGY      -231.467195453821
Dispersion correction           -0.000261866
FINAL SINGLE POINT ENERGY      -115.732653153618

CARTESIAN COORDINATES (ANGSTROEM)
---------------------------------
  C     -0.928917  -10.983566   -2.640763
  O     -0.381111  -10.784562   -1.350864
  H     -0.633451   -9.900913   -1.077589
  H     -2.030045  -11.105637   -2.622247
  H     -0.622373  -10.169376   -3.405240
  H     -0.643391  -12.010807   -2.977018
  C      0.792838   -9.070158    2.401882
  O      0.276286   -9.218674    1.112925
  H      0.124117  -10.154247    0.983870
  H      1.551485   -9.769572    2.706125
  H      1.156227   -7.997919    2.475319
  H      0.128918   -9.274081    3.271337

 Multiplicity           Mult            ....    1
 Number of Electrons    NEL             ....   18
 Basis Dimension        Dim             ....  172

ORBITAL ENERGIES
----------------

  NO   OCC          E(Eh)            E(eV)
   0   2.0000     -19.237269      -523.4727
   1   2.0000     -10.315973      -280.7119
   2   2.0000      -1.146829       -31.2068
   3   2.0000      -0.794760       -21.6265
   4   2.0000      -0.628537       -17.1034
   5   2.0000      -0.527369       -14.3504
   6   2.0000      -0.523541       -14.2463
   7   2.0000      -0.444914       -12.1067
   8   2.0000      -0.371091       -10.0979
   9   0.0000       0.087220         2.3734
  10   0.0000       0.118557         3.2261
  11   0.0000       0.147816         4.0223
  12   0.0000       0.189314         5.1515
  13   0.0000       0.194840         5.3019

MULLIKEN ATOMIC CHARGES
-----------------------
   0 C :    0.000018
   1 O :   -0.000951
   2 H :   -0.004268
   3 H :   -0.000017
   4 H :   -0.000017
   5 H :    0.000005
   6 C :   -0.176095
   7 O :   -0.448384
   8 H :    0.313015
   9 H :    0.103333
  10 H :    0.121366
  11 H :    0.091994
Sum of atomic charges:    0.0000000

LOEWDIN ATOMIC CHARGES
----------------------
   0 C :   -0.000235
   1 O :   -0.005410
   2 H :   -0.009312
   3 H :   -0.000006
   4 H :   -0.000006
   5 H :   -0.000007
   6 C :   -0.414032
   7 O :   -0.046778
   8 H :    0.173095
   9 H :    0.089206
  10 H :    0.119225
  11 H :    0.094261

  Mayer bond orders larger than 0.1
B(  6-C ,  7-O ) :   1.0051 B(  6-C ,  9-H ) :   0.9721 B(  6-C , 10-H ) :   0.9786
B(  6-C , 11-H ) :   0.9656 B(  7-O ,  8-H ) :   0.8985

Dispersion correction           -0.000255173
FINAL SINGLE POINT ENERGY      -115.729786748863

DIPOLE MOMENT
-------------
                                X             Y             Z
Electronic contribution:     -0.68063      -0.08721      -1.86473
Nuclear contribution   :      0.79145      -0.47295       2.26561
                        -----------------------------------------
Total Dipole Moment    :      0.11083      -0.56016       0.40088
                        -----------------------------------------
Magnitude (a.u.)       :      0.69769
Magnitude (Debye)      :      1.77338

Rotational constants in cm-1:     4.354158     0.845423     0.795578
Rotational constants in MHz : 130534.362689 25345.154757 23850.827559

                             ****ORCA TERMINATED NORMALLY****
TOTAL RUN TIME: 0 days 0 hours 1 minutes 11 seconds 705 msec
