                         Program Version 4.1.2  - RELEASE  -
|  1> #Run DFT-D3 single point of the dimer
|  2> ! wB97X-D3 def2-TZVP TIGHTSCF CHELPG PMODEL PAL8
|  3>
|  4> %base "11-129_DFT_AB"
|  5>
|  6> %scf
|  7> MaxIter 1000
|  8> end
|  9>
| 10> * xyz 0 1
| 11>   C                      1.863431             10.530192            0.496298
| 12>   O                      1.704632             11.724926            1.273024
| 13>   H                      0.923946             12.172261            0.891575
| 14>   H                      1.653167             9.609280             1.108343
| 15>   H                      1.152107             10.498634            -0.353203
| 16>   H                      2.935109             10.427221            0.125337
| 17>   C                      0.522925             10.778937            4.542610
| 18>   O                      1.691702             10.595625            3.819887
| 19>   H                      1.475997             11.017691            2.950456
| 20>   H                      0.185831             11.848188            4.569693
| 21>   H                      -0.205225            10.049583            4.162227
| 22>   H                      0.673300             10.484050            5.642736
| 23> *
| 24>
| 25> #Run DFT-D3 single point of the molecule with dimer basis set
| 26> $new_job
| 27> %base "11-129_DFT_A"
| 28> ! wB97X-D3 def2-TZVP TIGHTSCF CHELPG PMODEL
| 29>
| 30> %scf
| 31> MaxIter 1000
| 32> end
| 33>
| 34> * xyz 0 1
| 35>   C                      1.863431             10.530192            0.496298
| 36>   O                      1.704632             11.724926            1.273024
| 37>   H                      0.923946             12.172261            0.891575
| 38>   H                      1.653167             9.609280             1.108343
| 39>   H                      1.152107             10.498634            -0.353203
| 40>   H                      2.935109             10.427221            0.125337
| 41>   C                    : 0.522925             10.778937            4.542610
| 42>   O                    : 1.691702             10.595625            3.819887
| 43>   H                    : 1.475997             11.017691            2.950456
| 44>   H                    : 0.185831             11.848188            4.569693
| 45>   H                    : -0.205225            10.049583            4.162227
| 46>   H                    : 0.673300             10.484050            5.642736
| 47> *
| 48>
| 49> #Run DFT-D3 single point of the particle with dimer basis set
| 50> $new_job
| 51> %base "11-129_DFT_B"
| 52> ! wB97X-D3 def2-TZVP TIGHTSCF CHELPG PMODEL
| 53>
| 54> %scf
| 55> MaxIter 1000
| 56> end
| 57>
| 58> * xyz 0 1
| 59>   C                    : 1.863431             10.530192            0.496298
| 60>   O                    : 1.704632             11.724926            1.273024
| 61>   H                    : 0.923946             12.172261            0.891575
| 62>   H                    : 1.653167             9.609280             1.108343
| 63>   H                    : 1.152107             10.498634            -0.353203
| 64>   H                    : 2.935109             10.427221            0.125337
| 65>   C                      0.522925             10.778937            4.542610
| 66>   O                      1.691702             10.595625            3.819887
| 67>   H                      1.475997             11.017691            2.950456
| 68>   H                      0.185831             11.848188            4.569693
| 69>   H                      -0.205225            10.049583            4.162227
| 70>   H                      0.673300             10.484050            5.642736
| 71> *
| 72>
| 73>                          ****END OF INPUT****
 Total Charge           Charge          ....    0
 Multiplicity           Mult            ....    1
 Number of Electrons    NEL             ....   36
Dispersion correction           -0.001830017
FINAL SINGLE POINT ENERGY      -231.471425019545
Dispersion correction           -0.000267148
FINAL SINGLE POINT ENERGY      -115.733210025023

CARTESIAN COORDINATES (ANGSTROEM)
---------------------------------
  C      1.863431   10.530192    0.496298
  O      1.704632   11.724926    1.273024
  H      0.923946   12.172261    0.891575
  H      1.653167    9.609280    1.108343
  H      1.152107   10.498634   -0.353203
  H      2.935109   10.427221    0.125337
  C      0.522925   10.778937    4.542610
  O      1.691702   10.595625    3.819887
  H      1.475997   11.017691    2.950456
  H      0.185831   11.848188    4.569693
  H     -0.205225   10.049583    4.162227
  H      0.673300   10.484050    5.642736

 Multiplicity           Mult            ....    1
 Number of Electrons    NEL             ....   18
 Basis Dimension        Dim             ....  172

ORBITAL ENERGIES
----------------

  NO   OCC          E(Eh)            E(eV)
   0   2.0000     -19.235545      -523.4258
   1   2.0000     -10.319529      -280.8087
   2   2.0000      -1.145018       -31.1575
   3   2.0000      -0.782160       -21.2837
   4   2.0000      -0.607084       -16.5196
   5   2.0000      -0.553456       -15.0603
   6   2.0000      -0.525460       -14.2985
   7   2.0000      -0.426777       -11.6132
   8   2.0000      -0.373561       -10.1651
   9   0.0000       0.071255         1.9389
  10   0.0000       0.131327         3.5736
  11   0.0000       0.154273         4.1980
  12   0.0000       0.167582         4.5601
  13   0.0000       0.187125         5.0919

MULLIKEN ATOMIC CHARGES
-----------------------
   0 C :    0.000948
   1 O :   -0.002396
   2 H :   -0.000043
   3 H :   -0.005876
   4 H :    0.000127
   5 H :   -0.000227
   6 C :   -0.181910
   7 O :   -0.451994
   8 H :    0.318290
   9 H :    0.104710
  10 H :    0.106945
  11 H :    0.111426
Sum of atomic charges:   -0.0000000

LOEWDIN ATOMIC CHARGES
----------------------
   0 C :   -0.010792
   1 O :   -0.025008
   2 H :   -0.001623
   3 H :   -0.004899
   4 H :   -0.000097
   5 H :   -0.000179
   6 C :   -0.426150
   7 O :   -0.052412
   8 H :    0.209796
   9 H :    0.099252
  10 H :    0.096180
  11 H :    0.115932

  Mayer bond orders larger than 0.1
B(  6-C ,  7-O ) :   1.0040 B(  6-C ,  9-H ) :   0.9742 B(  6-C , 10-H ) :   0.9785
B(  6-C , 11-H ) :   0.9704 B(  7-O ,  8-H ) :   0.8953

Dispersion correction           -0.000224496
FINAL SINGLE POINT ENERGY      -115.730665184024

DIPOLE MOMENT
-------------
                                X             Y             Z
Electronic contribution:      1.60132      -0.25438      -0.90295
Nuclear contribution   :     -2.15006       0.57472       0.65599
                        -----------------------------------------
Total Dipole Moment    :     -0.54874       0.32033      -0.24696
                        -----------------------------------------
Magnitude (a.u.)       :      0.68170
Magnitude (Debye)      :      1.73276

Rotational constants in cm-1:     4.018781     0.857134     0.828389
Rotational constants in MHz : 120480.031095 25696.230436 24834.474703

                             ****ORCA TERMINATED NORMALLY****
TOTAL RUN TIME: 0 days 0 hours 1 minutes 15 seconds 596 msec
