                         Program Version 4.1.2  - RELEASE  -
|  1> #Run DFT-D3 single point of the dimer
|  2> ! wB97X-D3 def2-TZVP TIGHTSCF  CHELPG PAL8
|  3>
|  4> %base "106_charges"
|  5>
|  6> %scf
|  7> MaxIter 1000
|  8> end
|  9> %output
| 10>   Print[ P_Mayer ] 1
| 11>   Print[ P_NatPop ] 1
| 12>   Print[ P_Hirshfeld ] 1
| 13>   Print[ P_Mulliken ] 1
| 14>   Print [ P_Loewdin ] 1
| 15> end
| 16>
| 17> * xyz 0 1
| 18>   C                      8.442610             -2.694539            -10.295550
| 19>   O                      8.893716             -1.730356            -11.267304
| 20>   H                      8.372021             -1.803997            -12.069838
| 21>   H                      8.085913             -3.614369            -10.685009
| 22>   H                      9.174335             -2.948121            -9.549247
| 23>   H                      7.523256             -2.319667            -9.847647
| 24> *
| 25>
| 26>                          ****END OF INPUT****

CARTESIAN COORDINATES (ANGSTROEM)
---------------------------------
  C      8.442610   -2.694539  -10.295550
  O      8.893716   -1.730356  -11.267304
  H      8.372021   -1.803997  -12.069838
  H      8.085913   -3.614369  -10.685009
  H      9.174335   -2.948121   -9.549247
  H      7.523256   -2.319667   -9.847647

 Total Charge           Charge          ....    0
 Multiplicity           Mult            ....    1
 Number of Electrons    NEL             ....   18
 Basis Dimension        Dim             ....   86

ORBITAL ENERGIES
----------------

  NO   OCC          E(Eh)            E(eV)
   0   2.0000     -19.229710      -523.2670
   1   2.0000     -10.309757      -280.5427
   2   2.0000      -1.126402       -30.6510
   3   2.0000      -0.803867       -21.8743
   4   2.0000      -0.612405       -16.6644
   5   2.0000      -0.540552       -14.7092
   6   2.0000      -0.520065       -14.1517
   7   2.0000      -0.438493       -11.9320
   8   2.0000      -0.371732       -10.1154
   9   0.0000       0.115936         3.1548
  10   0.0000       0.152134         4.1398
  11   0.0000       0.200065         5.4440
  12   0.0000       0.209903         5.7117
  13   0.0000       0.231876         6.3097

MULLIKEN ATOMIC CHARGES
-----------------------
   0 C :   -0.164089
   1 O :   -0.484452
   2 H :    0.315377
   3 H :    0.104863
   4 H :    0.127716
   5 H :    0.100586
Sum of atomic charges:   -0.0000000

LOEWDIN ATOMIC CHARGES
----------------------
   0 C :   -0.360977
   1 O :   -0.096656
   2 H :    0.166673
   3 H :    0.088746
   4 H :    0.105474
   5 H :    0.096740

  Mayer bond orders larger than 0.1
B(  0-C ,  1-O ) :   0.9954 B(  0-C ,  3-H ) :   0.9756 B(  0-C ,  4-H ) :   0.9718
B(  0-C ,  5-H ) :   0.9820 B(  1-O ,  2-H ) :   0.8983

Dispersion correction           -0.000254354
FINAL SINGLE POINT ENERGY      -115.730843597173

DIPOLE MOMENT
-------------
                                X             Y             Z
Electronic contribution:      0.81124       1.24396      -1.13896
Nuclear contribution   :     -1.34595      -1.72411       1.01896
                        -----------------------------------------
Total Dipole Moment    :     -0.53471      -0.48015      -0.11999
                        -----------------------------------------
Magnitude (a.u.)       :      0.72860
Magnitude (Debye)      :      1.85195

Rotational constants in cm-1:     4.539803     0.801924     0.769968
Rotational constants in MHz : 136099.856140 24041.066035 23083.064260

                             ****ORCA TERMINATED NORMALLY****
TOTAL RUN TIME: 0 days 0 hours 0 minutes 42 seconds 595 msec
