                         Program Version 4.1.2  - RELEASE  -
|  1> #Run DFT-D3 single point of the dimer
|  2> ! wB97X-D3 def2-TZVP TIGHTSCF CHELPG PMODEL PAL8
|  3>
|  4> %base "13-97_DFT_AB"
|  5>
|  6> %scf
|  7> MaxIter 1000
|  8> end
|  9>
| 10> * xyz 0 1
| 11>   C                      8.560098             -2.673546            8.422270
| 12>   O                      8.250090             -2.701109            9.788705
| 13>   H                      8.844717             -3.285811            10.224851
| 14>   H                      9.658630             -2.494390            8.335668
| 15>   H                      8.219889             -3.530177            7.895463
| 16>   H                      8.112362             -1.780007            7.980744
| 17>   C                      8.307011             -7.647958            8.749003
| 18>   O                      7.273924             -7.553112            7.776317
| 19>   H                      7.664353             -7.568868            6.900975
| 20>   H                      7.960252             -7.834441            9.762844
| 21>   H                      9.044794             -8.341468            8.415680
| 22>   H                      8.861906             -6.732982            8.793555
| 23> *
| 24>
| 25> #Run DFT-D3 single point of the molecule with dimer basis set
| 26> $new_job
| 27> %base "13-97_DFT_A"
| 28> ! wB97X-D3 def2-TZVP TIGHTSCF CHELPG PMODEL
| 29>
| 30> %scf
| 31> MaxIter 1000
| 32> end
| 33>
| 34> * xyz 0 1
| 35>   C                      8.560098             -2.673546            8.422270
| 36>   O                      8.250090             -2.701109            9.788705
| 37>   H                      8.844717             -3.285811            10.224851
| 38>   H                      9.658630             -2.494390            8.335668
| 39>   H                      8.219889             -3.530177            7.895463
| 40>   H                      8.112362             -1.780007            7.980744
| 41>   C                    : 8.307011             -7.647958            8.749003
| 42>   O                    : 7.273924             -7.553112            7.776317
| 43>   H                    : 7.664353             -7.568868            6.900975
| 44>   H                    : 7.960252             -7.834441            9.762844
| 45>   H                    : 9.044794             -8.341468            8.415680
| 46>   H                    : 8.861906             -6.732982            8.793555
| 47> *
| 48>
| 49> #Run DFT-D3 single point of the particle with dimer basis set
| 50> $new_job
| 51> %base "13-97_DFT_B"
| 52> ! wB97X-D3 def2-TZVP TIGHTSCF CHELPG PMODEL
| 53>
| 54> %scf
| 55> MaxIter 1000
| 56> end
| 57>
| 58> * xyz 0 1
| 59>   C                    : 8.560098             -2.673546            8.422270
| 60>   O                    : 8.250090             -2.701109            9.788705
| 61>   H                    : 8.844717             -3.285811            10.224851
| 62>   H                    : 9.658630             -2.494390            8.335668
| 63>   H                    : 8.219889             -3.530177            7.895463
| 64>   H                    : 8.112362             -1.780007            7.980744
| 65>   C                      8.307011             -7.647958            8.749003
| 66>   O                      7.273924             -7.553112            7.776317
| 67>   H                      7.664353             -7.568868            6.900975
| 68>   H                      7.960252             -7.834441            9.762844
| 69>   H                      9.044794             -8.341468            8.415680
| 70>   H                      8.861906             -6.732982            8.793555
| 71> *
| 72>
| 73>                          ****END OF INPUT****
 Total Charge           Charge          ....    0
 Multiplicity           Mult            ....    1
 Number of Electrons    NEL             ....   36
Dispersion correction           -0.000904080
FINAL SINGLE POINT ENERGY      -231.467133058234
Dispersion correction           -0.000226227
FINAL SINGLE POINT ENERGY      -115.734500606038

CARTESIAN COORDINATES (ANGSTROEM)
---------------------------------
  C      8.560098   -2.673546    8.422270
  O      8.250090   -2.701109    9.788705
  H      8.844717   -3.285811   10.224851
  H      9.658630   -2.494390    8.335668
  H      8.219889   -3.530177    7.895463
  H      8.112362   -1.780007    7.980744
  C      8.307011   -7.647958    8.749003
  O      7.273924   -7.553112    7.776317
  H      7.664353   -7.568868    6.900975
  H      7.960252   -7.834441    9.762844
  H      9.044794   -8.341468    8.415680
  H      8.861906   -6.732982    8.793555

 Multiplicity           Mult            ....    1
 Number of Electrons    NEL             ....   18
 Basis Dimension        Dim             ....  172

ORBITAL ENERGIES
----------------

  NO   OCC          E(Eh)            E(eV)
   0   2.0000     -19.227836      -523.2160
   1   2.0000     -10.307530      -280.4822
   2   2.0000      -1.132452       -30.8156
   3   2.0000      -0.801143       -21.8002
   4   2.0000      -0.613413       -16.6918
   5   2.0000      -0.539694       -14.6858
   6   2.0000      -0.531178       -14.4541
   7   2.0000      -0.436439       -11.8761
   8   2.0000      -0.369546       -10.0559
   9   0.0000       0.084825         2.3082
  10   0.0000       0.117356         3.1934
  11   0.0000       0.150398         4.0925
  12   0.0000       0.172521         4.6945
  13   0.0000       0.188254         5.1227

MULLIKEN ATOMIC CHARGES
-----------------------
   0 C :   -0.000346
   1 O :   -0.000027
   2 H :   -0.000034
   3 H :    0.000029
   4 H :   -0.000036
   5 H :    0.000009
   6 C :   -0.171942
   7 O :   -0.477319
   8 H :    0.314961
   9 H :    0.122454
  10 H :    0.108718
  11 H :    0.103532
Sum of atomic charges:    0.0000000

LOEWDIN ATOMIC CHARGES
----------------------
   0 C :   -0.000314
   1 O :   -0.000016
   2 H :   -0.000146
   3 H :   -0.000010
   4 H :   -0.000304
   5 H :   -0.000002
   6 C :   -0.372339
   7 O :   -0.084364
   8 H :    0.167584
   9 H :    0.108169
  10 H :    0.091343
  11 H :    0.090397

  Mayer bond orders larger than 0.1
B(  6-C ,  7-O ) :   0.9947 B(  6-C ,  9-H ) :   0.9718 B(  6-C , 10-H ) :   0.9865
B(  6-C , 11-H ) :   0.9761 B(  7-O ,  8-H ) :   0.8984

Dispersion correction           -0.000229758
FINAL SINGLE POINT ENERGY      -115.732477722826

DIPOLE MOMENT
-------------
                                X             Y             Z
Electronic contribution:     -1.48548       0.03698      -1.05756
Nuclear contribution   :      2.17669      -0.08352       0.89495
                        -----------------------------------------
Total Dipole Moment    :      0.69121      -0.04654      -0.16261
                        -----------------------------------------
Magnitude (a.u.)       :      0.71161
Magnitude (Debye)      :      1.80876

Rotational constants in cm-1:     4.477732     0.829325     0.789565
Rotational constants in MHz : 134239.036260 24862.530610 23670.551927

                             ****ORCA TERMINATED NORMALLY****
TOTAL RUN TIME: 0 days 0 hours 0 minutes 54 seconds 207 msec
