                         Program Version 4.1.2  - RELEASE  -
|  1> #Run DFT-D3 single point of the dimer
|  2> ! wB97X-D3 def2-TZVP TIGHTSCF CHELPG PMODEL PAL8
|  3>
|  4> %base "10-119_DFT_AB"
|  5>
|  6> %scf
|  7> MaxIter 1000
|  8> end
|  9>
| 10> * xyz 0 1
| 11>   C                      -2.445116            10.578755            -1.740875
| 12>   O                      -1.467800            11.215932            -2.506058
| 13>   H                      -0.636607            10.749939            -2.417039
| 14>   H                      -3.304628            10.206492            -2.355756
| 15>   H                      -2.017597            9.684624             -1.203176
| 16>   H                      -2.900465            11.246782            -0.991146
| 17>   C                      0.134513             7.144348             -3.210904
| 18>   O                      -0.239488            8.467683             -3.622832
| 19>   H                      0.037674             8.550435             -4.525159
| 20>   H                      1.205969             7.223924             -3.176807
| 21>   H                      -0.221156            7.001328             -2.178537
| 22>   H                      -0.166492            6.394879             -3.883738
| 23> *
| 24>
| 25> #Run DFT-D3 single point of the molecule with dimer basis set
| 26> $new_job
| 27> %base "10-119_DFT_A"
| 28> ! wB97X-D3 def2-TZVP TIGHTSCF CHELPG PMODEL
| 29>
| 30> %scf
| 31> MaxIter 1000
| 32> end
| 33>
| 34> * xyz 0 1
| 35>   C                      -2.445116            10.578755            -1.740875
| 36>   O                      -1.467800            11.215932            -2.506058
| 37>   H                      -0.636607            10.749939            -2.417039
| 38>   H                      -3.304628            10.206492            -2.355756
| 39>   H                      -2.017597            9.684624             -1.203176
| 40>   H                      -2.900465            11.246782            -0.991146
| 41>   C                    : 0.134513             7.144348             -3.210904
| 42>   O                    : -0.239488            8.467683             -3.622832
| 43>   H                    : 0.037674             8.550435             -4.525159
| 44>   H                    : 1.205969             7.223924             -3.176807
| 45>   H                    : -0.221156            7.001328             -2.178537
| 46>   H                    : -0.166492            6.394879             -3.883738
| 47> *
| 48>
| 49> #Run DFT-D3 single point of the particle with dimer basis set
| 50> $new_job
| 51> %base "10-119_DFT_B"
| 52> ! wB97X-D3 def2-TZVP TIGHTSCF CHELPG PMODEL
| 53>
| 54> %scf
| 55> MaxIter 1000
| 56> end
| 57>
| 58> * xyz 0 1
| 59>   C                    : -2.445116            10.578755            -1.740875
| 60>   O                    : -1.467800            11.215932            -2.506058
| 61>   H                    : -0.636607            10.749939            -2.417039
| 62>   H                    : -3.304628            10.206492            -2.355756
| 63>   H                    : -2.017597            9.684624             -1.203176
| 64>   H                    : -2.900465            11.246782            -0.991146
| 65>   C                      0.134513             7.144348             -3.210904
| 66>   O                      -0.239488            8.467683             -3.622832
| 67>   H                      0.037674             8.550435             -4.525159
| 68>   H                      1.205969             7.223924             -3.176807
| 69>   H                      -0.221156            7.001328             -2.178537
| 70>   H                      -0.166492            6.394879             -3.883738
| 71> *
| 72>
| 73>                          ****END OF INPUT****
 Total Charge           Charge          ....    0
 Multiplicity           Mult            ....    1
 Number of Electrons    NEL             ....   36
Dispersion correction           -0.001643135
FINAL SINGLE POINT ENERGY      -231.470221944158
Dispersion correction           -0.000256820
FINAL SINGLE POINT ENERGY      -115.734493199192

CARTESIAN COORDINATES (ANGSTROEM)
---------------------------------
  C     -2.445116   10.578755   -1.740875
  O     -1.467800   11.215932   -2.506058
  H     -0.636607   10.749939   -2.417039
  H     -3.304628   10.206492   -2.355756
  H     -2.017597    9.684624   -1.203176
  H     -2.900465   11.246782   -0.991146
  C      0.134513    7.144348   -3.210904
  O     -0.239488    8.467683   -3.622832
  H      0.037674    8.550435   -4.525159
  H      1.205969    7.223924   -3.176807
  H     -0.221156    7.001328   -2.178537
  H     -0.166492    6.394879   -3.883738

 Multiplicity           Mult            ....    1
 Number of Electrons    NEL             ....   18
 Basis Dimension        Dim             ....  172

ORBITAL ENERGIES
----------------

  NO   OCC          E(Eh)            E(eV)
   0   2.0000     -19.224789      -523.1331
   1   2.0000     -10.308397      -280.5057
   2   2.0000      -1.132171       -30.8080
   3   2.0000      -0.798588       -21.7307
   4   2.0000      -0.608730       -16.5644
   5   2.0000      -0.548351       -14.9214
   6   2.0000      -0.524028       -14.2595
   7   2.0000      -0.439066       -11.9476
   8   2.0000      -0.370660       -10.0862
   9   0.0000       0.099575         2.7096
  10   0.0000       0.125306         3.4097
  11   0.0000       0.156767         4.2659
  12   0.0000       0.187701         5.1076
  13   0.0000       0.193105         5.2546

MULLIKEN ATOMIC CHARGES
-----------------------
   0 C :   -0.000221
   1 O :    0.001840
   2 H :   -0.006601
   3 H :   -0.000973
   4 H :   -0.001640
   5 H :   -0.000293
   6 C :   -0.166716
   7 O :   -0.472249
   8 H :    0.306183
   9 H :    0.109028
  10 H :    0.120033
  11 H :    0.111611
Sum of atomic charges:    0.0000000

LOEWDIN ATOMIC CHARGES
----------------------
   0 C :   -0.004819
   1 O :   -0.002177
   2 H :   -0.010392
   3 H :   -0.000446
   4 H :   -0.000826
   5 H :   -0.000080
   6 C :   -0.356875
   7 O :   -0.077247
   8 H :    0.157061
   9 H :    0.096304
  10 H :    0.112842
  11 H :    0.086654

  Mayer bond orders larger than 0.1
B(  6-C ,  7-O ) :   0.9780 B(  6-C ,  9-H ) :   0.9904 B(  6-C , 10-H ) :   0.9737
B(  6-C , 11-H ) :   0.9670 B(  7-O ,  8-H ) :   0.9048

Dispersion correction           -0.000210867
FINAL SINGLE POINT ENERGY      -115.731775479825

DIPOLE MOMENT
-------------
                                X             Y             Z
Electronic contribution:     -0.61544       1.47358      -0.41930
Nuclear contribution   :      0.95863      -1.98364       0.01421
                        -----------------------------------------
Total Dipole Moment    :      0.34319      -0.51006      -0.40509
                        -----------------------------------------
Magnitude (a.u.)       :      0.73623
Magnitude (Debye)      :      1.87134

Rotational constants in cm-1:     4.299458     0.832042     0.797569
Rotational constants in MHz : 128894.520991 24943.987218 23910.524492

                             ****ORCA TERMINATED NORMALLY****
TOTAL RUN TIME: 0 days 0 hours 1 minutes 1 seconds 386 msec
