                         Program Version 4.1.2  - RELEASE  -
|  1> #Run DFT geometry optimization
|  2> ! wB97X-D3 def2-TZVP TIGHTSCF Grid5 FinalGrid6 Opt CHELPG PAL4
|  3>
|  4> %base "6_geo_opt"
|  5> %geom MaxIter 500
|  6> end
|  7>
|  8> %geom
|  9>   Constraints
| 10>     { A 2 1 0 C }
| 11>   end
| 12> end
| 13>
| 14>
| 15> * xyz 0 1
| 16>   C                    3.011411             -1.179895            0.597783
| 17>   O                    4.394673             -1.128050            0.874308
| 18>   H                    4.771443             -0.378833            0.412184
| 19>   H                    2.806434             -1.318965            -0.469350
| 20>   H                    2.611632             -2.040265            1.135898
| 21>   H                    2.484757             -0.284491            0.945659
| 22> *
| 23>
| 24>                          ****END OF INPUT****
 Total Charge           Charge          ....    0
 Multiplicity           Mult            ....    1
 Number of Electrons    NEL             ....   18
Dispersion correction           -0.000239120
FINAL SINGLE POINT ENERGY      -115.738049411022
Dispersion correction            ... done
Dispersion correction           -0.000239110
FINAL SINGLE POINT ENERGY      -115.738050998410
Dispersion correction            ... done
                    ***********************HURRAY********************

CARTESIAN COORDINATES (ANGSTROEM)
---------------------------------
  C      3.011487   -1.180725    0.598400
  O      4.394892   -1.128033    0.874317
  H      4.771017   -0.378612    0.411960
  H      2.806688   -1.318891   -0.469463
  H      2.611266   -2.039935    1.135584
  H      2.485000   -0.284303    0.945682

 Multiplicity           Mult            ....    1
 Number of Electrons    NEL             ....   18
 Basis Dimension        Dim             ....   86

ORBITAL ENERGIES
----------------

  NO   OCC          E(Eh)            E(eV)
   0   2.0000     -19.228137      -523.2242
   1   2.0000     -10.315110      -280.6884
   2   2.0000      -1.136855       -30.9354
   3   2.0000      -0.795304       -21.6413
   4   2.0000      -0.611558       -16.6413
   5   2.0000      -0.541803       -14.7432
   6   2.0000      -0.526305       -14.3215
   7   2.0000      -0.433901       -11.8071
   8   2.0000      -0.373634       -10.1671
   9   0.0000       0.116623         3.1735
  10   0.0000       0.156682         4.2635
  11   0.0000       0.202576         5.5124
  12   0.0000       0.205097         5.5810
  13   0.0000       0.226339         6.1590

MULLIKEN ATOMIC CHARGES
-----------------------
   0 C :   -0.151095
   1 O :   -0.477425
   2 H :    0.312991
   3 H :    0.098658
   4 H :    0.118209
   5 H :    0.098662
Sum of atomic charges:   -0.0000000

LOEWDIN ATOMIC CHARGES
----------------------
   0 C :   -0.385211
   1 O :   -0.076109
   2 H :    0.165845
   3 H :    0.093407
   4 H :    0.108661
   5 H :    0.093406

  Mayer bond orders larger than 0.1
B(  0-C ,  1-O ) :   0.9987 B(  0-C ,  3-H ) :   0.9755 B(  0-C ,  4-H ) :   0.9750
B(  0-C ,  5-H ) :   0.9755 B(  1-O ,  2-H ) :   0.9003

Dispersion correction           -0.000239055
FINAL SINGLE POINT ENERGY      -115.738051141069

DIPOLE MOMENT
-------------
                                X             Y             Z
Electronic contribution:      1.75659      -0.02873       0.42027
Nuclear contribution   :     -2.06718       0.47637      -0.81810
                        -----------------------------------------
Total Dipole Moment    :     -0.31060       0.44764      -0.39783
                        -----------------------------------------
Magnitude (a.u.)       :      0.67462
Magnitude (Debye)      :      1.71476

Rotational constants in cm-1:     4.291982     0.833830     0.804933
Rotational constants in MHz : 128670.371687 24997.593248 24131.270190

                             ****ORCA TERMINATED NORMALLY****
TOTAL RUN TIME: 0 days 0 hours 0 minutes 41 seconds 814 msec
