                         Program Version 4.1.2  - RELEASE  -
|  1> #Run DFT-D3 single point of the dimer
|  2> ! wB97X-D3 def2-TZVP TIGHTSCF CHELPG PMODEL PAL8
|  3>
|  4> %base "5-102_DFT_AB"
|  5>
|  6> %scf
|  7> MaxIter 1000
|  8> end
|  9>
| 10> * xyz 0 1
| 11>   C                      10.099755            -8.391832            7.426089
| 12>   O                      8.932273             -9.123837            7.036020
| 13>   H                      9.240936             -10.078565           7.004083
| 14>   H                      10.500209            -8.720719            8.378348
| 15>   H                      10.929111            -8.689775            6.786376
| 16>   H                      9.978572             -7.339789            7.447551
| 17>   C                      8.209675             -5.522945            9.196623
| 18>   O                      7.015709             -5.491907            9.982829
| 19>   H                      6.939594             -6.319247            10.420045
| 20>   H                      8.182729             -6.271335            8.382496
| 21>   H                      8.183501             -4.633364            8.568439
| 22>   H                      9.084552             -5.650061            9.844359
| 23> *
| 24>
| 25> #Run DFT-D3 single point of the molecule with dimer basis set
| 26> $new_job
| 27> %base "5-102_DFT_A"
| 28> ! wB97X-D3 def2-TZVP TIGHTSCF CHELPG PMODEL
| 29>
| 30> %scf
| 31> MaxIter 1000
| 32> end
| 33>
| 34> * xyz 0 1
| 35>   C                      10.099755            -8.391832            7.426089
| 36>   O                      8.932273             -9.123837            7.036020
| 37>   H                      9.240936             -10.078565           7.004083
| 38>   H                      10.500209            -8.720719            8.378348
| 39>   H                      10.929111            -8.689775            6.786376
| 40>   H                      9.978572             -7.339789            7.447551
| 41>   C                    : 8.209675             -5.522945            9.196623
| 42>   O                    : 7.015709             -5.491907            9.982829
| 43>   H                    : 6.939594             -6.319247            10.420045
| 44>   H                    : 8.182729             -6.271335            8.382496
| 45>   H                    : 8.183501             -4.633364            8.568439
| 46>   H                    : 9.084552             -5.650061            9.844359
| 47> *
| 48>
| 49> #Run DFT-D3 single point of the particle with dimer basis set
| 50> $new_job
| 51> %base "5-102_DFT_B"
| 52> ! wB97X-D3 def2-TZVP TIGHTSCF CHELPG PMODEL
| 53>
| 54> %scf
| 55> MaxIter 1000
| 56> end
| 57>
| 58> * xyz 0 1
| 59>   C                    : 10.099755            -8.391832            7.426089
| 60>   O                    : 8.932273             -9.123837            7.036020
| 61>   H                    : 9.240936             -10.078565           7.004083
| 62>   H                    : 10.500209            -8.720719            8.378348
| 63>   H                    : 10.929111            -8.689775            6.786376
| 64>   H                    : 9.978572             -7.339789            7.447551
| 65>   C                      8.209675             -5.522945            9.196623
| 66>   O                      7.015709             -5.491907            9.982829
| 67>   H                      6.939594             -6.319247            10.420045
| 68>   H                      8.182729             -6.271335            8.382496
| 69>   H                      8.183501             -4.633364            8.568439
| 70>   H                      9.084552             -5.650061            9.844359
| 71> *
| 72>
| 73>                          ****END OF INPUT****
 Total Charge           Charge          ....    0
 Multiplicity           Mult            ....    1
 Number of Electrons    NEL             ....   36
Dispersion correction           -0.001465417
FINAL SINGLE POINT ENERGY      -231.463159901002
Dispersion correction           -0.000228026
FINAL SINGLE POINT ENERGY      -115.729735999416

CARTESIAN COORDINATES (ANGSTROEM)
---------------------------------
  C     10.099755   -8.391832    7.426089
  O      8.932273   -9.123837    7.036020
  H      9.240936  -10.078565    7.004083
  H     10.500209   -8.720719    8.378348
  H     10.929111   -8.689775    6.786376
  H      9.978572   -7.339789    7.447551
  C      8.209675   -5.522945    9.196623
  O      7.015709   -5.491907    9.982829
  H      6.939594   -6.319247   10.420045
  H      8.182729   -6.271335    8.382496
  H      8.183501   -4.633364    8.568439
  H      9.084552   -5.650061    9.844359

 Multiplicity           Mult            ....    1
 Number of Electrons    NEL             ....   18
 Basis Dimension        Dim             ....  172

ORBITAL ENERGIES
----------------

  NO   OCC          E(Eh)            E(eV)
   0   2.0000     -19.227699      -523.2123
   1   2.0000     -10.315740      -280.7056
   2   2.0000      -1.135528       -30.8993
   3   2.0000      -0.797875       -21.7113
   4   2.0000      -0.607962       -16.5435
   5   2.0000      -0.553812       -15.0700
   6   2.0000      -0.514295       -13.9947
   7   2.0000      -0.432974       -11.7818
   8   2.0000      -0.375950       -10.2301
   9   0.0000       0.082195         2.2366
  10   0.0000       0.120600         3.2817
  11   0.0000       0.146737         3.9929
  12   0.0000       0.169742         4.6189
  13   0.0000       0.186132         5.0649

MULLIKEN ATOMIC CHARGES
-----------------------
   0 C :    0.000899
   1 O :    0.000084
   2 H :    0.000009
   3 H :   -0.000057
   4 H :   -0.000237
   5 H :   -0.003344
   6 C :   -0.155644
   7 O :   -0.472847
   8 H :    0.308108
   9 H :    0.097942
  10 H :    0.118624
  11 H :    0.106463
Sum of atomic charges:   -0.0000000

LOEWDIN ATOMIC CHARGES
----------------------
   0 C :   -0.006403
   1 O :   -0.000309
   2 H :   -0.000024
   3 H :   -0.000193
   4 H :   -0.000057
   5 H :   -0.005890
   6 C :   -0.372951
   7 O :   -0.077380
   8 H :    0.151720
   9 H :    0.101469
  10 H :    0.111252
  11 H :    0.098767

  Mayer bond orders larger than 0.1
B(  6-C ,  7-O ) :   1.0035 B(  6-C ,  9-H ) :   0.9756 B(  6-C , 10-H ) :   0.9702
B(  6-C , 11-H ) :   0.9758 B(  7-O ,  8-H ) :   0.9068

Dispersion correction           -0.000245392
FINAL SINGLE POINT ENERGY      -115.732810532895

DIPOLE MOMENT
-------------
                                X             Y             Z
Electronic contribution:     -1.44381       0.16637       1.05406
Nuclear contribution   :      1.86091      -0.69909      -1.11585
                        -----------------------------------------
Total Dipole Moment    :      0.41710      -0.53272      -0.06178
                        -----------------------------------------
Magnitude (a.u.)       :      0.67939
Magnitude (Debye)      :      1.72688

Rotational constants in cm-1:     4.279222     0.818396     0.792297
Rotational constants in MHz : 128287.855281 24534.909415 23752.467341

                             ****ORCA TERMINATED NORMALLY****
TOTAL RUN TIME: 0 days 0 hours 0 minutes 58 seconds 219 msec
