                         Program Version 4.1.2  - RELEASE  -
|  1> #Run DFT-D3 single point of the dimer
|  2> ! wB97X-D3 def2-TZVP TIGHTSCF CHELPG PMODEL PAL8
|  3>
|  4> %base "10-121_DFT_AB"
|  5>
|  6> %scf
|  7> MaxIter 1000
|  8> end
|  9>
| 10> * xyz 0 1
| 11>   C                      -2.543772            11.097149            -5.925851
| 12>   O                      -3.388210            10.718351            -4.863969
| 13>   H                      -2.857181            10.590265            -4.086998
| 14>   H                      -3.183957            11.399977            -6.794502
| 15>   H                      -2.030645            11.987127            -5.722639
| 16>   H                      -1.844225            10.332951            -6.223363
| 17>   C                      0.134513             7.144348             -3.210904
| 18>   O                      -0.239488            8.467683             -3.622832
| 19>   H                      0.037674             8.550435             -4.525159
| 20>   H                      1.205969             7.223924             -3.176807
| 21>   H                      -0.221156            7.001328             -2.178537
| 22>   H                      -0.166492            6.394879             -3.883738
| 23> *
| 24>
| 25> #Run DFT-D3 single point of the molecule with dimer basis set
| 26> $new_job
| 27> %base "10-121_DFT_A"
| 28> ! wB97X-D3 def2-TZVP TIGHTSCF CHELPG PMODEL
| 29>
| 30> %scf
| 31> MaxIter 1000
| 32> end
| 33>
| 34> * xyz 0 1
| 35>   C                      -2.543772            11.097149            -5.925851
| 36>   O                      -3.388210            10.718351            -4.863969
| 37>   H                      -2.857181            10.590265            -4.086998
| 38>   H                      -3.183957            11.399977            -6.794502
| 39>   H                      -2.030645            11.987127            -5.722639
| 40>   H                      -1.844225            10.332951            -6.223363
| 41>   C                    : 0.134513             7.144348             -3.210904
| 42>   O                    : -0.239488            8.467683             -3.622832
| 43>   H                    : 0.037674             8.550435             -4.525159
| 44>   H                    : 1.205969             7.223924             -3.176807
| 45>   H                    : -0.221156            7.001328             -2.178537
| 46>   H                    : -0.166492            6.394879             -3.883738
| 47> *
| 48>
| 49> #Run DFT-D3 single point of the particle with dimer basis set
| 50> $new_job
| 51> %base "10-121_DFT_B"
| 52> ! wB97X-D3 def2-TZVP TIGHTSCF CHELPG PMODEL
| 53>
| 54> %scf
| 55> MaxIter 1000
| 56> end
| 57>
| 58> * xyz 0 1
| 59>   C                    : -2.543772            11.097149            -5.925851
| 60>   O                    : -3.388210            10.718351            -4.863969
| 61>   H                    : -2.857181            10.590265            -4.086998
| 62>   H                    : -3.183957            11.399977            -6.794502
| 63>   H                    : -2.030645            11.987127            -5.722639
| 64>   H                    : -1.844225            10.332951            -6.223363
| 65>   C                      0.134513             7.144348             -3.210904
| 66>   O                      -0.239488            8.467683             -3.622832
| 67>   H                      0.037674             8.550435             -4.525159
| 68>   H                      1.205969             7.223924             -3.176807
| 69>   H                      -0.221156            7.001328             -2.178537
| 70>   H                      -0.166492            6.394879             -3.883738
| 71> *
| 72>
| 73>                          ****END OF INPUT****
 Total Charge           Charge          ....    0
 Multiplicity           Mult            ....    1
 Number of Electrons    NEL             ....   36
Dispersion correction           -0.001084205
FINAL SINGLE POINT ENERGY      -231.468052754528
Dispersion correction           -0.000235421
FINAL SINGLE POINT ENERGY      -115.734175372030

CARTESIAN COORDINATES (ANGSTROEM)
---------------------------------
  C     -2.543772   11.097149   -5.925851
  O     -3.388210   10.718351   -4.863969
  H     -2.857181   10.590265   -4.086998
  H     -3.183957   11.399977   -6.794502
  H     -2.030645   11.987127   -5.722639
  H     -1.844225   10.332951   -6.223363
  C      0.134513    7.144348   -3.210904
  O     -0.239488    8.467683   -3.622832
  H      0.037674    8.550435   -4.525159
  H      1.205969    7.223924   -3.176807
  H     -0.221156    7.001328   -2.178537
  H     -0.166492    6.394879   -3.883738

 Multiplicity           Mult            ....    1
 Number of Electrons    NEL             ....   18
 Basis Dimension        Dim             ....  172

ORBITAL ENERGIES
----------------

  NO   OCC          E(Eh)            E(eV)
   0   2.0000     -19.224452      -523.1239
   1   2.0000     -10.308317      -280.5036
   2   2.0000      -1.131948       -30.8019
   3   2.0000      -0.798461       -21.7272
   4   2.0000      -0.608554       -16.5596
   5   2.0000      -0.548226       -14.9180
   6   2.0000      -0.523903       -14.2561
   7   2.0000      -0.438926       -11.9438
   8   2.0000      -0.370482       -10.0813
   9   0.0000       0.089096         2.4244
  10   0.0000       0.122990         3.3467
  11   0.0000       0.158238         4.3059
  12   0.0000       0.176063         4.7909
  13   0.0000       0.198308         5.3962

MULLIKEN ATOMIC CHARGES
-----------------------
   0 C :    0.001184
   1 O :    0.000193
   2 H :   -0.002303
   3 H :   -0.000085
   4 H :   -0.000075
   5 H :   -0.002350
   6 C :   -0.168719
   7 O :   -0.478758
   8 H :    0.309865
   9 H :    0.109539
  10 H :    0.119497
  11 H :    0.112013
Sum of atomic charges:   -0.0000000

LOEWDIN ATOMIC CHARGES
----------------------
   0 C :   -0.000889
   1 O :   -0.000170
   2 H :   -0.002084
   3 H :   -0.000013
   4 H :   -0.000010
   5 H :   -0.000871
   6 C :   -0.357669
   7 O :   -0.090532
   8 H :    0.157263
   9 H :    0.096172
  10 H :    0.112713
  11 H :    0.086093

  Mayer bond orders larger than 0.1
B(  6-C ,  7-O ) :   0.9810 B(  6-C ,  9-H ) :   0.9915 B(  6-C , 10-H ) :   0.9726
B(  6-C , 11-H ) :   0.9690 B(  7-O ,  8-H ) :   0.9038

Dispersion correction           -0.000210867
FINAL SINGLE POINT ENERGY      -115.731709274906

DIPOLE MOMENT
-------------
                                X             Y             Z
Electronic contribution:     -0.61371       1.47746      -0.40935
Nuclear contribution   :      0.95863      -1.98364       0.01421
                        -----------------------------------------
Total Dipole Moment    :      0.34491      -0.50617      -0.39514
                        -----------------------------------------
Magnitude (a.u.)       :      0.72891
Magnitude (Debye)      :      1.85274

Rotational constants in cm-1:     4.299458     0.832042     0.797569
Rotational constants in MHz : 128894.520991 24943.987218 23910.524492

                             ****ORCA TERMINATED NORMALLY****
TOTAL RUN TIME: 0 days 0 hours 0 minutes 57 seconds 211 msec
