                         Program Version 4.1.2  - RELEASE  -
|  1> #Run DFT-D3 single point of the dimer
|  2> ! wB97X-D3 def2-TZVP TIGHTSCF CHELPG PMODEL PAL8
|  3>
|  4> %base "2-38_DFT_AB"
|  5>
|  6> %scf
|  7> MaxIter 1000
|  8> end
|  9>
| 10> * xyz 0 1
| 11>   C                      5.916145             7.599752             -3.115480
| 12>   O                      6.303187             6.405109             -3.797141
| 13>   H                      6.313995             5.742929             -3.113214
| 14>   H                      6.562852             7.866482             -2.246742
| 15>   H                      5.963492             8.428625             -3.817606
| 16>   H                      4.933177             7.588969             -2.693862
| 17>   C                      2.132562             6.857292             -0.457491
| 18>   O                      1.974471             5.493375             -0.854099
| 19>   H                      1.139271             5.180348             -0.609880
| 20>   H                      1.193411             7.360740             -0.596032
| 21>   H                      2.479506             6.892604             0.618237
| 22>   H                      2.840056             7.425782             -1.091816
| 23> *
| 24>
| 25> #Run DFT-D3 single point of the molecule with dimer basis set
| 26> $new_job
| 27> %base "2-38_DFT_A"
| 28> ! wB97X-D3 def2-TZVP TIGHTSCF CHELPG PMODEL
| 29>
| 30> %scf
| 31> MaxIter 1000
| 32> end
| 33>
| 34> * xyz 0 1
| 35>   C                      5.916145             7.599752             -3.115480
| 36>   O                      6.303187             6.405109             -3.797141
| 37>   H                      6.313995             5.742929             -3.113214
| 38>   H                      6.562852             7.866482             -2.246742
| 39>   H                      5.963492             8.428625             -3.817606
| 40>   H                      4.933177             7.588969             -2.693862
| 41>   C                    : 2.132562             6.857292             -0.457491
| 42>   O                    : 1.974471             5.493375             -0.854099
| 43>   H                    : 1.139271             5.180348             -0.609880
| 44>   H                    : 1.193411             7.360740             -0.596032
| 45>   H                    : 2.479506             6.892604             0.618237
| 46>   H                    : 2.840056             7.425782             -1.091816
| 47> *
| 48>
| 49> #Run DFT-D3 single point of the particle with dimer basis set
| 50> $new_job
| 51> %base "2-38_DFT_B"
| 52> ! wB97X-D3 def2-TZVP TIGHTSCF CHELPG PMODEL
| 53>
| 54> %scf
| 55> MaxIter 1000
| 56> end
| 57>
| 58> * xyz 0 1
| 59>   C                    : 5.916145             7.599752             -3.115480
| 60>   O                    : 6.303187             6.405109             -3.797141
| 61>   H                    : 6.313995             5.742929             -3.113214
| 62>   H                    : 6.562852             7.866482             -2.246742
| 63>   H                    : 5.963492             8.428625             -3.817606
| 64>   H                    : 4.933177             7.588969             -2.693862
| 65>   C                      2.132562             6.857292             -0.457491
| 66>   O                      1.974471             5.493375             -0.854099
| 67>   H                      1.139271             5.180348             -0.609880
| 68>   H                      1.193411             7.360740             -0.596032
| 69>   H                      2.479506             6.892604             0.618237
| 70>   H                      2.840056             7.425782             -1.091816
| 71> *
| 72>
| 73>                          ****END OF INPUT****
 Total Charge           Charge          ....    0
 Multiplicity           Mult            ....    1
 Number of Electrons    NEL             ....   36
Dispersion correction           -0.001014375
FINAL SINGLE POINT ENERGY      -231.467980628396
Dispersion correction           -0.000247121
FINAL SINGLE POINT ENERGY      -115.735037153510

CARTESIAN COORDINATES (ANGSTROEM)
---------------------------------
  C      5.916145    7.599752   -3.115480
  O      6.303187    6.405109   -3.797141
  H      6.313995    5.742929   -3.113214
  H      6.562852    7.866482   -2.246742
  H      5.963492    8.428625   -3.817606
  H      4.933177    7.588969   -2.693862
  C      2.132562    6.857292   -0.457491
  O      1.974471    5.493375   -0.854099
  H      1.139271    5.180348   -0.609880
  H      1.193411    7.360740   -0.596032
  H      2.479506    6.892604    0.618237
  H      2.840056    7.425782   -1.091816

 Multiplicity           Mult            ....    1
 Number of Electrons    NEL             ....   18
 Basis Dimension        Dim             ....  172

ORBITAL ENERGIES
----------------

  NO   OCC          E(Eh)            E(eV)
   0   2.0000     -19.224242      -523.1182
   1   2.0000     -10.318697      -280.7860
   2   2.0000      -1.136641       -30.9296
   3   2.0000      -0.797743       -21.7077
   4   2.0000      -0.610670       -16.6172
   5   2.0000      -0.541755       -14.7419
   6   2.0000      -0.528576       -14.3833
   7   2.0000      -0.427644       -11.6368
   8   2.0000      -0.374615       -10.1938
   9   0.0000       0.090173         2.4537
  10   0.0000       0.120391         3.2760
  11   0.0000       0.151692         4.1278
  12   0.0000       0.173119         4.7108
  13   0.0000       0.188836         5.1385

MULLIKEN ATOMIC CHARGES
-----------------------
   0 C :   -0.002593
   1 O :    0.000006
   2 H :   -0.000017
   3 H :    0.000061
   4 H :    0.000121
   5 H :    0.004742
   6 C :   -0.164697
   7 O :   -0.478045
   8 H :    0.310825
   9 H :    0.110541
  10 H :    0.105015
  11 H :    0.114042
Sum of atomic charges:    0.0000000

LOEWDIN ATOMIC CHARGES
----------------------
   0 C :   -0.000619
   1 O :   -0.000007
   2 H :   -0.000011
   3 H :   -0.000016
   4 H :   -0.000001
   5 H :   -0.001916
   6 C :   -0.371266
   7 O :   -0.074811
   8 H :    0.143034
   9 H :    0.092780
  10 H :    0.103559
  11 H :    0.109274

  Mayer bond orders larger than 0.1
B(  6-C ,  7-O ) :   1.0026 B(  6-C ,  9-H ) :   0.9844 B(  6-C , 10-H ) :   0.9782
B(  6-C , 11-H ) :   0.9678 B(  7-O ,  8-H ) :   0.9054

Dispersion correction           -0.000248419
FINAL SINGLE POINT ENERGY      -115.732295669921

DIPOLE MOMENT
-------------
                                X             Y             Z
Electronic contribution:     -0.07906      -1.70670      -0.56865
Nuclear contribution   :     -0.42460       2.07862       0.86355
                        -----------------------------------------
Total Dipole Moment    :     -0.50367       0.37192       0.29491
                        -----------------------------------------
Magnitude (a.u.)       :      0.69208
Magnitude (Debye)      :      1.75913

Rotational constants in cm-1:     4.309902     0.808852     0.792955
Rotational constants in MHz : 129207.607266 24248.784368 23772.186373

                             ****ORCA TERMINATED NORMALLY****
TOTAL RUN TIME: 0 days 0 hours 5 minutes 27 seconds 929 msec
