                         Program Version 4.1.2  - RELEASE  -
|  1> #Run DFT-D3 single point of the dimer
|  2> ! wB97X-D3 def2-TZVP TIGHTSCF CHELPG PMODEL PAL8
|  3>
|  4> %base "19-90_DFT_AB"
|  5>
|  6> %scf
|  7> MaxIter 1000
|  8> end
|  9>
| 10> * xyz 0 1
| 11>   C                      1.790265             3.458561             8.299905
| 12>   O                      0.760315             4.348827             7.951540
| 13>   H                      0.700689             4.320397             6.985783
| 14>   H                      2.747720             4.048782             8.453165
| 15>   H                      1.540345             2.807398             9.173545
| 16>   H                      2.017215             2.823354             7.489023
| 17>   C                      2.570159             6.185322             10.523941
| 18>   O                      1.161458             6.313528             10.149007
| 19>   H                      0.984668             5.758892             9.387177
| 20>   H                      2.796068             6.322607             11.593036
| 21>   H                      2.942824             5.213332             10.172344
| 22>   H                      3.200937             6.954114             9.967723
| 23> *
| 24>
| 25> #Run DFT-D3 single point of the molecule with dimer basis set
| 26> $new_job
| 27> %base "19-90_DFT_A"
| 28> ! wB97X-D3 def2-TZVP TIGHTSCF CHELPG PMODEL
| 29>
| 30> %scf
| 31> MaxIter 1000
| 32> end
| 33>
| 34> * xyz 0 1
| 35>   C                      1.790265             3.458561             8.299905
| 36>   O                      0.760315             4.348827             7.951540
| 37>   H                      0.700689             4.320397             6.985783
| 38>   H                      2.747720             4.048782             8.453165
| 39>   H                      1.540345             2.807398             9.173545
| 40>   H                      2.017215             2.823354             7.489023
| 41>   C                    : 2.570159             6.185322             10.523941
| 42>   O                    : 1.161458             6.313528             10.149007
| 43>   H                    : 0.984668             5.758892             9.387177
| 44>   H                    : 2.796068             6.322607             11.593036
| 45>   H                    : 2.942824             5.213332             10.172344
| 46>   H                    : 3.200937             6.954114             9.967723
| 47> *
| 48>
| 49> #Run DFT-D3 single point of the particle with dimer basis set
| 50> $new_job
| 51> %base "19-90_DFT_B"
| 52> ! wB97X-D3 def2-TZVP TIGHTSCF CHELPG PMODEL
| 53>
| 54> %scf
| 55> MaxIter 1000
| 56> end
| 57>
| 58> * xyz 0 1
| 59>   C                    : 1.790265             3.458561             8.299905
| 60>   O                    : 0.760315             4.348827             7.951540
| 61>   H                    : 0.700689             4.320397             6.985783
| 62>   H                    : 2.747720             4.048782             8.453165
| 63>   H                    : 1.540345             2.807398             9.173545
| 64>   H                    : 2.017215             2.823354             7.489023
| 65>   C                      2.570159             6.185322             10.523941
| 66>   O                      1.161458             6.313528             10.149007
| 67>   H                      0.984668             5.758892             9.387177
| 68>   H                      2.796068             6.322607             11.593036
| 69>   H                      2.942824             5.213332             10.172344
| 70>   H                      3.200937             6.954114             9.967723
| 71> *
| 72>
| 73>                          ****END OF INPUT****
 Total Charge           Charge          ....    0
 Multiplicity           Mult            ....    1
 Number of Electrons    NEL             ....   36
Dispersion correction           -0.002165233
FINAL SINGLE POINT ENERGY      -231.469804232676
Dispersion correction           -0.000237640
FINAL SINGLE POINT ENERGY      -115.731883689013

CARTESIAN COORDINATES (ANGSTROEM)
---------------------------------
  C      1.790265    3.458561    8.299905
  O      0.760315    4.348827    7.951540
  H      0.700689    4.320397    6.985783
  H      2.747720    4.048782    8.453165
  H      1.540345    2.807398    9.173545
  H      2.017215    2.823354    7.489023
  C      2.570159    6.185322   10.523941
  O      1.161458    6.313528   10.149007
  H      0.984668    5.758892    9.387177
  H      2.796068    6.322607   11.593036
  H      2.942824    5.213332   10.172344
  H      3.200937    6.954114    9.967723

 Multiplicity           Mult            ....    1
 Number of Electrons    NEL             ....   18
 Basis Dimension        Dim             ....  172

ORBITAL ENERGIES
----------------

  NO   OCC          E(Eh)            E(eV)
   0   2.0000     -19.231210      -523.3078
   1   2.0000     -10.325607      -280.9740
   2   2.0000      -1.122321       -30.5399
   3   2.0000      -0.794586       -21.6218
   4   2.0000      -0.603426       -16.4201
   5   2.0000      -0.531522       -14.4634
   6   2.0000      -0.524578       -14.2745
   7   2.0000      -0.434956       -11.8358
   8   2.0000      -0.373271       -10.1572
   9   0.0000       0.069309         1.8860
  10   0.0000       0.137159         3.7323
  11   0.0000       0.144420         3.9299
  12   0.0000       0.163769         4.4564
  13   0.0000       0.191119         5.2006

MULLIKEN ATOMIC CHARGES
-----------------------
   0 C :   -0.008135
   1 O :   -0.001017
   2 H :   -0.000021
   3 H :    0.001615
   4 H :    0.000606
   5 H :    0.000021
   6 C :   -0.165796
   7 O :   -0.475502
   8 H :    0.314689
   9 H :    0.128579
  10 H :    0.101523
  11 H :    0.103436
Sum of atomic charges:   -0.0000000

LOEWDIN ATOMIC CHARGES
----------------------
   0 C :   -0.013370
   1 O :   -0.015023
   2 H :   -0.000687
   3 H :   -0.007161
   4 H :   -0.000517
   5 H :   -0.000150
   6 C :   -0.348200
   7 O :   -0.100338
   8 H :    0.171806
   9 H :    0.107541
  10 H :    0.101799
  11 H :    0.104299

  Mayer bond orders larger than 0.1
B(  6-C ,  7-O ) :   0.9902 B(  6-C ,  9-H ) :   0.9683 B(  6-C , 10-H ) :   0.9782
B(  6-C , 11-H ) :   0.9782 B(  7-O ,  8-H ) :   0.9079

Dispersion correction           -0.000275745
FINAL SINGLE POINT ENERGY      -115.731467778989

DIPOLE MOMENT
-------------
                                X             Y             Z
Electronic contribution:     -1.85455       0.22142      -0.22092
Nuclear contribution   :      2.33725      -0.64283      -0.09980
                        -----------------------------------------
Total Dipole Moment    :      0.48270      -0.42141      -0.32071
                        -----------------------------------------
Magnitude (a.u.)       :      0.71655
Magnitude (Debye)      :      1.82133

Rotational constants in cm-1:     4.243144     0.777430     0.749756
Rotational constants in MHz : 127206.258084 23306.750945 22477.114998

                             ****ORCA TERMINATED NORMALLY****
TOTAL RUN TIME: 0 days 0 hours 0 minutes 55 seconds 228 msec
