                         Program Version 4.1.2  - RELEASE  -
|  1> #Run DFT-D3 single point of the dimer
|  2> ! wB97X-D3 def2-TZVP TIGHTSCF CHELPG PMODEL PAL8
|  3>
|  4> %base "5-51_DFT_AB"
|  5>
|  6> %scf
|  7> MaxIter 1000
|  8> end
|  9>
| 10> * xyz 0 1
| 11>   C                      -6.273322            -9.533329            -8.368384
| 12>   O                      -7.523562            -10.051300           -8.014050
| 13>   H                      -8.078851            -9.952586            -8.778788
| 14>   H                      -5.871098            -8.781854            -7.648397
| 15>   H                      -5.513111            -10.350072           -8.413968
| 16>   H                      -6.238926            -9.095729            -9.396470
| 17>   C                      -1.179900            -8.638037            -6.948018
| 18>   O                      -1.535437            -7.599694            -7.826611
| 19>   H                      -1.999492            -7.996814            -8.546439
| 20>   H                      -1.140443            -8.346784            -5.893805
| 21>   H                      -1.993029            -9.398908            -7.027883
| 22>   H                      -0.248926            -9.165004            -7.282007
| 23> *
| 24>
| 25> #Run DFT-D3 single point of the molecule with dimer basis set
| 26> $new_job
| 27> %base "5-51_DFT_A"
| 28> ! wB97X-D3 def2-TZVP TIGHTSCF CHELPG PMODEL
| 29>
| 30> %scf
| 31> MaxIter 1000
| 32> end
| 33>
| 34> * xyz 0 1
| 35>   C                      -6.273322            -9.533329            -8.368384
| 36>   O                      -7.523562            -10.051300           -8.014050
| 37>   H                      -8.078851            -9.952586            -8.778788
| 38>   H                      -5.871098            -8.781854            -7.648397
| 39>   H                      -5.513111            -10.350072           -8.413968
| 40>   H                      -6.238926            -9.095729            -9.396470
| 41>   C                    : -1.179900            -8.638037            -6.948018
| 42>   O                    : -1.535437            -7.599694            -7.826611
| 43>   H                    : -1.999492            -7.996814            -8.546439
| 44>   H                    : -1.140443            -8.346784            -5.893805
| 45>   H                    : -1.993029            -9.398908            -7.027883
| 46>   H                    : -0.248926            -9.165004            -7.282007
| 47> *
| 48>
| 49> #Run DFT-D3 single point of the particle with dimer basis set
| 50> $new_job
| 51> %base "5-51_DFT_B"
| 52> ! wB97X-D3 def2-TZVP TIGHTSCF CHELPG PMODEL
| 53>
| 54> %scf
| 55> MaxIter 1000
| 56> end
| 57>
| 58> * xyz 0 1
| 59>   C                    : -6.273322            -9.533329            -8.368384
| 60>   O                    : -7.523562            -10.051300           -8.014050
| 61>   H                    : -8.078851            -9.952586            -8.778788
| 62>   H                    : -5.871098            -8.781854            -7.648397
| 63>   H                    : -5.513111            -10.350072           -8.413968
| 64>   H                    : -6.238926            -9.095729            -9.396470
| 65>   C                      -1.179900            -8.638037            -6.948018
| 66>   O                      -1.535437            -7.599694            -7.826611
| 67>   H                      -1.999492            -7.996814            -8.546439
| 68>   H                      -1.140443            -8.346784            -5.893805
| 69>   H                      -1.993029            -9.398908            -7.027883
| 70>   H                      -0.248926            -9.165004            -7.282007
| 71> *
| 72>
| 73>                          ****END OF INPUT****
 Total Charge           Charge          ....    0
 Multiplicity           Mult            ....    1
 Number of Electrons    NEL             ....   36
Dispersion correction           -0.000786224
FINAL SINGLE POINT ENERGY      -231.466379993070
Dispersion correction           -0.000255993
FINAL SINGLE POINT ENERGY      -115.733524784964

CARTESIAN COORDINATES (ANGSTROEM)
---------------------------------
  C     -6.273322   -9.533329   -8.368384
  O     -7.523562  -10.051300   -8.014050
  H     -8.078851   -9.952586   -8.778788
  H     -5.871098   -8.781854   -7.648397
  H     -5.513111  -10.350072   -8.413968
  H     -6.238926   -9.095729   -9.396470
  C     -1.179900   -8.638037   -6.948018
  O     -1.535437   -7.599694   -7.826611
  H     -1.999492   -7.996814   -8.546439
  H     -1.140443   -8.346784   -5.893805
  H     -1.993029   -9.398908   -7.027883
  H     -0.248926   -9.165004   -7.282007

 Multiplicity           Mult            ....    1
 Number of Electrons    NEL             ....   18
 Basis Dimension        Dim             ....  172

ORBITAL ENERGIES
----------------

  NO   OCC          E(Eh)            E(eV)
   0   2.0000     -19.228334      -523.2296
   1   2.0000     -10.318993      -280.7941
   2   2.0000      -1.143247       -31.1093
   3   2.0000      -0.791926       -21.5494
   4   2.0000      -0.613582       -16.6964
   5   2.0000      -0.542895       -14.7729
   6   2.0000      -0.530851       -14.4452
   7   2.0000      -0.429873       -11.6974
   8   2.0000      -0.372623       -10.1396
   9   0.0000       0.076382         2.0785
  10   0.0000       0.113763         3.0956
  11   0.0000       0.153650         4.1810
  12   0.0000       0.168851         4.5947
  13   0.0000       0.189987         5.1698

MULLIKEN ATOMIC CHARGES
-----------------------
   0 C :    0.000002
   1 O :    0.000006
   2 H :    0.000000
   3 H :   -0.000214
   4 H :   -0.000058
   5 H :    0.000007
   6 C :   -0.169976
   7 O :   -0.467521
   8 H :    0.316296
   9 H :    0.123883
  10 H :    0.097567
  11 H :    0.100008
Sum of atomic charges:   -0.0000000

LOEWDIN ATOMIC CHARGES
----------------------
   0 C :   -0.000117
   1 O :   -0.000003
   2 H :   -0.000001
   3 H :   -0.000107
   4 H :   -0.000065
   5 H :   -0.000003
   6 C :   -0.395349
   7 O :   -0.067740
   8 H :    0.161091
   9 H :    0.105912
  10 H :    0.098146
  11 H :    0.098236

  Mayer bond orders larger than 0.1
B(  6-C ,  7-O ) :   0.9997 B(  6-C ,  9-H ) :   0.9691 B(  6-C , 10-H ) :   0.9927
B(  6-C , 11-H ) :   0.9701 B(  7-O ,  8-H ) :   0.9015

Dispersion correction           -0.000232871
FINAL SINGLE POINT ENERGY      -115.732656267807

DIPOLE MOMENT
-------------
                                X             Y             Z
Electronic contribution:     -0.30618       1.57135      -0.96676
Nuclear contribution   :      0.12071      -2.22921       0.85450
                        -----------------------------------------
Total Dipole Moment    :     -0.18547      -0.65786      -0.11226
                        -----------------------------------------
Magnitude (a.u.)       :      0.69266
Magnitude (Debye)      :      1.76061

Rotational constants in cm-1:     4.214845     0.837358     0.810178
Rotational constants in MHz : 126357.869668 25103.349005 24288.529683

                             ****ORCA TERMINATED NORMALLY****
TOTAL RUN TIME: 0 days 0 hours 0 minutes 46 seconds 621 msec
