                         Program Version 4.1.2  - RELEASE  -
|  1> #Run DFT-D3 single point of the dimer
|  2> ! wB97X-D3 def2-TZVP TIGHTSCF CHELPG PMODEL PAL8
|  3>
|  4> %base "10-185_DFT_AB"
|  5>
|  6> %scf
|  7> MaxIter 1000
|  8> end
|  9>
| 10> * xyz 0 1
| 11>   C                      8.813563             -5.362564            -9.099402
| 12>   O                      7.631475             -6.211392            -8.805100
| 13>   H                      7.480940             -6.748044            -9.586111
| 14>   H                      8.838425             -4.975948            -10.120209
| 15>   H                      8.859038             -4.575543            -8.345183
| 16>   H                      9.709252             -5.911968            -8.893327
| 17>   C                      7.627756             -8.285923            -6.683459
| 18>   O                      8.961988             -7.889269            -7.122497
| 19>   H                      8.855676             -6.925130            -7.287756
| 20>   H                      6.814872             -8.049190            -7.415096
| 21>   H                      7.716530             -9.343361            -6.572529
| 22>   H                      7.367304             -7.829640            -5.696377
| 23> *
| 24>
| 25> #Run DFT-D3 single point of the molecule with dimer basis set
| 26> $new_job
| 27> %base "10-185_DFT_A"
| 28> ! wB97X-D3 def2-TZVP TIGHTSCF CHELPG PMODEL
| 29>
| 30> %scf
| 31> MaxIter 1000
| 32> end
| 33>
| 34> * xyz 0 1
| 35>   C                      8.813563             -5.362564            -9.099402
| 36>   O                      7.631475             -6.211392            -8.805100
| 37>   H                      7.480940             -6.748044            -9.586111
| 38>   H                      8.838425             -4.975948            -10.120209
| 39>   H                      8.859038             -4.575543            -8.345183
| 40>   H                      9.709252             -5.911968            -8.893327
| 41>   C                    : 7.627756             -8.285923            -6.683459
| 42>   O                    : 8.961988             -7.889269            -7.122497
| 43>   H                    : 8.855676             -6.925130            -7.287756
| 44>   H                    : 6.814872             -8.049190            -7.415096
| 45>   H                    : 7.716530             -9.343361            -6.572529
| 46>   H                    : 7.367304             -7.829640            -5.696377
| 47> *
| 48>
| 49> #Run DFT-D3 single point of the particle with dimer basis set
| 50> $new_job
| 51> %base "10-185_DFT_B"
| 52> ! wB97X-D3 def2-TZVP TIGHTSCF CHELPG PMODEL
| 53>
| 54> %scf
| 55> MaxIter 1000
| 56> end
| 57>
| 58> * xyz 0 1
| 59>   C                    : 8.813563             -5.362564            -9.099402
| 60>   O                    : 7.631475             -6.211392            -8.805100
| 61>   H                    : 7.480940             -6.748044            -9.586111
| 62>   H                    : 8.838425             -4.975948            -10.120209
| 63>   H                    : 8.859038             -4.575543            -8.345183
| 64>   H                    : 9.709252             -5.911968            -8.893327
| 65>   C                      7.627756             -8.285923            -6.683459
| 66>   O                      8.961988             -7.889269            -7.122497
| 67>   H                      8.855676             -6.925130            -7.287756
| 68>   H                      6.814872             -8.049190            -7.415096
| 69>   H                      7.716530             -9.343361            -6.572529
| 70>   H                      7.367304             -7.829640            -5.696377
| 71> *
| 72>
| 73>                          ****END OF INPUT****
 Total Charge           Charge          ....    0
 Multiplicity           Mult            ....    1
 Number of Electrons    NEL             ....   36
Dispersion correction           -0.002174003
FINAL SINGLE POINT ENERGY      -231.467475737805
Dispersion correction           -0.000267842
FINAL SINGLE POINT ENERGY      -115.732845877488

CARTESIAN COORDINATES (ANGSTROEM)
---------------------------------
  C      8.813563   -5.362564   -9.099402
  O      7.631475   -6.211392   -8.805100
  H      7.480940   -6.748044   -9.586111
  H      8.838425   -4.975948  -10.120209
  H      8.859038   -4.575543   -8.345183
  H      9.709252   -5.911968   -8.893327
  C      7.627756   -8.285923   -6.683459
  O      8.961988   -7.889269   -7.122497
  H      8.855676   -6.925130   -7.287756
  H      6.814872   -8.049190   -7.415096
  H      7.716530   -9.343361   -6.572529
  H      7.367304   -7.829640   -5.696377

 Multiplicity           Mult            ....    1
 Number of Electrons    NEL             ....   18
 Basis Dimension        Dim             ....  172

ORBITAL ENERGIES
----------------

  NO   OCC          E(Eh)            E(eV)
   0   2.0000     -19.236408      -523.4493
   1   2.0000     -10.319056      -280.7958
   2   2.0000      -1.123089       -30.5608
   3   2.0000      -0.792144       -21.5553
   4   2.0000      -0.601452       -16.3664
   5   2.0000      -0.534700       -14.5499
   6   2.0000      -0.516345       -14.0505
   7   2.0000      -0.447096       -12.1661
   8   2.0000      -0.376857       -10.2548
   9   0.0000       0.073940         2.0120
  10   0.0000       0.135451         3.6858
  11   0.0000       0.146855         3.9961
  12   0.0000       0.167010         4.5446
  13   0.0000       0.193355         5.2615

MULLIKEN ATOMIC CHARGES
-----------------------
   0 C :   -0.003641
   1 O :   -0.006972
   2 H :   -0.000662
   3 H :   -0.000402
   4 H :    0.000250
   5 H :   -0.002603
   6 C :   -0.184579
   7 O :   -0.458534
   8 H :    0.311389
   9 H :    0.108736
  10 H :    0.128518
  11 H :    0.108501
Sum of atomic charges:    0.0000000

LOEWDIN ATOMIC CHARGES
----------------------
   0 C :   -0.016763
   1 O :   -0.021747
   2 H :   -0.002716
   3 H :   -0.000210
   4 H :   -0.000909
   5 H :   -0.005429
   6 C :   -0.356276
   7 O :   -0.093412
   8 H :    0.190557
   9 H :    0.102954
  10 H :    0.103463
  11 H :    0.100488

  Mayer bond orders larger than 0.1
B(  6-C ,  7-O ) :   1.0006 B(  6-C ,  9-H ) :   0.9641 B(  6-C , 10-H ) :   0.9773
B(  6-C , 11-H ) :   0.9761 B(  7-O ,  8-H ) :   0.9064

Dispersion correction           -0.000255230
FINAL SINGLE POINT ENERGY      -115.734300087143

DIPOLE MOMENT
-------------
                                X             Y             Z
Electronic contribution:      1.69738       0.31185      -0.53882
Nuclear contribution   :     -2.29070       0.07638       0.62439
                        -----------------------------------------
Total Dipole Moment    :     -0.59332       0.38823       0.08557
                        -----------------------------------------
Magnitude (a.u.)       :      0.71420
Magnitude (Debye)      :      1.81534

Rotational constants in cm-1:     4.112695     0.795536     0.767699
Rotational constants in MHz : 123295.489764 23849.563635 23015.027844

                             ****ORCA TERMINATED NORMALLY****
TOTAL RUN TIME: 0 days 0 hours 1 minutes 8 seconds 160 msec
