                         Program Version 4.1.2  - RELEASE  -
|  1> #Run DFT-D3 single point of the dimer
|  2> ! wB97X-D3 def2-TZVP TIGHTSCF CHELPG PMODEL PAL8
|  3>
|  4> %base "16-62_DFT_AB"
|  5>
|  6> %scf
|  7> MaxIter 1000
|  8> end
|  9>
| 10> * xyz 0 1
| 11>   C                      8.058946             -9.033042            0.461038
| 12>   O                      8.872390             -8.090761            1.090432
| 13>   H                      8.823240             -8.265778            1.999192
| 14>   H                      7.747471             -8.809037            -0.550858
| 15>   H                      8.601848             -9.949009            0.269711
| 16>   H                      7.118040             -9.192842            0.968932
| 17>   C                      10.999349            -5.266649            -1.319768
| 18>   O                      11.616505            -5.919857            -0.228641
| 19>   H                      10.790786            -6.069596            0.322672
| 20>   H                      11.675425            -4.939022            -2.153195
| 21>   H                      10.217054            -5.852464            -1.723310
| 22>   H                      10.436245            -4.378384            -0.978400
| 23> *
| 24>
| 25> #Run DFT-D3 single point of the molecule with dimer basis set
| 26> $new_job
| 27> %base "16-62_DFT_A"
| 28> ! wB97X-D3 def2-TZVP TIGHTSCF CHELPG PMODEL
| 29>
| 30> %scf
| 31> MaxIter 1000
| 32> end
| 33>
| 34> * xyz 0 1
| 35>   C                      8.058946             -9.033042            0.461038
| 36>   O                      8.872390             -8.090761            1.090432
| 37>   H                      8.823240             -8.265778            1.999192
| 38>   H                      7.747471             -8.809037            -0.550858
| 39>   H                      8.601848             -9.949009            0.269711
| 40>   H                      7.118040             -9.192842            0.968932
| 41>   C                    : 10.999349            -5.266649            -1.319768
| 42>   O                    : 11.616505            -5.919857            -0.228641
| 43>   H                    : 10.790786            -6.069596            0.322672
| 44>   H                    : 11.675425            -4.939022            -2.153195
| 45>   H                    : 10.217054            -5.852464            -1.723310
| 46>   H                    : 10.436245            -4.378384            -0.978400
| 47> *
| 48>
| 49> #Run DFT-D3 single point of the particle with dimer basis set
| 50> $new_job
| 51> %base "16-62_DFT_B"
| 52> ! wB97X-D3 def2-TZVP TIGHTSCF CHELPG PMODEL
| 53>
| 54> %scf
| 55> MaxIter 1000
| 56> end
| 57>
| 58> * xyz 0 1
| 59>   C                    : 8.058946             -9.033042            0.461038
| 60>   O                    : 8.872390             -8.090761            1.090432
| 61>   H                    : 8.823240             -8.265778            1.999192
| 62>   H                    : 7.747471             -8.809037            -0.550858
| 63>   H                    : 8.601848             -9.949009            0.269711
| 64>   H                    : 7.118040             -9.192842            0.968932
| 65>   C                      10.999349            -5.266649            -1.319768
| 66>   O                      11.616505            -5.919857            -0.228641
| 67>   H                      10.790786            -6.069596            0.322672
| 68>   H                      11.675425            -4.939022            -2.153195
| 69>   H                      10.217054            -5.852464            -1.723310
| 70>   H                      10.436245            -4.378384            -0.978400
| 71> *
| 72>
| 73>                          ****END OF INPUT****
 Total Charge           Charge          ....    0
 Multiplicity           Mult            ....    1
 Number of Electrons    NEL             ....   36
Dispersion correction           -0.001148245
FINAL SINGLE POINT ENERGY      -231.461723193758
Dispersion correction           -0.000234318
FINAL SINGLE POINT ENERGY      -115.730810741520

CARTESIAN COORDINATES (ANGSTROEM)
---------------------------------
  C      8.058946   -9.033042    0.461038
  O      8.872390   -8.090761    1.090432
  H      8.823240   -8.265778    1.999192
  H      7.747471   -8.809037   -0.550858
  H      8.601848   -9.949009    0.269711
  H      7.118040   -9.192842    0.968932
  C     10.999349   -5.266649   -1.319768
  O     11.616505   -5.919857   -0.228641
  H     10.790786   -6.069596    0.322672
  H     11.675425   -4.939022   -2.153195
  H     10.217054   -5.852464   -1.723310
  H     10.436245   -4.378384   -0.978400

 Multiplicity           Mult            ....    1
 Number of Electrons    NEL             ....   18
 Basis Dimension        Dim             ....  172

ORBITAL ENERGIES
----------------

  NO   OCC          E(Eh)            E(eV)
   0   2.0000     -19.238754      -523.5131
   1   2.0000     -10.313634      -280.6482
   2   2.0000      -1.136805       -30.9340
   3   2.0000      -0.789522       -21.4840
   4   2.0000      -0.609716       -16.5912
   5   2.0000      -0.536929       -14.6106
   6   2.0000      -0.527420       -14.3518
   7   2.0000      -0.445442       -12.1211
   8   2.0000      -0.370684       -10.0868
   9   0.0000       0.071813         1.9541
  10   0.0000       0.115452         3.1416
  11   0.0000       0.142964         3.8903
  12   0.0000       0.169693         4.6176
  13   0.0000       0.188030         5.1166

MULLIKEN ATOMIC CHARGES
-----------------------
   0 C :   -0.000492
   1 O :   -0.000537
   2 H :   -0.000082
   3 H :   -0.000048
   4 H :    0.000043
   5 H :    0.000001
   6 C :   -0.196345
   7 O :   -0.457408
   8 H :    0.319078
   9 H :    0.124021
  10 H :    0.111127
  11 H :    0.100643
Sum of atomic charges:    0.0000000

LOEWDIN ATOMIC CHARGES
----------------------
   0 C :   -0.000272
   1 O :   -0.001765
   2 H :   -0.000188
   3 H :   -0.000037
   4 H :   -0.000005
   5 H :   -0.000008
   6 C :   -0.404334
   7 O :   -0.091093
   8 H :    0.202494
   9 H :    0.114193
  10 H :    0.085620
  11 H :    0.095393

  Mayer bond orders larger than 0.1
B(  6-C ,  7-O ) :   0.9971 B(  6-C ,  9-H ) :   0.9695 B(  6-C , 10-H ) :   0.9755
B(  6-C , 11-H ) :   0.9817 B(  7-O ,  8-H ) :   0.8964

Dispersion correction           -0.000215747
FINAL SINGLE POINT ENERGY      -115.727227468408

DIPOLE MOMENT
-------------
                                X             Y             Z
Electronic contribution:      1.13180      -0.92454       1.32861
Nuclear contribution   :     -1.87141       1.07743      -1.42430
                        -----------------------------------------
Total Dipole Moment    :     -0.73961       0.15289      -0.09569
                        -----------------------------------------
Magnitude (a.u.)       :      0.76128
Magnitude (Debye)      :      1.93503

Rotational constants in cm-1:     4.223636     0.841894     0.794552
Rotational constants in MHz : 126621.421142 25239.347661 23820.070406

                             ****ORCA TERMINATED NORMALLY****
TOTAL RUN TIME: 0 days 0 hours 1 minutes 2 seconds 125 msec
