                         Program Version 4.1.2  - RELEASE  -
|  1> #Run DFT-D3 single point of the dimer
|  2> ! wB97X-D3 def2-TZVP TIGHTSCF CHELPG PMODEL PAL8
|  3>
|  4> %base "15-192_DFT_AB"
|  5>
|  6> %scf
|  7> MaxIter 1000
|  8> end
|  9>
| 10> * xyz 0 1
| 11>   C                      -7.981645            7.968449             2.554353
| 12>   O                      -7.352871            7.303893             1.477125
| 13>   H                      -6.428532            7.589346             1.516940
| 14>   H                      -8.074758            9.059572             2.456553
| 15>   H                      -8.998607            7.648953             2.752665
| 16>   H                      -7.425151            7.825328             3.456174
| 17>   C                      -10.794103           7.923745             -0.381378
| 18>   O                      -9.384621            8.224671             -0.537492
| 19>   H                      -8.927272            7.739375             0.112836
| 20>   H                      -11.348183           8.222421             -1.285125
| 21>   H                      -10.884560           6.832683             -0.192969
| 22>   H                      -11.337824           8.388577             0.464184
| 23> *
| 24>
| 25> #Run DFT-D3 single point of the molecule with dimer basis set
| 26> $new_job
| 27> %base "15-192_DFT_A"
| 28> ! wB97X-D3 def2-TZVP TIGHTSCF CHELPG PMODEL
| 29>
| 30> %scf
| 31> MaxIter 1000
| 32> end
| 33>
| 34> * xyz 0 1
| 35>   C                      -7.981645            7.968449             2.554353
| 36>   O                      -7.352871            7.303893             1.477125
| 37>   H                      -6.428532            7.589346             1.516940
| 38>   H                      -8.074758            9.059572             2.456553
| 39>   H                      -8.998607            7.648953             2.752665
| 40>   H                      -7.425151            7.825328             3.456174
| 41>   C                    : -10.794103           7.923745             -0.381378
| 42>   O                    : -9.384621            8.224671             -0.537492
| 43>   H                    : -8.927272            7.739375             0.112836
| 44>   H                    : -11.348183           8.222421             -1.285125
| 45>   H                    : -10.884560           6.832683             -0.192969
| 46>   H                    : -11.337824           8.388577             0.464184
| 47> *
| 48>
| 49> #Run DFT-D3 single point of the particle with dimer basis set
| 50> $new_job
| 51> %base "15-192_DFT_B"
| 52> ! wB97X-D3 def2-TZVP TIGHTSCF CHELPG PMODEL
| 53>
| 54> %scf
| 55> MaxIter 1000
| 56> end
| 57>
| 58> * xyz 0 1
| 59>   C                    : -7.981645            7.968449             2.554353
| 60>   O                    : -7.352871            7.303893             1.477125
| 61>   H                    : -6.428532            7.589346             1.516940
| 62>   H                    : -8.074758            9.059572             2.456553
| 63>   H                    : -8.998607            7.648953             2.752665
| 64>   H                    : -7.425151            7.825328             3.456174
| 65>   C                      -10.794103           7.923745             -0.381378
| 66>   O                      -9.384621            8.224671             -0.537492
| 67>   H                      -8.927272            7.739375             0.112836
| 68>   H                      -11.348183           8.222421             -1.285125
| 69>   H                      -10.884560           6.832683             -0.192969
| 70>   H                      -11.337824           8.388577             0.464184
| 71> *
| 72>
| 73>                          ****END OF INPUT****
 Total Charge           Charge          ....    0
 Multiplicity           Mult            ....    1
 Number of Electrons    NEL             ....   36
Dispersion correction           -0.001912122
FINAL SINGLE POINT ENERGY      -231.473333552954
Dispersion correction           -0.000238874
FINAL SINGLE POINT ENERGY      -115.734143987740

CARTESIAN COORDINATES (ANGSTROEM)
---------------------------------
  C     -7.981645    7.968449    2.554353
  O     -7.352871    7.303893    1.477125
  H     -6.428532    7.589346    1.516940
  H     -8.074758    9.059572    2.456553
  H     -8.998607    7.648953    2.752665
  H     -7.425151    7.825328    3.456174
  C    -10.794103    7.923745   -0.381378
  O     -9.384621    8.224671   -0.537492
  H     -8.927272    7.739375    0.112836
  H    -11.348183    8.222421   -1.285125
  H    -10.884560    6.832683   -0.192969
  H    -11.337824    8.388577    0.464184

 Multiplicity           Mult            ....    1
 Number of Electrons    NEL             ....   18
 Basis Dimension        Dim             ....  172

ORBITAL ENERGIES
----------------

  NO   OCC          E(Eh)            E(eV)
   0   2.0000     -19.231465      -523.3148
   1   2.0000     -10.321827      -280.8712
   2   2.0000      -1.134263       -30.8649
   3   2.0000      -0.797454       -21.6998
   4   2.0000      -0.610879       -16.6229
   5   2.0000      -0.535466       -14.5708
   6   2.0000      -0.522384       -14.2148
   7   2.0000      -0.441000       -12.0002
   8   2.0000      -0.376066       -10.2333
   9   0.0000       0.072920         1.9842
  10   0.0000       0.131034         3.5656
  11   0.0000       0.146563         3.9882
  12   0.0000       0.168713         4.5909
  13   0.0000       0.190425         5.1817

MULLIKEN ATOMIC CHARGES
-----------------------
   0 C :   -0.011325
   1 O :    0.000763
   2 H :   -0.000005
   3 H :    0.000478
   4 H :    0.001310
   5 H :   -0.000700
   6 C :   -0.185138
   7 O :   -0.457369
   8 H :    0.306491
   9 H :    0.130528
  10 H :    0.108274
  11 H :    0.106694
Sum of atomic charges:   -0.0000000

LOEWDIN ATOMIC CHARGES
----------------------
   0 C :   -0.010506
   1 O :   -0.010184
   2 H :   -0.000493
   3 H :   -0.001206
   4 H :   -0.000958
   5 H :   -0.000238
   6 C :   -0.364445
   7 O :   -0.071927
   8 H :    0.152239
   9 H :    0.110720
  10 H :    0.100431
  11 H :    0.096566

  Mayer bond orders larger than 0.1
B(  6-C ,  7-O ) :   0.9999 B(  6-C ,  9-H ) :   0.9744 B(  6-C , 10-H ) :   0.9859
B(  6-C , 11-H ) :   0.9613 B(  7-O ,  8-H ) :   0.9119

Dispersion correction           -0.000264749
FINAL SINGLE POINT ENERGY      -115.733100756891

DIPOLE MOMENT
-------------
                                X             Y             Z
Electronic contribution:      1.77606       0.54483      -0.33889
Nuclear contribution   :     -2.07442      -0.98124       0.80319
                        -----------------------------------------
Total Dipole Moment    :     -0.29836      -0.43641       0.46430
                        -----------------------------------------
Magnitude (a.u.)       :      0.70359
Magnitude (Debye)      :      1.78838

Rotational constants in cm-1:     4.323167     0.796052     0.762907
Rotational constants in MHz : 129605.281323 23865.026514 22871.372768

                             ****ORCA TERMINATED NORMALLY****
TOTAL RUN TIME: 0 days 0 hours 1 minutes 7 seconds 638 msec
