                         Program Version 4.1.2  - RELEASE  -
|  1> #Run DFT-D3 single point of the dimer
|  2> ! wB97X-D3 def2-TZVP TIGHTSCF CHELPG PMODEL PAL8
|  3>
|  4> %base "3-65_DFT_AB"
|  5>
|  6> %scf
|  7> MaxIter 1000
|  8> end
|  9>
| 10> * xyz 0 1
| 11>   C                      -8.550756            3.122368             3.230009
| 12>   O                      -8.562572            2.964860             1.793958
| 13>   H                      -8.190921            3.761981             1.375839
| 14>   H                      -9.274297            2.452273             3.762807
| 15>   H                      -7.574168            2.767367             3.602449
| 16>   H                      -8.847867            4.108928             3.617314
| 17>   C                      -5.992115            -1.387739            5.107837
| 18>   O                      -5.329608            -0.290068            4.531162
| 19>   H                      -5.970827            0.280514             4.158896
| 20>   H                      -5.775991            -1.466988            6.147910
| 21>   H                      -7.074654            -1.268417            5.087857
| 22>   H                      -5.873471            -2.400819            4.623645
| 23> *
| 24>
| 25> #Run DFT-D3 single point of the molecule with dimer basis set
| 26> $new_job
| 27> %base "3-65_DFT_A"
| 28> ! wB97X-D3 def2-TZVP TIGHTSCF CHELPG PMODEL
| 29>
| 30> %scf
| 31> MaxIter 1000
| 32> end
| 33>
| 34> * xyz 0 1
| 35>   C                      -8.550756            3.122368             3.230009
| 36>   O                      -8.562572            2.964860             1.793958
| 37>   H                      -8.190921            3.761981             1.375839
| 38>   H                      -9.274297            2.452273             3.762807
| 39>   H                      -7.574168            2.767367             3.602449
| 40>   H                      -8.847867            4.108928             3.617314
| 41>   C                    : -5.992115            -1.387739            5.107837
| 42>   O                    : -5.329608            -0.290068            4.531162
| 43>   H                    : -5.970827            0.280514             4.158896
| 44>   H                    : -5.775991            -1.466988            6.147910
| 45>   H                    : -7.074654            -1.268417            5.087857
| 46>   H                    : -5.873471            -2.400819            4.623645
| 47> *
| 48>
| 49> #Run DFT-D3 single point of the particle with dimer basis set
| 50> $new_job
| 51> %base "3-65_DFT_B"
| 52> ! wB97X-D3 def2-TZVP TIGHTSCF CHELPG PMODEL
| 53>
| 54> %scf
| 55> MaxIter 1000
| 56> end
| 57>
| 58> * xyz 0 1
| 59>   C                    : -8.550756            3.122368             3.230009
| 60>   O                    : -8.562572            2.964860             1.793958
| 61>   H                    : -8.190921            3.761981             1.375839
| 62>   H                    : -9.274297            2.452273             3.762807
| 63>   H                    : -7.574168            2.767367             3.602449
| 64>   H                    : -8.847867            4.108928             3.617314
| 65>   C                      -5.992115            -1.387739            5.107837
| 66>   O                      -5.329608            -0.290068            4.531162
| 67>   H                      -5.970827            0.280514             4.158896
| 68>   H                      -5.775991            -1.466988            6.147910
| 69>   H                      -7.074654            -1.268417            5.087857
| 70>   H                      -5.873471            -2.400819            4.623645
| 71> *
| 72>
| 73>                          ****END OF INPUT****
 Total Charge           Charge          ....    0
 Multiplicity           Mult            ....    1
 Number of Electrons    NEL             ....   36
Dispersion correction           -0.000917785
FINAL SINGLE POINT ENERGY      -231.462780871878
Dispersion correction           -0.000281362
FINAL SINGLE POINT ENERGY      -115.731214966187

CARTESIAN COORDINATES (ANGSTROEM)
---------------------------------
  C     -8.550756    3.122368    3.230009
  O     -8.562572    2.964860    1.793958
  H     -8.190921    3.761981    1.375839
  H     -9.274297    2.452273    3.762807
  H     -7.574168    2.767367    3.602449
  H     -8.847867    4.108928    3.617314
  C     -5.992115   -1.387739    5.107837
  O     -5.329608   -0.290068    4.531162
  H     -5.970827    0.280514    4.158896
  H     -5.775991   -1.466988    6.147910
  H     -7.074654   -1.268417    5.087857
  H     -5.873471   -2.400819    4.623645

 Multiplicity           Mult            ....    1
 Number of Electrons    NEL             ....   18
 Basis Dimension        Dim             ....  172

ORBITAL ENERGIES
----------------

  NO   OCC          E(Eh)            E(eV)
   0   2.0000     -19.231252      -523.3090
   1   2.0000     -10.313080      -280.6332
   2   2.0000      -1.145077       -31.1591
   3   2.0000      -0.799926       -21.7671
   4   2.0000      -0.621742       -16.9185
   5   2.0000      -0.541505       -14.7351
   6   2.0000      -0.527121       -14.3437
   7   2.0000      -0.429964       -11.6999
   8   2.0000      -0.377819       -10.2810
   9   0.0000       0.073671         2.0047
  10   0.0000       0.118395         3.2217
  11   0.0000       0.148215         4.0331
  12   0.0000       0.162256         4.4152
  13   0.0000       0.191804         5.2192

MULLIKEN ATOMIC CHARGES
-----------------------
   0 C :    0.000111
   1 O :    0.000014
   2 H :   -0.000000
   3 H :   -0.000007
   4 H :   -0.000714
   5 H :   -0.000018
   6 C :   -0.176291
   7 O :   -0.466212
   8 H :    0.316686
   9 H :    0.116904
  10 H :    0.106140
  11 H :    0.103387
Sum of atomic charges:   -0.0000000

LOEWDIN ATOMIC CHARGES
----------------------
   0 C :   -0.000261
   1 O :   -0.000006
   2 H :   -0.000000
   3 H :   -0.000013
   4 H :   -0.000689
   5 H :   -0.000003
   6 C :   -0.395537
   7 O :   -0.055528
   8 H :    0.155913
   9 H :    0.095277
  10 H :    0.096130
  11 H :    0.104717

  Mayer bond orders larger than 0.1
B(  6-C ,  7-O ) :   1.0124 B(  6-C ,  9-H ) :   0.9757 B(  6-C , 10-H ) :   0.9874
B(  6-C , 11-H ) :   0.9680 B(  7-O ,  8-H ) :   0.9045

Dispersion correction           -0.000257012
FINAL SINGLE POINT ENERGY      -115.731042794760

DIPOLE MOMENT
-------------
                                X             Y             Z
Electronic contribution:      1.11402       1.44725      -0.74401
Nuclear contribution   :     -1.83195      -1.47880       0.73774
                        -----------------------------------------
Total Dipole Moment    :     -0.71793      -0.03155      -0.00627
                        -----------------------------------------
Magnitude (a.u.)       :      0.71865
Magnitude (Debye)      :      1.82666

Rotational constants in cm-1:     4.506603     0.823356     0.802633
Rotational constants in MHz : 135104.549987 24683.598736 24062.326609

                             ****ORCA TERMINATED NORMALLY****
TOTAL RUN TIME: 0 days 0 hours 6 minutes 5 seconds 654 msec
