                         Program Version 4.1.2  - RELEASE  -
|  1> #Run DFT-D3 single point of the dimer
|  2> ! wB97X-D3 def2-TZVP TIGHTSCF CHELPG PMODEL PAL8
|  3>
|  4> %base "18-35_DFT_AB"
|  5>
|  6> %scf
|  7> MaxIter 1000
|  8> end
|  9>
| 10> * xyz 0 1
| 11>   C                      5.188788             2.614549             -0.430988
| 12>   O                      4.272714             3.629414             -0.212891
| 13>   H                      4.735754             4.461235             -0.188900
| 14>   H                      5.899015             2.492255             0.391204
| 15>   H                      4.718363             1.670627             -0.695147
| 16>   H                      5.822392             2.953750             -1.309417
| 17>   C                      3.469008             -1.396693            3.312950
| 18>   O                      3.053525             -0.547470            4.334124
| 19>   H                      2.250818             -0.779523            4.803818
| 20>   H                      2.663102             -1.734516            2.755334
| 21>   H                      4.191269             -0.832370            2.641933
| 22>   H                      4.043062             -2.278263            3.746632
| 23> *
| 24>
| 25> #Run DFT-D3 single point of the molecule with dimer basis set
| 26> $new_job
| 27> %base "18-35_DFT_A"
| 28> ! wB97X-D3 def2-TZVP TIGHTSCF CHELPG PMODEL
| 29>
| 30> %scf
| 31> MaxIter 1000
| 32> end
| 33>
| 34> * xyz 0 1
| 35>   C                      5.188788             2.614549             -0.430988
| 36>   O                      4.272714             3.629414             -0.212891
| 37>   H                      4.735754             4.461235             -0.188900
| 38>   H                      5.899015             2.492255             0.391204
| 39>   H                      4.718363             1.670627             -0.695147
| 40>   H                      5.822392             2.953750             -1.309417
| 41>   C                    : 3.469008             -1.396693            3.312950
| 42>   O                    : 3.053525             -0.547470            4.334124
| 43>   H                    : 2.250818             -0.779523            4.803818
| 44>   H                    : 2.663102             -1.734516            2.755334
| 45>   H                    : 4.191269             -0.832370            2.641933
| 46>   H                    : 4.043062             -2.278263            3.746632
| 47> *
| 48>
| 49> #Run DFT-D3 single point of the particle with dimer basis set
| 50> $new_job
| 51> %base "18-35_DFT_B"
| 52> ! wB97X-D3 def2-TZVP TIGHTSCF CHELPG PMODEL
| 53>
| 54> %scf
| 55> MaxIter 1000
| 56> end
| 57>
| 58> * xyz 0 1
| 59>   C                    : 5.188788             2.614549             -0.430988
| 60>   O                    : 4.272714             3.629414             -0.212891
| 61>   H                    : 4.735754             4.461235             -0.188900
| 62>   H                    : 5.899015             2.492255             0.391204
| 63>   H                    : 4.718363             1.670627             -0.695147
| 64>   H                    : 5.822392             2.953750             -1.309417
| 65>   C                      3.469008             -1.396693            3.312950
| 66>   O                      3.053525             -0.547470            4.334124
| 67>   H                      2.250818             -0.779523            4.803818
| 68>   H                      2.663102             -1.734516            2.755334
| 69>   H                      4.191269             -0.832370            2.641933
| 70>   H                      4.043062             -2.278263            3.746632
| 71> *
| 72>
| 73>                          ****END OF INPUT****
 Total Charge           Charge          ....    0
 Multiplicity           Mult            ....    1
 Number of Electrons    NEL             ....   36
Dispersion correction           -0.000611799
FINAL SINGLE POINT ENERGY      -231.463725881826
Dispersion correction           -0.000220553
FINAL SINGLE POINT ENERGY      -115.733199678990

CARTESIAN COORDINATES (ANGSTROEM)
---------------------------------
  C      5.188788    2.614549   -0.430988
  O      4.272714    3.629414   -0.212891
  H      4.735754    4.461235   -0.188900
  H      5.899015    2.492255    0.391204
  H      4.718363    1.670627   -0.695147
  H      5.822392    2.953750   -1.309417
  C      3.469008   -1.396693    3.312950
  O      3.053525   -0.547470    4.334124
  H      2.250818   -0.779523    4.803818
  H      2.663102   -1.734516    2.755334
  H      4.191269   -0.832370    2.641933
  H      4.043062   -2.278263    3.746632

 Multiplicity           Mult            ....    1
 Number of Electrons    NEL             ....   18
 Basis Dimension        Dim             ....  172

ORBITAL ENERGIES
----------------

  NO   OCC          E(Eh)            E(eV)
   0   2.0000     -19.224230      -523.1179
   1   2.0000     -10.314655      -280.6760
   2   2.0000      -1.136564       -30.9275
   3   2.0000      -0.796592       -21.6764
   4   2.0000      -0.618256       -16.8236
   5   2.0000      -0.541998       -14.7485
   6   2.0000      -0.527682       -14.3590
   7   2.0000      -0.420984       -11.4556
   8   2.0000      -0.368707       -10.0330
   9   0.0000       0.087223         2.3735
  10   0.0000       0.117533         3.1982
  11   0.0000       0.146044         3.9741
  12   0.0000       0.170770         4.6469
  13   0.0000       0.190255         5.1771

MULLIKEN ATOMIC CHARGES
-----------------------
   0 C :    0.000033
   1 O :   -0.000002
   2 H :   -0.000000
   3 H :   -0.000025
   4 H :   -0.000064
   5 H :   -0.000001
   6 C :   -0.139221
   7 O :   -0.493290
   8 H :    0.319063
   9 H :    0.107940
  10 H :    0.114258
  11 H :    0.091310
Sum of atomic charges:    0.0000000

LOEWDIN ATOMIC CHARGES
----------------------
   0 C :   -0.000054
   1 O :   -0.000001
   2 H :   -0.000000
   3 H :   -0.000016
   4 H :   -0.000034
   5 H :   -0.000000
   6 C :   -0.396271
   7 O :   -0.066806
   8 H :    0.165716
   9 H :    0.080585
  10 H :    0.116592
  11 H :    0.100289

  Mayer bond orders larger than 0.1
B(  6-C ,  7-O ) :   0.9949 B(  6-C ,  9-H ) :   0.9798 B(  6-C , 10-H ) :   0.9706
B(  6-C , 11-H ) :   0.9763 B(  7-O ,  8-H ) :   0.8908

Dispersion correction           -0.000250589
FINAL SINGLE POINT ENERGY      -115.730544531727

DIPOLE MOMENT
-------------
                                X             Y             Z
Electronic contribution:     -0.58268       1.13053       1.22047
Nuclear contribution   :      0.17892      -1.61603      -1.33548
                        -----------------------------------------
Total Dipole Moment    :     -0.40376      -0.48550      -0.11501
                        -----------------------------------------
Magnitude (a.u.)       :      0.64184
Magnitude (Debye)      :      1.63144

Rotational constants in cm-1:     4.325735     0.841018     0.815786
Rotational constants in MHz : 129682.277068 25213.076332 24456.641089

                             ****ORCA TERMINATED NORMALLY****
TOTAL RUN TIME: 0 days 0 hours 0 minutes 53 seconds 769 msec
