                         Program Version 4.1.2  - RELEASE  -
|  1> #Run DFT-D3 single point of the dimer
|  2> ! wB97X-D3 def2-TZVP TIGHTSCF CHELPG PMODEL PAL8
|  3>
|  4> %base "14-100_DFT_AB"
|  5>
|  6> %scf
|  7> MaxIter 1000
|  8> end
|  9>
| 10> * xyz 0 1
| 11>   C                      -8.023118            5.970073             -7.301579
| 12>   O                      -7.208899            5.748031             -6.199433
| 13>   H                      -7.582233            5.100643             -5.540227
| 14>   H                      -8.491772            6.984259             -7.204203
| 15>   H                      -7.494694            5.832346             -8.256467
| 16>   H                      -8.841849            5.215604             -7.301558
| 17>   C                      -4.073277            7.976176             -7.110372
| 18>   O                      -5.078021            7.769096             -8.089968
| 19>   H                      -5.291997            8.628323             -8.440307
| 20>   H                      -4.462552            8.605275             -6.311199
| 21>   H                      -3.792457            7.025304             -6.538516
| 22>   H                      -3.206535            8.432150             -7.580872
| 23> *
| 24>
| 25> #Run DFT-D3 single point of the molecule with dimer basis set
| 26> $new_job
| 27> %base "14-100_DFT_A"
| 28> ! wB97X-D3 def2-TZVP TIGHTSCF CHELPG PMODEL
| 29>
| 30> %scf
| 31> MaxIter 1000
| 32> end
| 33>
| 34> * xyz 0 1
| 35>   C                      -8.023118            5.970073             -7.301579
| 36>   O                      -7.208899            5.748031             -6.199433
| 37>   H                      -7.582233            5.100643             -5.540227
| 38>   H                      -8.491772            6.984259             -7.204203
| 39>   H                      -7.494694            5.832346             -8.256467
| 40>   H                      -8.841849            5.215604             -7.301558
| 41>   C                    : -4.073277            7.976176             -7.110372
| 42>   O                    : -5.078021            7.769096             -8.089968
| 43>   H                    : -5.291997            8.628323             -8.440307
| 44>   H                    : -4.462552            8.605275             -6.311199
| 45>   H                    : -3.792457            7.025304             -6.538516
| 46>   H                    : -3.206535            8.432150             -7.580872
| 47> *
| 48>
| 49> #Run DFT-D3 single point of the particle with dimer basis set
| 50> $new_job
| 51> %base "14-100_DFT_B"
| 52> ! wB97X-D3 def2-TZVP TIGHTSCF CHELPG PMODEL
| 53>
| 54> %scf
| 55> MaxIter 1000
| 56> end
| 57>
| 58> * xyz 0 1
| 59>   C                    : -8.023118            5.970073             -7.301579
| 60>   O                    : -7.208899            5.748031             -6.199433
| 61>   H                    : -7.582233            5.100643             -5.540227
| 62>   H                    : -8.491772            6.984259             -7.204203
| 63>   H                    : -7.494694            5.832346             -8.256467
| 64>   H                    : -8.841849            5.215604             -7.301558
| 65>   C                      -4.073277            7.976176             -7.110372
| 66>   O                      -5.078021            7.769096             -8.089968
| 67>   H                      -5.291997            8.628323             -8.440307
| 68>   H                      -4.462552            8.605275             -6.311199
| 69>   H                      -3.792457            7.025304             -6.538516
| 70>   H                      -3.206535            8.432150             -7.580872
| 71> *
| 72>
| 73>                          ****END OF INPUT****
 Total Charge           Charge          ....    0
 Multiplicity           Mult            ....    1
 Number of Electrons    NEL             ....   36
Dispersion correction           -0.001524008
FINAL SINGLE POINT ENERGY      -231.464988326827
Dispersion correction           -0.000249417
FINAL SINGLE POINT ENERGY      -115.731415415123

CARTESIAN COORDINATES (ANGSTROEM)
---------------------------------
  C     -8.023118    5.970073   -7.301579
  O     -7.208899    5.748031   -6.199433
  H     -7.582233    5.100643   -5.540227
  H     -8.491772    6.984259   -7.204203
  H     -7.494694    5.832346   -8.256467
  H     -8.841849    5.215604   -7.301558
  C     -4.073277    7.976176   -7.110372
  O     -5.078021    7.769096   -8.089968
  H     -5.291997    8.628323   -8.440307
  H     -4.462552    8.605275   -6.311199
  H     -3.792457    7.025304   -6.538516
  H     -3.206535    8.432150   -7.580872

 Multiplicity           Mult            ....    1
 Number of Electrons    NEL             ....   18
 Basis Dimension        Dim             ....  172

ORBITAL ENERGIES
----------------

  NO   OCC          E(Eh)            E(eV)
   0   2.0000     -19.229701      -523.2668
   1   2.0000     -10.317504      -280.7536
   2   2.0000      -1.137852       -30.9625
   3   2.0000      -0.792433       -21.5632
   4   2.0000      -0.608333       -16.5536
   5   2.0000      -0.550174       -14.9710
   6   2.0000      -0.522705       -14.2235
   7   2.0000      -0.430086       -11.7032
   8   2.0000      -0.374548       -10.1920
   9   0.0000       0.094264         2.5650
  10   0.0000       0.122762         3.3405
  11   0.0000       0.147270         4.0074
  12   0.0000       0.180151         4.9021
  13   0.0000       0.195101         5.3090

MULLIKEN ATOMIC CHARGES
-----------------------
   0 C :    0.001686
   1 O :   -0.000655
   2 H :   -0.000052
   3 H :   -0.001896
   4 H :   -0.003514
   5 H :   -0.000277
   6 C :   -0.175064
   7 O :   -0.468099
   8 H :    0.313644
   9 H :    0.107065
  10 H :    0.119123
  11 H :    0.108040
Sum of atomic charges:   -0.0000000

LOEWDIN ATOMIC CHARGES
----------------------
   0 C :   -0.007581
   1 O :   -0.000854
   2 H :   -0.000048
   3 H :   -0.000803
   4 H :   -0.002895
   5 H :   -0.000108
   6 C :   -0.389028
   7 O :   -0.070429
   8 H :    0.164731
   9 H :    0.093538
  10 H :    0.119096
  11 H :    0.094380

  Mayer bond orders larger than 0.1
B(  6-C ,  7-O ) :   0.9858 B(  6-C ,  9-H ) :   0.9783 B(  6-C , 10-H ) :   0.9708
B(  6-C , 11-H ) :   0.9751 B(  7-O ,  8-H ) :   0.8991

Dispersion correction           -0.000233022
FINAL SINGLE POINT ENERGY      -115.733274186381

DIPOLE MOMENT
-------------
                                X             Y             Z
Electronic contribution:     -1.22784      -0.39506      -1.29468
Nuclear contribution   :      1.49783       1.03102       1.47632
                        -----------------------------------------
Total Dipole Moment    :      0.26999       0.63597       0.18165
                        -----------------------------------------
Magnitude (a.u.)       :      0.71438
Magnitude (Debye)      :      1.81581

Rotational constants in cm-1:     4.231905     0.826209     0.796608
Rotational constants in MHz : 126869.334019 24769.126655 23881.716134

                             ****ORCA TERMINATED NORMALLY****
TOTAL RUN TIME: 0 days 0 hours 0 minutes 55 seconds 999 msec
