                         Program Version 4.1.2  - RELEASE  -
|  1> #Run DFT-D3 single point of the dimer
|  2> ! wB97X-D3 def2-TZVP TIGHTSCF CHELPG PMODEL PAL8
|  3>
|  4> %base "13-13_DFT_AB"
|  5>
|  6> %scf
|  7> MaxIter 1000
|  8> end
|  9>
| 10> * xyz 0 1
| 11>   C                      -1.759558            -3.697240            10.473655
| 12>   O                      -1.814703            -2.791501            9.446395
| 13>   H                      -1.493921            -1.963915            9.817831
| 14>   H                      -0.839036            -3.765161            10.942798
| 15>   H                      -2.437705            -3.484567            11.215743
| 16>   H                      -1.906414            -4.658250            10.028213
| 17>   C                      -2.447837            -9.221509            10.206205
| 18>   O                      -2.766401            -8.434773            11.247608
| 19>   H                      -2.727768            -8.932080            12.065945
| 20>   H                      -2.954325            -8.912146            9.262412
| 21>   H                      -1.337661            -9.280567            10.010967
| 22>   H                      -2.763479            -10.252030           10.443691
| 23> *
| 24>
| 25> #Run DFT-D3 single point of the molecule with dimer basis set
| 26> $new_job
| 27> %base "13-13_DFT_A"
| 28> ! wB97X-D3 def2-TZVP TIGHTSCF CHELPG PMODEL
| 29>
| 30> %scf
| 31> MaxIter 1000
| 32> end
| 33>
| 34> * xyz 0 1
| 35>   C                      -1.759558            -3.697240            10.473655
| 36>   O                      -1.814703            -2.791501            9.446395
| 37>   H                      -1.493921            -1.963915            9.817831
| 38>   H                      -0.839036            -3.765161            10.942798
| 39>   H                      -2.437705            -3.484567            11.215743
| 40>   H                      -1.906414            -4.658250            10.028213
| 41>   C                    : -2.447837            -9.221509            10.206205
| 42>   O                    : -2.766401            -8.434773            11.247608
| 43>   H                    : -2.727768            -8.932080            12.065945
| 44>   H                    : -2.954325            -8.912146            9.262412
| 45>   H                    : -1.337661            -9.280567            10.010967
| 46>   H                    : -2.763479            -10.252030           10.443691
| 47> *
| 48>
| 49> #Run DFT-D3 single point of the particle with dimer basis set
| 50> $new_job
| 51> %base "13-13_DFT_B"
| 52> ! wB97X-D3 def2-TZVP TIGHTSCF CHELPG PMODEL
| 53>
| 54> %scf
| 55> MaxIter 1000
| 56> end
| 57>
| 58> * xyz 0 1
| 59>   C                    : -1.759558            -3.697240            10.473655
| 60>   O                    : -1.814703            -2.791501            9.446395
| 61>   H                    : -1.493921            -1.963915            9.817831
| 62>   H                    : -0.839036            -3.765161            10.942798
| 63>   H                    : -2.437705            -3.484567            11.215743
| 64>   H                    : -1.906414            -4.658250            10.028213
| 65>   C                      -2.447837            -9.221509            10.206205
| 66>   O                      -2.766401            -8.434773            11.247608
| 67>   H                      -2.727768            -8.932080            12.065945
| 68>   H                      -2.954325            -8.912146            9.262412
| 69>   H                      -1.337661            -9.280567            10.010967
| 70>   H                      -2.763479            -10.252030           10.443691
| 71> *
| 72>
| 73>                          ****END OF INPUT****
 Total Charge           Charge          ....    0
 Multiplicity           Mult            ....    1
 Number of Electrons    NEL             ....   36
Dispersion correction           -0.000627760
FINAL SINGLE POINT ENERGY      -231.460056515788
Dispersion correction           -0.000194011
FINAL SINGLE POINT ENERGY      -115.728292642575

CARTESIAN COORDINATES (ANGSTROEM)
---------------------------------
  C     -1.759558   -3.697240   10.473655
  O     -1.814703   -2.791501    9.446395
  H     -1.493921   -1.963915    9.817831
  H     -0.839036   -3.765161   10.942798
  H     -2.437705   -3.484567   11.215743
  H     -1.906414   -4.658250   10.028213
  C     -2.447837   -9.221509   10.206205
  O     -2.766401   -8.434773   11.247608
  H     -2.727768   -8.932080   12.065945
  H     -2.954325   -8.912146    9.262412
  H     -1.337661   -9.280567   10.010967
  H     -2.763479  -10.252030   10.443691

 Multiplicity           Mult            ....    1
 Number of Electrons    NEL             ....   18
 Basis Dimension        Dim             ....  172

ORBITAL ENERGIES
----------------

  NO   OCC          E(Eh)            E(eV)
   0   2.0000     -19.230053      -523.2763
   1   2.0000     -10.314400      -280.6691
   2   2.0000      -1.160462       -31.5778
   3   2.0000      -0.789247       -21.4765
   4   2.0000      -0.626320       -17.0430
   5   2.0000      -0.544116       -14.8062
   6   2.0000      -0.540255       -14.7011
   7   2.0000      -0.423406       -11.5215
   8   2.0000      -0.367858       -10.0099
   9   0.0000       0.093979         2.5573
  10   0.0000       0.111494         3.0339
  11   0.0000       0.155317         4.2264
  12   0.0000       0.173186         4.7126
  13   0.0000       0.199322         5.4238

MULLIKEN ATOMIC CHARGES
-----------------------
   0 C :    0.000209
   1 O :   -0.000012
   2 H :   -0.000001
   3 H :   -0.000011
   4 H :    0.000011
   5 H :   -0.000954
   6 C :   -0.145381
   7 O :   -0.458554
   8 H :    0.321821
   9 H :    0.109333
  10 H :    0.084383
  11 H :    0.089156
Sum of atomic charges:    0.0000000

LOEWDIN ATOMIC CHARGES
----------------------
   0 C :   -0.000200
   1 O :   -0.000004
   2 H :   -0.000001
   3 H :   -0.000003
   4 H :   -0.000005
   5 H :   -0.000340
   6 C :   -0.447061
   7 O :   -0.024026
   8 H :    0.175916
   9 H :    0.108255
  10 H :    0.094176
  11 H :    0.093293

  Mayer bond orders larger than 0.1
B(  6-C ,  7-O ) :   1.0127 B(  6-C ,  9-H ) :   0.9708 B(  6-C , 10-H ) :   0.9701
B(  6-C , 11-H ) :   0.9925 B(  7-O ,  8-H ) :   0.8928

Dispersion correction           -0.000225096
FINAL SINGLE POINT ENERGY      -115.731342149315

DIPOLE MOMENT
-------------
                                X             Y             Z
Electronic contribution:     -0.49777       1.25927       1.34115
Nuclear contribution   :      0.60121      -1.87062      -1.15825
                        -----------------------------------------
Total Dipole Moment    :      0.10344      -0.61135       0.18290
                        -----------------------------------------
Magnitude (a.u.)       :      0.64645
Magnitude (Debye)      :      1.64315

Rotational constants in cm-1:     4.230062     0.893705     0.860137
Rotational constants in MHz : 126814.074425 26792.594748 25786.260590

                             ****ORCA TERMINATED NORMALLY****
TOTAL RUN TIME: 0 days 0 hours 1 minutes 7 seconds 477 msec
