                         Program Version 4.1.2  - RELEASE  -
|  1> #Run DFT-D3 single point of the dimer
|  2> ! wB97X-D3 def2-TZVP TIGHTSCF CHELPG PMODEL PAL8
|  3>
|  4> %base "22-17_DFT_AB"
|  5>
|  6> %scf
|  7> MaxIter 1000
|  8> end
|  9>
| 10> * xyz 0 1
| 11>   C                      -0.754698            -4.429643            3.939378
| 12>   O                      -1.196798            -4.428082            5.254249
| 13>   H                      -0.395699            -4.752719            5.779728
| 14>   H                      -0.383757            -5.340087            3.635676
| 15>   H                      -1.507620            -4.118996            3.190048
| 16>   H                      0.031200             -3.762485            3.769299
| 17>   C                      -4.521975            -6.233287            5.954755
| 18>   O                      -4.879138            -6.814400            7.255290
| 19>   H                      -4.346958            -6.453633            7.886201
| 20>   H                      -3.499010            -6.592115            5.620698
| 21>   H                      -5.202318            -6.713222            5.198677
| 22>   H                      -4.591454            -5.146394            5.966266
| 23> *
| 24>
| 25> #Run DFT-D3 single point of the molecule with dimer basis set
| 26> $new_job
| 27> %base "22-17_DFT_A"
| 28> ! wB97X-D3 def2-TZVP TIGHTSCF CHELPG PMODEL
| 29>
| 30> %scf
| 31> MaxIter 1000
| 32> end
| 33>
| 34> * xyz 0 1
| 35>   C                      -0.754698            -4.429643            3.939378
| 36>   O                      -1.196798            -4.428082            5.254249
| 37>   H                      -0.395699            -4.752719            5.779728
| 38>   H                      -0.383757            -5.340087            3.635676
| 39>   H                      -1.507620            -4.118996            3.190048
| 40>   H                      0.031200             -3.762485            3.769299
| 41>   C                    : -4.521975            -6.233287            5.954755
| 42>   O                    : -4.879138            -6.814400            7.255290
| 43>   H                    : -4.346958            -6.453633            7.886201
| 44>   H                    : -3.499010            -6.592115            5.620698
| 45>   H                    : -5.202318            -6.713222            5.198677
| 46>   H                    : -4.591454            -5.146394            5.966266
| 47> *
| 48>
| 49> #Run DFT-D3 single point of the particle with dimer basis set
| 50> $new_job
| 51> %base "22-17_DFT_B"
| 52> ! wB97X-D3 def2-TZVP TIGHTSCF CHELPG PMODEL
| 53>
| 54> %scf
| 55> MaxIter 1000
| 56> end
| 57>
| 58> * xyz 0 1
| 59>   C                    : -0.754698            -4.429643            3.939378
| 60>   O                    : -1.196798            -4.428082            5.254249
| 61>   H                    : -0.395699            -4.752719            5.779728
| 62>   H                    : -0.383757            -5.340087            3.635676
| 63>   H                    : -1.507620            -4.118996            3.190048
| 64>   H                    : 0.031200             -3.762485            3.769299
| 65>   C                      -4.521975            -6.233287            5.954755
| 66>   O                      -4.879138            -6.814400            7.255290
| 67>   H                      -4.346958            -6.453633            7.886201
| 68>   H                      -3.499010            -6.592115            5.620698
| 69>   H                      -5.202318            -6.713222            5.198677
| 70>   H                      -4.591454            -5.146394            5.966266
| 71> *
| 72>
| 73>                          ****END OF INPUT****
 Total Charge           Charge          ....    0
 Multiplicity           Mult            ....    1
 Number of Electrons    NEL             ....   36
Dispersion correction           -0.001189965
FINAL SINGLE POINT ENERGY      -231.457290126199
Dispersion correction           -0.000214268
FINAL SINGLE POINT ENERGY      -115.726528161127

CARTESIAN COORDINATES (ANGSTROEM)
---------------------------------
  C     -0.754698   -4.429643    3.939378
  O     -1.196798   -4.428082    5.254249
  H     -0.395699   -4.752719    5.779728
  H     -0.383757   -5.340087    3.635676
  H     -1.507620   -4.118996    3.190048
  H      0.031200   -3.762485    3.769299
  C     -4.521975   -6.233287    5.954755
  O     -4.879138   -6.814400    7.255290
  H     -4.346958   -6.453633    7.886201
  H     -3.499010   -6.592115    5.620698
  H     -5.202318   -6.713222    5.198677
  H     -4.591454   -5.146394    5.966266

 Multiplicity           Mult            ....    1
 Number of Electrons    NEL             ....   18
 Basis Dimension        Dim             ....  172

ORBITAL ENERGIES
----------------

  NO   OCC          E(Eh)            E(eV)
   0   2.0000     -19.223539      -523.0991
   1   2.0000     -10.326244      -280.9914
   2   2.0000      -1.132916       -30.8282
   3   2.0000      -0.797661       -21.7055
   4   2.0000      -0.605692       -16.4817
   5   2.0000      -0.541509       -14.7352
   6   2.0000      -0.514123       -13.9900
   7   2.0000      -0.436578       -11.8799
   8   2.0000      -0.377588       -10.2747
   9   0.0000       0.077814         2.1174
  10   0.0000       0.120810         3.2874
  11   0.0000       0.148362         4.0371
  12   0.0000       0.163717         4.4550
  13   0.0000       0.181642         4.9427

MULLIKEN ATOMIC CHARGES
-----------------------
   0 C :   -0.000619
   1 O :    0.000009
   2 H :   -0.000053
   3 H :   -0.000007
   4 H :    0.000040
   5 H :   -0.000020
   6 C :   -0.170362
   7 O :   -0.469167
   8 H :    0.296778
   9 H :    0.103217
  10 H :    0.124410
  11 H :    0.115774
Sum of atomic charges:   -0.0000000

LOEWDIN ATOMIC CHARGES
----------------------
   0 C :   -0.000745
   1 O :   -0.000853
   2 H :   -0.000153
   3 H :   -0.000057
   4 H :   -0.000038
   5 H :   -0.000017
   6 C :   -0.349150
   7 O :   -0.084400
   8 H :    0.120284
   9 H :    0.102652
  10 H :    0.116974
  11 H :    0.095503

  Mayer bond orders larger than 0.1
B(  6-C ,  7-O ) :   0.9929 B(  6-C ,  9-H ) :   0.9732 B(  6-C , 10-H ) :   0.9730
B(  6-C , 11-H ) :   0.9694 B(  7-O ,  8-H ) :   0.9189

Dispersion correction           -0.000268103
FINAL SINGLE POINT ENERGY      -115.729297669386

DIPOLE MOMENT
-------------
                                X             Y             Z
Electronic contribution:     -0.54315      -0.62973       1.58148
Nuclear contribution   :      1.03394       1.10735      -1.72826
                        -----------------------------------------
Total Dipole Moment    :      0.49079       0.47762      -0.14678
                        -----------------------------------------
Magnitude (a.u.)       :      0.70038
Magnitude (Debye)      :      1.78024

Rotational constants in cm-1:     4.206113     0.780564     0.758469
Rotational constants in MHz : 126096.098754 23400.709380 22738.315585

                             ****ORCA TERMINATED NORMALLY****
TOTAL RUN TIME: 0 days 0 hours 1 minutes 4 seconds 579 msec
