                         Program Version 4.1.2  - RELEASE  -
|  1> #Run DFT-D3 single point of the dimer
|  2> ! wB97X-D3 def2-TZVP TIGHTSCF CHELPG PMODEL PAL8
|  3>
|  4> %base "18-51_DFT_AB"
|  5>
|  6> %scf
|  7> MaxIter 1000
|  8> end
|  9>
| 10> * xyz 0 1
| 11>   C                      -2.012563            4.665636             -1.975602
| 12>   O                      -2.587163            3.443356             -2.387225
| 13>   H                      -2.699769            2.832937             -1.683804
| 14>   H                      -1.104865            4.452574             -1.373677
| 15>   H                      -1.693675            5.183946             -2.882772
| 16>   H                      -2.766827            5.318061             -1.491630
| 17>   C                      -0.304787            0.711468             -1.671236
| 18>   O                      -0.358913            0.136075             -0.411054
| 19>   H                      -0.991350            0.716798             0.069101
| 20>   H                      -0.935680            0.160877             -2.344525
| 21>   H                      -0.561862            1.807531             -1.623286
| 22>   H                      0.713129             0.581412             -2.045958
| 23> *
| 24>
| 25> #Run DFT-D3 single point of the molecule with dimer basis set
| 26> $new_job
| 27> %base "18-51_DFT_A"
| 28> ! wB97X-D3 def2-TZVP TIGHTSCF CHELPG PMODEL
| 29>
| 30> %scf
| 31> MaxIter 1000
| 32> end
| 33>
| 34> * xyz 0 1
| 35>   C                      -2.012563            4.665636             -1.975602
| 36>   O                      -2.587163            3.443356             -2.387225
| 37>   H                      -2.699769            2.832937             -1.683804
| 38>   H                      -1.104865            4.452574             -1.373677
| 39>   H                      -1.693675            5.183946             -2.882772
| 40>   H                      -2.766827            5.318061             -1.491630
| 41>   C                    : -0.304787            0.711468             -1.671236
| 42>   O                    : -0.358913            0.136075             -0.411054
| 43>   H                    : -0.991350            0.716798             0.069101
| 44>   H                    : -0.935680            0.160877             -2.344525
| 45>   H                    : -0.561862            1.807531             -1.623286
| 46>   H                    : 0.713129             0.581412             -2.045958
| 47> *
| 48>
| 49> #Run DFT-D3 single point of the particle with dimer basis set
| 50> $new_job
| 51> %base "18-51_DFT_B"
| 52> ! wB97X-D3 def2-TZVP TIGHTSCF CHELPG PMODEL
| 53>
| 54> %scf
| 55> MaxIter 1000
| 56> end
| 57>
| 58> * xyz 0 1
| 59>   C                    : -2.012563            4.665636             -1.975602
| 60>   O                    : -2.587163            3.443356             -2.387225
| 61>   H                    : -2.699769            2.832937             -1.683804
| 62>   H                    : -1.104865            4.452574             -1.373677
| 63>   H                    : -1.693675            5.183946             -2.882772
| 64>   H                    : -2.766827            5.318061             -1.491630
| 65>   C                      -0.304787            0.711468             -1.671236
| 66>   O                      -0.358913            0.136075             -0.411054
| 67>   H                      -0.991350            0.716798             0.069101
| 68>   H                      -0.935680            0.160877             -2.344525
| 69>   H                      -0.561862            1.807531             -1.623286
| 70>   H                      0.713129             0.581412             -2.045958
| 71> *
| 72>
| 73>                          ****END OF INPUT****
 Total Charge           Charge          ....    0
 Multiplicity           Mult            ....    1
 Number of Electrons    NEL             ....   36
Dispersion correction           -0.001645237
FINAL SINGLE POINT ENERGY      -231.467313638585
Dispersion correction           -0.000246454
FINAL SINGLE POINT ENERGY      -115.735600311716

CARTESIAN COORDINATES (ANGSTROEM)
---------------------------------
  C     -2.012563    4.665636   -1.975602
  O     -2.587163    3.443356   -2.387225
  H     -2.699769    2.832937   -1.683804
  H     -1.104865    4.452574   -1.373677
  H     -1.693675    5.183946   -2.882772
  H     -2.766827    5.318061   -1.491630
  C     -0.304787    0.711468   -1.671236
  O     -0.358913    0.136075   -0.411054
  H     -0.991350    0.716798    0.069101
  H     -0.935680    0.160877   -2.344525
  H     -0.561862    1.807531   -1.623286
  H      0.713129    0.581412   -2.045958

 Multiplicity           Mult            ....    1
 Number of Electrons    NEL             ....   18
 Basis Dimension        Dim             ....  172

ORBITAL ENERGIES
----------------

  NO   OCC          E(Eh)            E(eV)
   0   2.0000     -19.230934      -523.3003
   1   2.0000     -10.310945      -280.5751
   2   2.0000      -1.143743       -31.1228
   3   2.0000      -0.787638       -21.4327
   4   2.0000      -0.610763       -16.6197
   5   2.0000      -0.547621       -14.9015
   6   2.0000      -0.528907       -14.3923
   7   2.0000      -0.435130       -11.8405
   8   2.0000      -0.369668       -10.0592
   9   0.0000       0.074484         2.0268
  10   0.0000       0.116931         3.1819
  11   0.0000       0.158159         4.3037
  12   0.0000       0.167259         4.5514
  13   0.0000       0.184954         5.0329

MULLIKEN ATOMIC CHARGES
-----------------------
   0 C :   -0.001469
   1 O :   -0.000047
   2 H :    0.000433
   3 H :    0.000547
   4 H :    0.000064
   5 H :   -0.000010
   6 C :   -0.155777
   7 O :   -0.463123
   8 H :    0.317046
   9 H :    0.097598
  10 H :    0.094464
  11 H :    0.110275
Sum of atomic charges:   -0.0000000

LOEWDIN ATOMIC CHARGES
----------------------
   0 C :   -0.002902
   1 O :   -0.002663
   2 H :   -0.003674
   3 H :   -0.001461
   4 H :   -0.000034
   5 H :   -0.000031
   6 C :   -0.408196
   7 O :   -0.069413
   8 H :    0.187694
   9 H :    0.090893
  10 H :    0.105929
  11 H :    0.103857

  Mayer bond orders larger than 0.1
B(  6-C ,  7-O ) :   1.0108 B(  6-C ,  9-H ) :   0.9767 B(  6-C , 10-H ) :   0.9897
B(  6-C , 11-H ) :   0.9768 B(  7-O ,  8-H ) :   0.8999

Dispersion correction           -0.000218293
FINAL SINGLE POINT ENERGY      -115.731994089197

DIPOLE MOMENT
-------------
                                X             Y             Z
Electronic contribution:     -0.00665      -0.85029       1.58336
Nuclear contribution   :     -0.35521       1.41876      -1.74520
                        -----------------------------------------
Total Dipole Moment    :     -0.36186       0.56848      -0.16183
                        -----------------------------------------
Magnitude (a.u.)       :      0.69304
Magnitude (Debye)      :      1.76157

Rotational constants in cm-1:     4.114618     0.875114     0.831834
Rotational constants in MHz : 123353.142452 26235.261042 24937.757424

                             ****ORCA TERMINATED NORMALLY****
TOTAL RUN TIME: 0 days 0 hours 0 minutes 53 seconds 641 msec
