                         Program Version 4.1.2  - RELEASE  -
|  1> #Run DFT-D3 single point of the dimer
|  2> ! wB97X-D3 def2-TZVP TIGHTSCF CHELPG PMODEL PAL8
|  3>
|  4> %base "10-161_DFT_AB"
|  5>
|  6> %scf
|  7> MaxIter 1000
|  8> end
|  9>
| 10> * xyz 0 1
| 11>   C                      -2.030269            -0.860094            4.701773
| 12>   O                      -1.560259            -1.727254            3.739333
| 13>   H                      -2.090679            -1.511563            2.970343
| 14>   H                      -3.112571            -0.850576            4.889874
| 15>   H                      -1.502015            -1.055243            5.669747
| 16>   H                      -1.782010            0.256352             4.478952
| 17>   C                      -5.099899            -0.314163            2.273971
| 18>   O                      -4.169031            -1.341223            2.297468
| 19>   H                      -3.967029            -1.630792            1.383608
| 20>   H                      -4.650917            0.664407             1.983989
| 21>   H                      -5.904849            -0.446509            1.523370
| 22>   H                      -5.640213            -0.184676            3.176502
| 23> *
| 24>
| 25> #Run DFT-D3 single point of the molecule with dimer basis set
| 26> $new_job
| 27> %base "10-161_DFT_A"
| 28> ! wB97X-D3 def2-TZVP TIGHTSCF CHELPG PMODEL
| 29>
| 30> %scf
| 31> MaxIter 1000
| 32> end
| 33>
| 34> * xyz 0 1
| 35>   C                      -2.030269            -0.860094            4.701773
| 36>   O                      -1.560259            -1.727254            3.739333
| 37>   H                      -2.090679            -1.511563            2.970343
| 38>   H                      -3.112571            -0.850576            4.889874
| 39>   H                      -1.502015            -1.055243            5.669747
| 40>   H                      -1.782010            0.256352             4.478952
| 41>   C                    : -5.099899            -0.314163            2.273971
| 42>   O                    : -4.169031            -1.341223            2.297468
| 43>   H                    : -3.967029            -1.630792            1.383608
| 44>   H                    : -4.650917            0.664407             1.983989
| 45>   H                    : -5.904849            -0.446509            1.523370
| 46>   H                    : -5.640213            -0.184676            3.176502
| 47> *
| 48>
| 49> #Run DFT-D3 single point of the particle with dimer basis set
| 50> $new_job
| 51> %base "10-161_DFT_B"
| 52> ! wB97X-D3 def2-TZVP TIGHTSCF CHELPG PMODEL
| 53>
| 54> %scf
| 55> MaxIter 1000
| 56> end
| 57>
| 58> * xyz 0 1
| 59>   C                    : -2.030269            -0.860094            4.701773
| 60>   O                    : -1.560259            -1.727254            3.739333
| 61>   H                    : -2.090679            -1.511563            2.970343
| 62>   H                    : -3.112571            -0.850576            4.889874
| 63>   H                    : -1.502015            -1.055243            5.669747
| 64>   H                    : -1.782010            0.256352             4.478952
| 65>   C                      -5.099899            -0.314163            2.273971
| 66>   O                      -4.169031            -1.341223            2.297468
| 67>   H                      -3.967029            -1.630792            1.383608
| 68>   H                      -4.650917            0.664407             1.983989
| 69>   H                      -5.904849            -0.446509            1.523370
| 70>   H                      -5.640213            -0.184676            3.176502
| 71> *
| 72>
| 73>                          ****END OF INPUT****
 Total Charge           Charge          ....    0
 Multiplicity           Mult            ....    1
 Number of Electrons    NEL             ....   36
Dispersion correction           -0.001998110
FINAL SINGLE POINT ENERGY      -231.471401055185
Dispersion correction           -0.000243085
FINAL SINGLE POINT ENERGY      -115.732203672021

CARTESIAN COORDINATES (ANGSTROEM)
---------------------------------
  C     -2.030269   -0.860094    4.701773
  O     -1.560259   -1.727254    3.739333
  H     -2.090679   -1.511563    2.970343
  H     -3.112571   -0.850576    4.889874
  H     -1.502015   -1.055243    5.669747
  H     -1.782010    0.256352    4.478952
  C     -5.099899   -0.314163    2.273971
  O     -4.169031   -1.341223    2.297468
  H     -3.967029   -1.630792    1.383608
  H     -4.650917    0.664407    1.983989
  H     -5.904849   -0.446509    1.523370
  H     -5.640213   -0.184676    3.176502

 Multiplicity           Mult            ....    1
 Number of Electrons    NEL             ....   18
 Basis Dimension        Dim             ....  172

ORBITAL ENERGIES
----------------

  NO   OCC          E(Eh)            E(eV)
   0   2.0000     -19.235658      -523.4289
   1   2.0000     -10.311054      -280.5780
   2   2.0000      -1.142176       -31.0802
   3   2.0000      -0.796501       -21.6739
   4   2.0000      -0.618054       -16.8181
   5   2.0000      -0.543688       -14.7945
   6   2.0000      -0.530215       -14.4279
   7   2.0000      -0.430668       -11.7191
   8   2.0000      -0.371959       -10.1215
   9   0.0000       0.097363         2.6494
  10   0.0000       0.126238         3.4351
  11   0.0000       0.148072         4.0293
  12   0.0000       0.189245         5.1496
  13   0.0000       0.196499         5.3470

MULLIKEN ATOMIC CHARGES
-----------------------
   0 C :    0.007517
   1 O :    0.002025
   2 H :   -0.016921
   3 H :   -0.002873
   4 H :   -0.000080
   5 H :   -0.001309
   6 C :   -0.167339
   7 O :   -0.460614
   8 H :    0.322559
   9 H :    0.093745
  10 H :    0.097886
  11 H :    0.125404
Sum of atomic charges:    0.0000000

LOEWDIN ATOMIC CHARGES
----------------------
   0 C :   -0.008464
   1 O :   -0.003697
   2 H :   -0.024794
   3 H :   -0.002558
   4 H :   -0.000089
   5 H :   -0.000255
   6 C :   -0.411527
   7 O :   -0.030083
   8 H :    0.186939
   9 H :    0.096367
  10 H :    0.097712
  11 H :    0.100450

  Mayer bond orders larger than 0.1
B(  6-C ,  7-O ) :   1.0063 B(  6-C ,  9-H ) :   0.9775 B(  6-C , 10-H ) :   0.9747
B(  6-C , 11-H ) :   0.9725 B(  7-O ,  8-H ) :   0.8878

Dispersion correction           -0.000248003
FINAL SINGLE POINT ENERGY      -115.733513896730

DIPOLE MOMENT
-------------
                                X             Y             Z
Electronic contribution:      1.28206      -1.44915       0.29671
Nuclear contribution   :     -1.54342       1.63744      -0.88680
                        -----------------------------------------
Total Dipole Moment    :     -0.26137       0.18829      -0.59009
                        -----------------------------------------
Magnitude (a.u.)       :      0.67228
Magnitude (Debye)      :      1.70881

Rotational constants in cm-1:     4.421525     0.842046     0.814007
Rotational constants in MHz : 132553.975818 25243.899617 24403.308023

                             ****ORCA TERMINATED NORMALLY****
TOTAL RUN TIME: 0 days 0 hours 1 minutes 6 seconds 221 msec
