                         Program Version 4.1.2  - RELEASE  -
|  1> #Run DFT-D3 single point of the dimer
|  2> ! wB97X-D3 def2-TZVP TIGHTSCF CHELPG PMODEL PAL8
|  3>
|  4> %base "7-66_DFT_AB"
|  5>
|  6> %scf
|  7> MaxIter 1000
|  8> end
|  9>
| 10> * xyz 0 1
| 11>   C                      -1.585404            3.392058             7.212129
| 12>   O                      -2.120105            3.744945             8.520689
| 13>   H                      -1.462705            3.477092             9.167592
| 14>   H                      -2.311762            3.531126             6.455074
| 15>   H                      -0.759444            4.075805             6.822156
| 16>   H                      -1.228848            2.336794             7.215379
| 17>   C                      -3.148768            -0.209111            5.185935
| 18>   O                      -3.001862            0.879201             6.043669
| 19>   H                      -3.014803            0.564210             6.908787
| 20>   H                      -2.270155            -0.858991            5.207381
| 21>   H                      -4.150670            -0.717197            5.397588
| 22>   H                      -3.223571            0.043395             4.173773
| 23> *
| 24>
| 25> #Run DFT-D3 single point of the molecule with dimer basis set
| 26> $new_job
| 27> %base "7-66_DFT_A"
| 28> ! wB97X-D3 def2-TZVP TIGHTSCF CHELPG PMODEL
| 29>
| 30> %scf
| 31> MaxIter 1000
| 32> end
| 33>
| 34> * xyz 0 1
| 35>   C                      -1.585404            3.392058             7.212129
| 36>   O                      -2.120105            3.744945             8.520689
| 37>   H                      -1.462705            3.477092             9.167592
| 38>   H                      -2.311762            3.531126             6.455074
| 39>   H                      -0.759444            4.075805             6.822156
| 40>   H                      -1.228848            2.336794             7.215379
| 41>   C                    : -3.148768            -0.209111            5.185935
| 42>   O                    : -3.001862            0.879201             6.043669
| 43>   H                    : -3.014803            0.564210             6.908787
| 44>   H                    : -2.270155            -0.858991            5.207381
| 45>   H                    : -4.150670            -0.717197            5.397588
| 46>   H                    : -3.223571            0.043395             4.173773
| 47> *
| 48>
| 49> #Run DFT-D3 single point of the particle with dimer basis set
| 50> $new_job
| 51> %base "7-66_DFT_B"
| 52> ! wB97X-D3 def2-TZVP TIGHTSCF CHELPG PMODEL
| 53>
| 54> %scf
| 55> MaxIter 1000
| 56> end
| 57>
| 58> * xyz 0 1
| 59>   C                    : -1.585404            3.392058             7.212129
| 60>   O                    : -2.120105            3.744945             8.520689
| 61>   H                    : -1.462705            3.477092             9.167592
| 62>   H                    : -2.311762            3.531126             6.455074
| 63>   H                    : -0.759444            4.075805             6.822156
| 64>   H                    : -1.228848            2.336794             7.215379
| 65>   C                      -3.148768            -0.209111            5.185935
| 66>   O                      -3.001862            0.879201             6.043669
| 67>   H                      -3.014803            0.564210             6.908787
| 68>   H                      -2.270155            -0.858991            5.207381
| 69>   H                      -4.150670            -0.717197            5.397588
| 70>   H                      -3.223571            0.043395             4.173773
| 71> *
| 72>
| 73>                          ****END OF INPUT****
 Total Charge           Charge          ....    0
 Multiplicity           Mult            ....    1
 Number of Electrons    NEL             ....   36
Dispersion correction           -0.001638012
FINAL SINGLE POINT ENERGY      -231.462223471737
Dispersion correction           -0.000275674
FINAL SINGLE POINT ENERGY      -115.731867851890

CARTESIAN COORDINATES (ANGSTROEM)
---------------------------------
  C     -1.585404    3.392058    7.212129
  O     -2.120105    3.744945    8.520689
  H     -1.462705    3.477092    9.167592
  H     -2.311762    3.531126    6.455074
  H     -0.759444    4.075805    6.822156
  H     -1.228848    2.336794    7.215379
  C     -3.148768   -0.209111    5.185935
  O     -3.001862    0.879201    6.043669
  H     -3.014803    0.564210    6.908787
  H     -2.270155   -0.858991    5.207381
  H     -4.150670   -0.717197    5.397588
  H     -3.223571    0.043395    4.173773

 Multiplicity           Mult            ....    1
 Number of Electrons    NEL             ....   18
 Basis Dimension        Dim             ....  172

ORBITAL ENERGIES
----------------

  NO   OCC          E(Eh)            E(eV)
   0   2.0000     -19.227677      -523.2117
   1   2.0000     -10.312057      -280.6053
   2   2.0000      -1.151381       -31.3307
   3   2.0000      -0.802065       -21.8253
   4   2.0000      -0.614018       -16.7083
   5   2.0000      -0.550553       -14.9813
   6   2.0000      -0.538544       -14.6545
   7   2.0000      -0.425934       -11.5903
   8   2.0000      -0.376221       -10.2375
   9   0.0000       0.094825         2.5803
  10   0.0000       0.127387         3.4664
  11   0.0000       0.159885         4.3507
  12   0.0000       0.174189         4.7399
  13   0.0000       0.196374         5.3436

MULLIKEN ATOMIC CHARGES
-----------------------
   0 C :    0.011582
   1 O :   -0.000261
   2 H :   -0.000046
   3 H :   -0.005991
   4 H :   -0.000760
   5 H :   -0.015490
   6 C :   -0.171381
   7 O :   -0.450725
   8 H :    0.312921
   9 H :    0.101966
  10 H :    0.094633
  11 H :    0.123553
Sum of atomic charges:   -0.0000000

LOEWDIN ATOMIC CHARGES
----------------------
   0 C :   -0.014984
   1 O :   -0.000047
   2 H :   -0.000013
   3 H :   -0.005310
   4 H :   -0.000115
   5 H :   -0.009756
   6 C :   -0.396821
   7 O :   -0.020414
   8 H :    0.148740
   9 H :    0.095900
  10 H :    0.105988
  11 H :    0.096832

  Mayer bond orders larger than 0.1
B(  6-C ,  7-O ) :   1.0016 B(  6-C ,  9-H ) :   0.9756 B(  6-C , 10-H ) :   0.9808
B(  6-C , 11-H ) :   0.9737 B(  7-O ,  8-H ) :   0.9039

Dispersion correction           -0.000230430
FINAL SINGLE POINT ENERGY      -115.729966648605

DIPOLE MOMENT
-------------
                                X             Y             Z
Electronic contribution:      0.25979       1.52819       1.00893
Nuclear contribution   :     -0.32674      -2.13950      -0.82727
                        -----------------------------------------
Total Dipole Moment    :     -0.06695      -0.61132       0.18166
                        -----------------------------------------
Magnitude (a.u.)       :      0.64124
Magnitude (Debye)      :      1.62991

Rotational constants in cm-1:     4.405428     0.840555     0.829568
Rotational constants in MHz : 132071.418741 25199.192344 24869.828447

                             ****ORCA TERMINATED NORMALLY****
TOTAL RUN TIME: 0 days 0 hours 1 minutes 10 seconds 309 msec
