                         Program Version 4.1.2  - RELEASE  -
|  1> #Run DFT-D3 single point of the dimer
|  2> ! wB97X-D3 def2-TZVP TIGHTSCF CHELPG PMODEL PAL8
|  3>
|  4> %base "20-49_DFT_AB"
|  5>
|  6> %scf
|  7> MaxIter 1000
|  8> end
|  9>
| 10> * xyz 0 1
| 11>   C                      10.369788            -1.022027            1.137112
| 12>   O                      9.385676             -0.662923            2.037067
| 13>   H                      8.915815             -1.406507            2.396030
| 14>   H                      9.951602             -1.529467            0.290434
| 15>   H                      10.979370            -0.132618            0.842871
| 16>   H                      10.919377            -1.856796            1.581003
| 17>   C                      5.827610             -0.575672            1.401418
| 18>   O                      5.249288             0.667074             1.196512
| 19>   H                      5.412422             1.050128             0.323895
| 20>   H                      6.908473             -0.683556            1.197600
| 21>   H                      5.887313             -0.921262            2.416581
| 22>   H                      5.287027             -1.259163            0.748697
| 23> *
| 24>
| 25> #Run DFT-D3 single point of the molecule with dimer basis set
| 26> $new_job
| 27> %base "20-49_DFT_A"
| 28> ! wB97X-D3 def2-TZVP TIGHTSCF CHELPG PMODEL
| 29>
| 30> %scf
| 31> MaxIter 1000
| 32> end
| 33>
| 34> * xyz 0 1
| 35>   C                      10.369788            -1.022027            1.137112
| 36>   O                      9.385676             -0.662923            2.037067
| 37>   H                      8.915815             -1.406507            2.396030
| 38>   H                      9.951602             -1.529467            0.290434
| 39>   H                      10.979370            -0.132618            0.842871
| 40>   H                      10.919377            -1.856796            1.581003
| 41>   C                    : 5.827610             -0.575672            1.401418
| 42>   O                    : 5.249288             0.667074             1.196512
| 43>   H                    : 5.412422             1.050128             0.323895
| 44>   H                    : 6.908473             -0.683556            1.197600
| 45>   H                    : 5.887313             -0.921262            2.416581
| 46>   H                    : 5.287027             -1.259163            0.748697
| 47> *
| 48>
| 49> #Run DFT-D3 single point of the particle with dimer basis set
| 50> $new_job
| 51> %base "20-49_DFT_B"
| 52> ! wB97X-D3 def2-TZVP TIGHTSCF CHELPG PMODEL
| 53>
| 54> %scf
| 55> MaxIter 1000
| 56> end
| 57>
| 58> * xyz 0 1
| 59>   C                    : 10.369788            -1.022027            1.137112
| 60>   O                    : 9.385676             -0.662923            2.037067
| 61>   H                    : 8.915815             -1.406507            2.396030
| 62>   H                    : 9.951602             -1.529467            0.290434
| 63>   H                    : 10.979370            -0.132618            0.842871
| 64>   H                    : 10.919377            -1.856796            1.581003
| 65>   C                      5.827610             -0.575672            1.401418
| 66>   O                      5.249288             0.667074             1.196512
| 67>   H                      5.412422             1.050128             0.323895
| 68>   H                      6.908473             -0.683556            1.197600
| 69>   H                      5.887313             -0.921262            2.416581
| 70>   H                      5.287027             -1.259163            0.748697
| 71> *
| 72>
| 73>                          ****END OF INPUT****
 Total Charge           Charge          ....    0
 Multiplicity           Mult            ....    1
 Number of Electrons    NEL             ....   36
Dispersion correction           -0.001432562
FINAL SINGLE POINT ENERGY      -231.458101842292
Dispersion correction           -0.000216196
FINAL SINGLE POINT ENERGY      -115.730346928323

CARTESIAN COORDINATES (ANGSTROEM)
---------------------------------
  C     10.369788   -1.022027    1.137112
  O      9.385676   -0.662923    2.037067
  H      8.915815   -1.406507    2.396030
  H      9.951602   -1.529467    0.290434
  H     10.979370   -0.132618    0.842871
  H     10.919377   -1.856796    1.581003
  C      5.827610   -0.575672    1.401418
  O      5.249288    0.667074    1.196512
  H      5.412422    1.050128    0.323895
  H      6.908473   -0.683556    1.197600
  H      5.887313   -0.921262    2.416581
  H      5.287027   -1.259163    0.748697

 Multiplicity           Mult            ....    1
 Number of Electrons    NEL             ....   18
 Basis Dimension        Dim             ....  172

ORBITAL ENERGIES
----------------

  NO   OCC          E(Eh)            E(eV)
   0   2.0000     -19.229316      -523.2563
   1   2.0000     -10.309629      -280.5393
   2   2.0000      -1.139869       -31.0174
   3   2.0000      -0.800231       -21.7754
   4   2.0000      -0.618039       -16.8177
   5   2.0000      -0.557477       -15.1697
   6   2.0000      -0.521946       -14.2029
   7   2.0000      -0.418328       -11.3833
   8   2.0000      -0.371030       -10.0962
   9   0.0000       0.082854         2.2546
  10   0.0000       0.118257         3.2179
  11   0.0000       0.145979         3.9723
  12   0.0000       0.183785         5.0011
  13   0.0000       0.188493         5.1291

MULLIKEN ATOMIC CHARGES
-----------------------
   0 C :    0.001426
   1 O :    0.000721
   2 H :   -0.002004
   3 H :   -0.000606
   4 H :   -0.000058
   5 H :   -0.000082
   6 C :   -0.139327
   7 O :   -0.486245
   8 H :    0.323692
   9 H :    0.086190
  10 H :    0.119663
  11 H :    0.096631
Sum of atomic charges:    0.0000000

LOEWDIN ATOMIC CHARGES
----------------------
   0 C :   -0.001573
   1 O :   -0.004340
   2 H :   -0.003565
   3 H :   -0.000422
   4 H :   -0.000028
   5 H :   -0.000018
   6 C :   -0.407525
   7 O :   -0.059884
   8 H :    0.175687
   9 H :    0.099340
  10 H :    0.107133
  11 H :    0.095196

  Mayer bond orders larger than 0.1
B(  6-C ,  7-O ) :   0.9954 B(  6-C ,  9-H ) :   0.9699 B(  6-C , 10-H ) :   0.9679
B(  6-C , 11-H ) :   0.9898 B(  7-O ,  8-H ) :   0.8874

Dispersion correction           -0.000251758
FINAL SINGLE POINT ENERGY      -115.727460885174

DIPOLE MOMENT
-------------
                                X             Y             Z
Electronic contribution:     -0.87880       1.68679      -0.09864
Nuclear contribution   :      1.23083      -1.91875      -0.37075
                        -----------------------------------------
Total Dipole Moment    :      0.35203      -0.23196      -0.46939
                        -----------------------------------------
Magnitude (a.u.)       :      0.63092
Magnitude (Debye)      :      1.60367

Rotational constants in cm-1:     4.572344     0.836360     0.815633
Rotational constants in MHz : 137075.438218 25073.435028 24452.066140

                             ****ORCA TERMINATED NORMALLY****
TOTAL RUN TIME: 0 days 0 hours 1 minutes 8 seconds 202 msec
