                         Program Version 4.1.2  - RELEASE  -
|  1> #Run DFT-D3 single point of the dimer
|  2> ! wB97X-D3 def2-TZVP TIGHTSCF CHELPG PMODEL PAL8
|  3>
|  4> %base "12-202_DFT_AB"
|  5>
|  6> %scf
|  7> MaxIter 1000
|  8> end
|  9>
| 10> * xyz 0 1
| 11>   C                      -5.535434            -7.265024            10.706028
| 12>   O                      -4.300322            -6.619161            10.970741
| 13>   H                      -3.704640            -7.276469            10.740639
| 14>   H                      -5.820015            -7.945253            11.487688
| 15>   H                      -6.413249            -6.635410            10.581916
| 16>   H                      -5.440893            -7.870168            9.772601
| 17>   C                      -1.295361            -8.553143            9.912112
| 18>   O                      -2.235925            -9.285352            10.685450
| 19>   H                      -2.934043            -9.682984            10.132829
| 20>   H                      -1.059672            -9.062657            8.946253
| 21>   H                      -1.589115            -7.485822            9.787120
| 22>   H                      -0.379330            -8.504913            10.464010
| 23> *
| 24>
| 25> #Run DFT-D3 single point of the molecule with dimer basis set
| 26> $new_job
| 27> %base "12-202_DFT_A"
| 28> ! wB97X-D3 def2-TZVP TIGHTSCF CHELPG PMODEL
| 29>
| 30> %scf
| 31> MaxIter 1000
| 32> end
| 33>
| 34> * xyz 0 1
| 35>   C                      -5.535434            -7.265024            10.706028
| 36>   O                      -4.300322            -6.619161            10.970741
| 37>   H                      -3.704640            -7.276469            10.740639
| 38>   H                      -5.820015            -7.945253            11.487688
| 39>   H                      -6.413249            -6.635410            10.581916
| 40>   H                      -5.440893            -7.870168            9.772601
| 41>   C                    : -1.295361            -8.553143            9.912112
| 42>   O                    : -2.235925            -9.285352            10.685450
| 43>   H                    : -2.934043            -9.682984            10.132829
| 44>   H                    : -1.059672            -9.062657            8.946253
| 45>   H                    : -1.589115            -7.485822            9.787120
| 46>   H                    : -0.379330            -8.504913            10.464010
| 47> *
| 48>
| 49> #Run DFT-D3 single point of the particle with dimer basis set
| 50> $new_job
| 51> %base "12-202_DFT_B"
| 52> ! wB97X-D3 def2-TZVP TIGHTSCF CHELPG PMODEL
| 53>
| 54> %scf
| 55> MaxIter 1000
| 56> end
| 57>
| 58> * xyz 0 1
| 59>   C                    : -5.535434            -7.265024            10.706028
| 60>   O                    : -4.300322            -6.619161            10.970741
| 61>   H                    : -3.704640            -7.276469            10.740639
| 62>   H                    : -5.820015            -7.945253            11.487688
| 63>   H                    : -6.413249            -6.635410            10.581916
| 64>   H                    : -5.440893            -7.870168            9.772601
| 65>   C                      -1.295361            -8.553143            9.912112
| 66>   O                      -2.235925            -9.285352            10.685450
| 67>   H                      -2.934043            -9.682984            10.132829
| 68>   H                      -1.059672            -9.062657            8.946253
| 69>   H                      -1.589115            -7.485822            9.787120
| 70>   H                      -0.379330            -8.504913            10.464010
| 71> *
| 72>
| 73>                          ****END OF INPUT****
 Total Charge           Charge          ....    0
 Multiplicity           Mult            ....    1
 Number of Electrons    NEL             ....   36
Dispersion correction           -0.001876986
FINAL SINGLE POINT ENERGY      -231.468750262713
Dispersion correction           -0.000227322
FINAL SINGLE POINT ENERGY      -115.730310981259

CARTESIAN COORDINATES (ANGSTROEM)
---------------------------------
  C     -5.535434   -7.265024   10.706028
  O     -4.300322   -6.619161   10.970741
  H     -3.704640   -7.276469   10.740639
  H     -5.820015   -7.945253   11.487688
  H     -6.413249   -6.635410   10.581916
  H     -5.440893   -7.870168    9.772601
  C     -1.295361   -8.553143    9.912112
  O     -2.235925   -9.285352   10.685450
  H     -2.934043   -9.682984   10.132829
  H     -1.059672   -9.062657    8.946253
  H     -1.589115   -7.485822    9.787120
  H     -0.379330   -8.504913   10.464010

 Multiplicity           Mult            ....    1
 Number of Electrons    NEL             ....   18
 Basis Dimension        Dim             ....  172

ORBITAL ENERGIES
----------------

  NO   OCC          E(Eh)            E(eV)
   0   2.0000     -19.231447      -523.3143
   1   2.0000     -10.315482      -280.6985
   2   2.0000      -1.129178       -30.7265
   3   2.0000      -0.795850       -21.6562
   4   2.0000      -0.605744       -16.4831
   5   2.0000      -0.540348       -14.7036
   6   2.0000      -0.528135       -14.3713
   7   2.0000      -0.428000       -11.6465
   8   2.0000      -0.373887       -10.1740
   9   0.0000       0.085166         2.3175
  10   0.0000       0.128099         3.4857
  11   0.0000       0.147021         4.0006
  12   0.0000       0.177204         4.8220
  13   0.0000       0.196614         5.3501

MULLIKEN ATOMIC CHARGES
-----------------------
   0 C :   -0.002208
   1 O :    0.001500
   2 H :   -0.004553
   3 H :   -0.000014
   4 H :   -0.000322
   5 H :   -0.001395
   6 C :   -0.158466
   7 O :   -0.481651
   8 H :    0.320853
   9 H :    0.103685
  10 H :    0.100131
  11 H :    0.122440
Sum of atomic charges:   -0.0000000

LOEWDIN ATOMIC CHARGES
----------------------
   0 C :   -0.002639
   1 O :   -0.001363
   2 H :   -0.012417
   3 H :   -0.000199
   4 H :   -0.000064
   5 H :   -0.000774
   6 C :   -0.381219
   7 O :   -0.080281
   8 H :    0.176510
   9 H :    0.100777
  10 H :    0.099478
  11 H :    0.102190

  Mayer bond orders larger than 0.1
B(  6-C ,  7-O ) :   1.0019 B(  6-C ,  9-H ) :   0.9799 B(  6-C , 10-H ) :   0.9745
B(  6-C , 11-H ) :   0.9751 B(  7-O ,  8-H ) :   0.8925

Dispersion correction           -0.000265160
FINAL SINGLE POINT ENERGY      -115.735055048039

DIPOLE MOMENT
-------------
                                X             Y             Z
Electronic contribution:     -1.15086      -0.91723       1.04997
Nuclear contribution   :      1.11552       0.93723      -1.70418
                        -----------------------------------------
Total Dipole Moment    :     -0.03534       0.02000      -0.65421
                        -----------------------------------------
Magnitude (a.u.)       :      0.65547
Magnitude (Debye)      :      1.66606

Rotational constants in cm-1:     4.281846     0.815436     0.790331
Rotational constants in MHz : 128366.519154 24446.166352 23693.517978

                             ****ORCA TERMINATED NORMALLY****
TOTAL RUN TIME: 0 days 0 hours 1 minutes 14 seconds 688 msec
