                         Program Version 4.1.2  - RELEASE  -
|  1> #Run DFT-D3 single point of the dimer
|  2> ! wB97X-D3 def2-TZVP TIGHTSCF CHELPG PMODEL PAL8
|  3>
|  4> %base "2-26_DFT_AB"
|  5>
|  6> %scf
|  7> MaxIter 1000
|  8> end
|  9>
| 10> * xyz 0 1
| 11>   C                      3.461109             3.222378             4.105244
| 12>   O                      3.157580             2.071432             3.453058
| 13>   H                      2.370845             1.638740             3.819682
| 14>   H                      3.982423             3.051816             5.032330
| 15>   H                      4.203252             3.873688             3.594400
| 16>   H                      2.649209             3.897304             4.300673
| 17>   C                      -2.401199            3.960669             4.937113
| 18>   O                      -1.213836            4.477502             4.306087
| 19>   H                      -0.537656            4.605466             5.001750
| 20>   H                      -2.507452            2.873042             4.620303
| 21>   H                      -2.425411            4.028014             5.979842
| 22>   H                      -3.293349            4.527857             4.574455
| 23> *
| 24>
| 25> #Run DFT-D3 single point of the molecule with dimer basis set
| 26> $new_job
| 27> %base "2-26_DFT_A"
| 28> ! wB97X-D3 def2-TZVP TIGHTSCF CHELPG PMODEL
| 29>
| 30> %scf
| 31> MaxIter 1000
| 32> end
| 33>
| 34> * xyz 0 1
| 35>   C                      3.461109             3.222378             4.105244
| 36>   O                      3.157580             2.071432             3.453058
| 37>   H                      2.370845             1.638740             3.819682
| 38>   H                      3.982423             3.051816             5.032330
| 39>   H                      4.203252             3.873688             3.594400
| 40>   H                      2.649209             3.897304             4.300673
| 41>   C                    : -2.401199            3.960669             4.937113
| 42>   O                    : -1.213836            4.477502             4.306087
| 43>   H                    : -0.537656            4.605466             5.001750
| 44>   H                    : -2.507452            2.873042             4.620303
| 45>   H                    : -2.425411            4.028014             5.979842
| 46>   H                    : -3.293349            4.527857             4.574455
| 47> *
| 48>
| 49> #Run DFT-D3 single point of the particle with dimer basis set
| 50> $new_job
| 51> %base "2-26_DFT_B"
| 52> ! wB97X-D3 def2-TZVP TIGHTSCF CHELPG PMODEL
| 53>
| 54> %scf
| 55> MaxIter 1000
| 56> end
| 57>
| 58> * xyz 0 1
| 59>   C                    : 3.461109             3.222378             4.105244
| 60>   O                    : 3.157580             2.071432             3.453058
| 61>   H                    : 2.370845             1.638740             3.819682
| 62>   H                    : 3.982423             3.051816             5.032330
| 63>   H                    : 4.203252             3.873688             3.594400
| 64>   H                    : 2.649209             3.897304             4.300673
| 65>   C                      -2.401199            3.960669             4.937113
| 66>   O                      -1.213836            4.477502             4.306087
| 67>   H                      -0.537656            4.605466             5.001750
| 68>   H                      -2.507452            2.873042             4.620303
| 69>   H                      -2.425411            4.028014             5.979842
| 70>   H                      -3.293349            4.527857             4.574455
| 71> *
| 72>
| 73>                          ****END OF INPUT****
 Total Charge           Charge          ....    0
 Multiplicity           Mult            ....    1
 Number of Electrons    NEL             ....   36
Dispersion correction           -0.000810428
FINAL SINGLE POINT ENERGY      -231.462730792160
Dispersion correction           -0.000243364
FINAL SINGLE POINT ENERGY      -115.730882195463

CARTESIAN COORDINATES (ANGSTROEM)
---------------------------------
  C      3.461109    3.222378    4.105244
  O      3.157580    2.071432    3.453058
  H      2.370845    1.638740    3.819682
  H      3.982423    3.051816    5.032330
  H      4.203252    3.873688    3.594400
  H      2.649209    3.897304    4.300673
  C     -2.401199    3.960669    4.937113
  O     -1.213836    4.477502    4.306087
  H     -0.537656    4.605466    5.001750
  H     -2.507452    2.873042    4.620303
  H     -2.425411    4.028014    5.979842
  H     -3.293349    4.527857    4.574455

 Multiplicity           Mult            ....    1
 Number of Electrons    NEL             ....   18
 Basis Dimension        Dim             ....  172

ORBITAL ENERGIES
----------------

  NO   OCC          E(Eh)            E(eV)
   0   2.0000     -19.232014      -523.3297
   1   2.0000     -10.316474      -280.7255
   2   2.0000      -1.124923       -30.6107
   3   2.0000      -0.793915       -21.6035
   4   2.0000      -0.609886       -16.5959
   5   2.0000      -0.532725       -14.4962
   6   2.0000      -0.518079       -14.0976
   7   2.0000      -0.440383       -11.9834
   8   2.0000      -0.371613       -10.1121
   9   0.0000       0.083528         2.2729
  10   0.0000       0.117050         3.1851
  11   0.0000       0.148906         4.0519
  12   0.0000       0.165485         4.5031
  13   0.0000       0.192861         5.2480

MULLIKEN ATOMIC CHARGES
-----------------------
   0 C :    0.000753
   1 O :    0.000033
   2 H :   -0.000186
   3 H :   -0.000038
   4 H :   -0.000054
   5 H :   -0.001557
   6 C :   -0.178497
   7 O :   -0.476751
   8 H :    0.316092
   9 H :    0.107010
  10 H :    0.119886
  11 H :    0.113310
Sum of atomic charges:   -0.0000000

LOEWDIN ATOMIC CHARGES
----------------------
   0 C :   -0.000176
   1 O :   -0.000008
   2 H :   -0.000087
   3 H :   -0.000002
   4 H :   -0.000003
   5 H :   -0.000512
   6 C :   -0.370721
   7 O :   -0.105688
   8 H :    0.177067
   9 H :    0.107801
  10 H :    0.084060
  11 H :    0.108268

  Mayer bond orders larger than 0.1
B(  6-C ,  7-O ) :   1.0077 B(  6-C ,  9-H ) :   0.9769 B(  6-C , 10-H ) :   0.9743
B(  6-C , 11-H ) :   0.9739 B(  7-O ,  8-H ) :   0.8977

Dispersion correction           -0.000264146
FINAL SINGLE POINT ENERGY      -115.731739967164

DIPOLE MOMENT
-------------
                                X             Y             Z
Electronic contribution:      1.47437       0.70102      -0.79564
Nuclear contribution   :     -1.52679      -0.80747       1.52846
                        -----------------------------------------
Total Dipole Moment    :     -0.05242      -0.10645       0.73282
                        -----------------------------------------
Magnitude (a.u.)       :      0.74236
Magnitude (Debye)      :      1.88694

Rotational constants in cm-1:     4.218432     0.800405     0.778947
Rotational constants in MHz : 126465.404778 23995.531397 23352.252041

                             ****ORCA TERMINATED NORMALLY****
TOTAL RUN TIME: 0 days 0 hours 5 minutes 31 seconds 990 msec
