                         Program Version 4.1.2  - RELEASE  -
|  1> #Run DFT-D3 single point of the dimer
|  2> ! wB97X-D3 def2-TZVP TIGHTSCF CHELPG PMODEL PAL8
|  3>
|  4> %base "16-164_DFT_AB"
|  5>
|  6> %scf
|  7> MaxIter 1000
|  8> end
|  9>
| 10> * xyz 0 1
| 11>   C                      -0.048541            5.994055             0.000767
| 12>   O                      -1.413549            5.528168             -0.061910
| 13>   H                      -1.802674            6.109435             -0.721809
| 14>   H                      0.575472             5.526233             0.758967
| 15>   H                      0.545849             5.744248             -0.922134
| 16>   H                      -0.065551            7.054633             0.174694
| 17>   C                      -4.355825            3.684646             -0.788535
| 18>   O                      -3.446795            3.823115             0.278876
| 19>   H                      -2.672503            4.139131             -0.019758
| 20>   H                      -4.056790            2.832902             -1.405011
| 21>   H                      -5.318373            3.372870             -0.422924
| 22>   H                      -4.425202            4.594607             -1.357747
| 23> *
| 24>
| 25> #Run DFT-D3 single point of the molecule with dimer basis set
| 26> $new_job
| 27> %base "16-164_DFT_A"
| 28> ! wB97X-D3 def2-TZVP TIGHTSCF CHELPG PMODEL
| 29>
| 30> %scf
| 31> MaxIter 1000
| 32> end
| 33>
| 34> * xyz 0 1
| 35>   C                      -0.048541            5.994055             0.000767
| 36>   O                      -1.413549            5.528168             -0.061910
| 37>   H                      -1.802674            6.109435             -0.721809
| 38>   H                      0.575472             5.526233             0.758967
| 39>   H                      0.545849             5.744248             -0.922134
| 40>   H                      -0.065551            7.054633             0.174694
| 41>   C                    : -4.355825            3.684646             -0.788535
| 42>   O                    : -3.446795            3.823115             0.278876
| 43>   H                    : -2.672503            4.139131             -0.019758
| 44>   H                    : -4.056790            2.832902             -1.405011
| 45>   H                    : -5.318373            3.372870             -0.422924
| 46>   H                    : -4.425202            4.594607             -1.357747
| 47> *
| 48>
| 49> #Run DFT-D3 single point of the particle with dimer basis set
| 50> $new_job
| 51> %base "16-164_DFT_B"
| 52> ! wB97X-D3 def2-TZVP TIGHTSCF CHELPG PMODEL
| 53>
| 54> %scf
| 55> MaxIter 1000
| 56> end
| 57>
| 58> * xyz 0 1
| 59>   C                    : -0.048541            5.994055             0.000767
| 60>   O                    : -1.413549            5.528168             -0.061910
| 61>   H                    : -1.802674            6.109435             -0.721809
| 62>   H                    : 0.575472             5.526233             0.758967
| 63>   H                    : 0.545849             5.744248             -0.922134
| 64>   H                    : -0.065551            7.054633             0.174694
| 65>   C                      -4.355825            3.684646             -0.788535
| 66>   O                      -3.446795            3.823115             0.278876
| 67>   H                      -2.672503            4.139131             -0.019758
| 68>   H                      -4.056790            2.832902             -1.405011
| 69>   H                      -5.318373            3.372870             -0.422924
| 70>   H                      -4.425202            4.594607             -1.357747
| 71> *
| 72>
| 73>                          ****END OF INPUT****
 Total Charge           Charge          ....    0
 Multiplicity           Mult            ....    1
 Number of Electrons    NEL             ....   36
Dispersion correction           -0.001517230
FINAL SINGLE POINT ENERGY      -231.465818752013
Dispersion correction           -0.000245918
FINAL SINGLE POINT ENERGY      -115.732187916977

CARTESIAN COORDINATES (ANGSTROEM)
---------------------------------
  C     -0.048541    5.994055    0.000767
  O     -1.413549    5.528168   -0.061910
  H     -1.802674    6.109435   -0.721809
  H      0.575472    5.526233    0.758967
  H      0.545849    5.744248   -0.922134
  H     -0.065551    7.054633    0.174694
  C     -4.355825    3.684646   -0.788535
  O     -3.446795    3.823115    0.278876
  H     -2.672503    4.139131   -0.019758
  H     -4.056790    2.832902   -1.405011
  H     -5.318373    3.372870   -0.422924
  H     -4.425202    4.594607   -1.357747

 Multiplicity           Mult            ....    1
 Number of Electrons    NEL             ....   18
 Basis Dimension        Dim             ....  172

ORBITAL ENERGIES
----------------

  NO   OCC          E(Eh)            E(eV)
   0   2.0000     -19.221201      -523.0355
   1   2.0000     -10.309536      -280.5367
   2   2.0000      -1.151181       -31.3252
   3   2.0000      -0.806576       -21.9480
   4   2.0000      -0.618325       -16.8255
   5   2.0000      -0.551456       -15.0059
   6   2.0000      -0.531649       -14.4669
   7   2.0000      -0.433040       -11.7836
   8   2.0000      -0.375120       -10.2075
   9   0.0000       0.075901         2.0654
  10   0.0000       0.129307         3.5186
  11   0.0000       0.158112         4.3024
  12   0.0000       0.169888         4.6229
  13   0.0000       0.197261         5.3677

MULLIKEN ATOMIC CHARGES
-----------------------
   0 C :   -0.001096
   1 O :   -0.007797
   2 H :   -0.001355
   3 H :    0.000072
   4 H :   -0.000012
   5 H :    0.000048
   6 C :   -0.160619
   7 O :   -0.450248
   8 H :    0.295292
   9 H :    0.102404
  10 H :    0.115954
  11 H :    0.107357
Sum of atomic charges:   -0.0000000

LOEWDIN ATOMIC CHARGES
----------------------
   0 C :   -0.001428
   1 O :   -0.025042
   2 H :   -0.002909
   3 H :   -0.000038
   4 H :   -0.000038
   5 H :   -0.000044
   6 C :   -0.371909
   7 O :   -0.018797
   8 H :    0.124127
   9 H :    0.096909
  10 H :    0.105604
  11 H :    0.093566

  Mayer bond orders larger than 0.1
B(  6-C ,  7-O ) :   0.9951 B(  6-C ,  9-H ) :   0.9855 B(  6-C , 10-H ) :   0.9744
B(  6-C , 11-H ) :   0.9739 B(  7-O ,  8-H ) :   0.9213

Dispersion correction           -0.000223615
FINAL SINGLE POINT ENERGY      -115.730450326968

DIPOLE MOMENT
-------------
                                X             Y             Z
Electronic contribution:      1.03504       0.23427       1.40879
Nuclear contribution   :     -0.91756      -0.09374      -2.03423
                        -----------------------------------------
Total Dipole Moment    :      0.11748       0.14053      -0.62544
                        -----------------------------------------
Magnitude (a.u.)       :      0.65171
Magnitude (Debye)      :      1.65652

Rotational constants in cm-1:     4.499474     0.840250     0.816743
Rotational constants in MHz : 134890.847775 25190.066893 24485.345183

                             ****ORCA TERMINATED NORMALLY****
TOTAL RUN TIME: 0 days 0 hours 1 minutes 4 seconds 242 msec
