                         Program Version 4.1.2  - RELEASE  -
|  1> #Run DFT-D3 single point of the dimer
|  2> ! wB97X-D3 def2-TZVP TIGHTSCF CHELPG PMODEL PAL8
|  3>
|  4> %base "17-134_DFT_AB"
|  5>
|  6> %scf
|  7> MaxIter 1000
|  8> end
|  9>
| 10> * xyz 0 1
| 11>   C                      7.325339             5.251497             0.133177
| 12>   O                      6.504811             4.108082             0.081789
| 13>   H                      5.631289             4.365463             -0.281375
| 14>   H                      8.367817             5.088402             0.117534
| 15>   H                      7.009722             5.937494             -0.695289
| 16>   H                      6.979847             5.774637             1.076056
| 17>   C                      10.006193            3.023497             2.387987
| 18>   O                      9.008992             3.597998             3.216723
| 19>   H                      8.144207             3.307288             2.901018
| 20>   H                      9.695812             2.898919             1.395559
| 21>   H                      10.964039            3.566239             2.285630
| 22>   H                      10.212016            1.968806             2.642863
| 23> *
| 24>
| 25> #Run DFT-D3 single point of the molecule with dimer basis set
| 26> $new_job
| 27> %base "17-134_DFT_A"
| 28> ! wB97X-D3 def2-TZVP TIGHTSCF CHELPG PMODEL
| 29>
| 30> %scf
| 31> MaxIter 1000
| 32> end
| 33>
| 34> * xyz 0 1
| 35>   C                      7.325339             5.251497             0.133177
| 36>   O                      6.504811             4.108082             0.081789
| 37>   H                      5.631289             4.365463             -0.281375
| 38>   H                      8.367817             5.088402             0.117534
| 39>   H                      7.009722             5.937494             -0.695289
| 40>   H                      6.979847             5.774637             1.076056
| 41>   C                    : 10.006193            3.023497             2.387987
| 42>   O                    : 9.008992             3.597998             3.216723
| 43>   H                    : 8.144207             3.307288             2.901018
| 44>   H                    : 9.695812             2.898919             1.395559
| 45>   H                    : 10.964039            3.566239             2.285630
| 46>   H                    : 10.212016            1.968806             2.642863
| 47> *
| 48>
| 49> #Run DFT-D3 single point of the particle with dimer basis set
| 50> $new_job
| 51> %base "17-134_DFT_B"
| 52> ! wB97X-D3 def2-TZVP TIGHTSCF CHELPG PMODEL
| 53>
| 54> %scf
| 55> MaxIter 1000
| 56> end
| 57>
| 58> * xyz 0 1
| 59>   C                    : 7.325339             5.251497             0.133177
| 60>   O                    : 6.504811             4.108082             0.081789
| 61>   H                    : 5.631289             4.365463             -0.281375
| 62>   H                    : 8.367817             5.088402             0.117534
| 63>   H                    : 7.009722             5.937494             -0.695289
| 64>   H                    : 6.979847             5.774637             1.076056
| 65>   C                      10.006193            3.023497             2.387987
| 66>   O                      9.008992             3.597998             3.216723
| 67>   H                      8.144207             3.307288             2.901018
| 68>   H                      9.695812             2.898919             1.395559
| 69>   H                      10.964039            3.566239             2.285630
| 70>   H                      10.212016            1.968806             2.642863
| 71> *
| 72>
| 73>                          ****END OF INPUT****
 Total Charge           Charge          ....    0
 Multiplicity           Mult            ....    1
 Number of Electrons    NEL             ....   36
Dispersion correction           -0.001657335
FINAL SINGLE POINT ENERGY      -231.461454332605
Dispersion correction           -0.000221473
FINAL SINGLE POINT ENERGY      -115.728349038941

CARTESIAN COORDINATES (ANGSTROEM)
---------------------------------
  C      7.325339    5.251497    0.133177
  O      6.504811    4.108082    0.081789
  H      5.631289    4.365463   -0.281375
  H      8.367817    5.088402    0.117534
  H      7.009722    5.937494   -0.695289
  H      6.979847    5.774637    1.076056
  C     10.006193    3.023497    2.387987
  O      9.008992    3.597998    3.216723
  H      8.144207    3.307288    2.901018
  H      9.695812    2.898919    1.395559
  H     10.964039    3.566239    2.285630
  H     10.212016    1.968806    2.642863

 Multiplicity           Mult            ....    1
 Number of Electrons    NEL             ....   18
 Basis Dimension        Dim             ....  172

ORBITAL ENERGIES
----------------

  NO   OCC          E(Eh)            E(eV)
   0   2.0000     -19.234360      -523.3935
   1   2.0000     -10.311260      -280.5836
   2   2.0000      -1.135234       -30.8913
   3   2.0000      -0.800965       -21.7954
   4   2.0000      -0.617929       -16.8147
   5   2.0000      -0.537208       -14.6182
   6   2.0000      -0.525761       -14.3067
   7   2.0000      -0.435611       -11.8536
   8   2.0000      -0.373776       -10.1710
   9   0.0000       0.077403         2.1062
  10   0.0000       0.126858         3.4520
  11   0.0000       0.144295         3.9265
  12   0.0000       0.166720         4.5367
  13   0.0000       0.188347         5.1252

MULLIKEN ATOMIC CHARGES
-----------------------
   0 C :   -0.006535
   1 O :    0.000395
   2 H :    0.000013
   3 H :    0.002031
   4 H :   -0.000219
   5 H :    0.000112
   6 C :   -0.175240
   7 O :   -0.473901
   8 H :    0.319957
   9 H :    0.111174
  10 H :    0.121680
  11 H :    0.100533
Sum of atomic charges:    0.0000000

LOEWDIN ATOMIC CHARGES
----------------------
   0 C :   -0.003768
   1 O :   -0.000240
   2 H :   -0.000012
   3 H :   -0.001004
   4 H :   -0.000084
   5 H :   -0.000751
   6 C :   -0.386542
   7 O :   -0.076987
   8 H :    0.174356
   9 H :    0.085804
  10 H :    0.111820
  11 H :    0.097407

  Mayer bond orders larger than 0.1
B(  6-C ,  7-O ) :   0.9991 B(  6-C ,  9-H ) :   0.9793 B(  6-C , 10-H ) :   0.9710
B(  6-C , 11-H ) :   0.9801 B(  7-O ,  8-H ) :   0.8951

Dispersion correction           -0.000252905
FINAL SINGLE POINT ENERGY      -115.729918227832

DIPOLE MOMENT
-------------
                                X             Y             Z
Electronic contribution:     -1.19807       0.94404       1.23788
Nuclear contribution   :      1.03436      -1.36135      -1.81466
                        -----------------------------------------
Total Dipole Moment    :     -0.16371      -0.41731      -0.57678
                        -----------------------------------------
Magnitude (a.u.)       :      0.73050
Magnitude (Debye)      :      1.85678

Rotational constants in cm-1:     4.535808     0.815318     0.784230
Rotational constants in MHz : 135980.100471 24442.609445 23510.627457

                             ****ORCA TERMINATED NORMALLY****
TOTAL RUN TIME: 0 days 0 hours 1 minutes 11 seconds 927 msec
