                         Program Version 4.1.2  - RELEASE  -
|  1> #Run DFT-D3 single point of the dimer
|  2> ! wB97X-D3 def2-TZVP TIGHTSCF CHELPG PMODEL PAL8
|  3>
|  4> %base "8-82_DFT_AB"
|  5>
|  6> %scf
|  7> MaxIter 1000
|  8> end
|  9>
| 10> * xyz 0 1
| 11>   C                      6.555521             2.875121             5.302771
| 12>   O                      5.960526             2.912413             6.541502
| 13>   H                      5.034107             2.707951             6.433674
| 14>   H                      6.880396             3.815636             4.981021
| 15>   H                      7.546284             2.419773             5.320943
| 16>   H                      5.929050             2.395693             4.578541
| 17>   C                      8.720127             2.068750             1.714929
| 18>   O                      8.922706             1.631866             0.411808
| 19>   H                      9.368847             2.368580             -0.064806
| 20>   H                      9.658410             2.396161             2.150492
| 21>   H                      7.949862             2.823318             1.845926
| 22>   H                      8.462241             1.222682             2.423428
| 23> *
| 24>
| 25> #Run DFT-D3 single point of the molecule with dimer basis set
| 26> $new_job
| 27> %base "8-82_DFT_A"
| 28> ! wB97X-D3 def2-TZVP TIGHTSCF CHELPG PMODEL
| 29>
| 30> %scf
| 31> MaxIter 1000
| 32> end
| 33>
| 34> * xyz 0 1
| 35>   C                      6.555521             2.875121             5.302771
| 36>   O                      5.960526             2.912413             6.541502
| 37>   H                      5.034107             2.707951             6.433674
| 38>   H                      6.880396             3.815636             4.981021
| 39>   H                      7.546284             2.419773             5.320943
| 40>   H                      5.929050             2.395693             4.578541
| 41>   C                    : 8.720127             2.068750             1.714929
| 42>   O                    : 8.922706             1.631866             0.411808
| 43>   H                    : 9.368847             2.368580             -0.064806
| 44>   H                    : 9.658410             2.396161             2.150492
| 45>   H                    : 7.949862             2.823318             1.845926
| 46>   H                    : 8.462241             1.222682             2.423428
| 47> *
| 48>
| 49> #Run DFT-D3 single point of the particle with dimer basis set
| 50> $new_job
| 51> %base "8-82_DFT_B"
| 52> ! wB97X-D3 def2-TZVP TIGHTSCF CHELPG PMODEL
| 53>
| 54> %scf
| 55> MaxIter 1000
| 56> end
| 57>
| 58> * xyz 0 1
| 59>   C                    : 6.555521             2.875121             5.302771
| 60>   O                    : 5.960526             2.912413             6.541502
| 61>   H                    : 5.034107             2.707951             6.433674
| 62>   H                    : 6.880396             3.815636             4.981021
| 63>   H                    : 7.546284             2.419773             5.320943
| 64>   H                    : 5.929050             2.395693             4.578541
| 65>   C                      8.720127             2.068750             1.714929
| 66>   O                      8.922706             1.631866             0.411808
| 67>   H                      9.368847             2.368580             -0.064806
| 68>   H                      9.658410             2.396161             2.150492
| 69>   H                      7.949862             2.823318             1.845926
| 70>   H                      8.462241             1.222682             2.423428
| 71> *
| 72>
| 73>                          ****END OF INPUT****
 Total Charge           Charge          ....    0
 Multiplicity           Mult            ....    1
 Number of Electrons    NEL             ....   36
Dispersion correction           -0.001186257
FINAL SINGLE POINT ENERGY      -231.462042174392
Dispersion correction           -0.000227656
FINAL SINGLE POINT ENERGY      -115.728560330123

CARTESIAN COORDINATES (ANGSTROEM)
---------------------------------
  C      6.555521    2.875121    5.302771
  O      5.960526    2.912413    6.541502
  H      5.034107    2.707951    6.433674
  H      6.880396    3.815636    4.981021
  H      7.546284    2.419773    5.320943
  H      5.929050    2.395693    4.578541
  C      8.720127    2.068750    1.714929
  O      8.922706    1.631866    0.411808
  H      9.368847    2.368580   -0.064806
  H      9.658410    2.396161    2.150492
  H      7.949862    2.823318    1.845926
  H      8.462241    1.222682    2.423428

 Multiplicity           Mult            ....    1
 Number of Electrons    NEL             ....   18
 Basis Dimension        Dim             ....  172

ORBITAL ENERGIES
----------------

  NO   OCC          E(Eh)            E(eV)
   0   2.0000     -19.234850      -523.4069
   1   2.0000     -10.312799      -280.6255
   2   2.0000      -1.141695       -31.0671
   3   2.0000      -0.791227       -21.5304
   4   2.0000      -0.612191       -16.6586
   5   2.0000      -0.550040       -14.9674
   6   2.0000      -0.526535       -14.3278
   7   2.0000      -0.424118       -11.5408
   8   2.0000      -0.375872       -10.2280
   9   0.0000       0.081813         2.2262
  10   0.0000       0.113846         3.0979
  11   0.0000       0.138741         3.7753
  12   0.0000       0.178172         4.8483
  13   0.0000       0.184246         5.0136

MULLIKEN ATOMIC CHARGES
-----------------------
   0 C :   -0.000194
   1 O :   -0.000004
   2 H :   -0.000000
   3 H :   -0.000056
   4 H :    0.000053
   5 H :   -0.000229
   6 C :   -0.163536
   7 O :   -0.467535
   8 H :    0.320542
   9 H :    0.098259
  10 H :    0.100404
  11 H :    0.112297
Sum of atomic charges:    0.0000000

LOEWDIN ATOMIC CHARGES
----------------------
   0 C :   -0.001066
   1 O :   -0.000009
   2 H :   -0.000002
   3 H :   -0.000186
   4 H :   -0.000273
   5 H :   -0.000276
   6 C :   -0.417345
   7 O :   -0.067564
   8 H :    0.188116
   9 H :    0.092179
  10 H :    0.090561
  11 H :    0.115865

  Mayer bond orders larger than 0.1
B(  6-C ,  7-O ) :   1.0083 B(  6-C ,  9-H ) :   0.9836 B(  6-C , 10-H ) :   0.9707
B(  6-C , 11-H ) :   0.9711 B(  7-O ,  8-H ) :   0.8921

Dispersion correction           -0.000239463
FINAL SINGLE POINT ENERGY      -115.732733492685

DIPOLE MOMENT
-------------
                                X             Y             Z
Electronic contribution:      0.14193      -0.63807      -1.81838
Nuclear contribution   :      0.07998       1.25451       2.01845
                        -----------------------------------------
Total Dipole Moment    :      0.22191       0.61644       0.20007
                        -----------------------------------------
Magnitude (a.u.)       :      0.68503
Magnitude (Debye)      :      1.74122

Rotational constants in cm-1:     4.307485     0.843250     0.816842
Rotational constants in MHz : 129135.153888 25279.993828 24488.297435

                             ****ORCA TERMINATED NORMALLY****
TOTAL RUN TIME: 0 days 0 hours 0 minutes 43 seconds 903 msec
