                         Program Version 4.1.2  - RELEASE  -
|  1> #Run DFT-D3 single point of the dimer
|  2> ! wB97X-D3 def2-TZVP TIGHTSCF CHELPG PMODEL PAL8
|  3>
|  4> %base "15-214_DFT_AB"
|  5>
|  6> %scf
|  7> MaxIter 1000
|  8> end
|  9>
| 10> * xyz 0 1
| 11>   C                      -9.239067            -5.099073            0.798096
| 12>   O                      -9.384162            -5.754281            2.003019
| 13>   H                      -8.498989            -6.000853            2.296157
| 14>   H                      -8.693844            -5.708319            0.095357
| 15>   H                      -10.258006           -4.715967            0.432128
| 16>   H                      -8.614225            -4.207495            0.849079
| 17>   C                      -6.229169            -5.605848            3.649831
| 18>   O                      -6.486129            -5.657773            2.254109
| 19>   H                      -6.061267            -6.372344            1.832964
| 20>   H                      -5.270334            -5.238399            3.993347
| 21>   H                      -7.008296            -5.020978            4.148391
| 22>   H                      -6.485685            -6.561689            4.106326
| 23> *
| 24>
| 25> #Run DFT-D3 single point of the molecule with dimer basis set
| 26> $new_job
| 27> %base "15-214_DFT_A"
| 28> ! wB97X-D3 def2-TZVP TIGHTSCF CHELPG PMODEL
| 29>
| 30> %scf
| 31> MaxIter 1000
| 32> end
| 33>
| 34> * xyz 0 1
| 35>   C                      -9.239067            -5.099073            0.798096
| 36>   O                      -9.384162            -5.754281            2.003019
| 37>   H                      -8.498989            -6.000853            2.296157
| 38>   H                      -8.693844            -5.708319            0.095357
| 39>   H                      -10.258006           -4.715967            0.432128
| 40>   H                      -8.614225            -4.207495            0.849079
| 41>   C                    : -6.229169            -5.605848            3.649831
| 42>   O                    : -6.486129            -5.657773            2.254109
| 43>   H                    : -6.061267            -6.372344            1.832964
| 44>   H                    : -5.270334            -5.238399            3.993347
| 45>   H                    : -7.008296            -5.020978            4.148391
| 46>   H                    : -6.485685            -6.561689            4.106326
| 47> *
| 48>
| 49> #Run DFT-D3 single point of the particle with dimer basis set
| 50> $new_job
| 51> %base "15-214_DFT_B"
| 52> ! wB97X-D3 def2-TZVP TIGHTSCF CHELPG PMODEL
| 53>
| 54> %scf
| 55> MaxIter 1000
| 56> end
| 57>
| 58> * xyz 0 1
| 59>   C                    : -9.239067            -5.099073            0.798096
| 60>   O                    : -9.384162            -5.754281            2.003019
| 61>   H                    : -8.498989            -6.000853            2.296157
| 62>   H                    : -8.693844            -5.708319            0.095357
| 63>   H                    : -10.258006           -4.715967            0.432128
| 64>   H                    : -8.614225            -4.207495            0.849079
| 65>   C                      -6.229169            -5.605848            3.649831
| 66>   O                      -6.486129            -5.657773            2.254109
| 67>   H                      -6.061267            -6.372344            1.832964
| 68>   H                      -5.270334            -5.238399            3.993347
| 69>   H                      -7.008296            -5.020978            4.148391
| 70>   H                      -6.485685            -6.561689            4.106326
| 71> *
| 72>
| 73>                          ****END OF INPUT****
 Total Charge           Charge          ....    0
 Multiplicity           Mult            ....    1
 Number of Electrons    NEL             ....   36
Dispersion correction           -0.002114693
FINAL SINGLE POINT ENERGY      -231.470834639276
Dispersion correction           -0.000222553
FINAL SINGLE POINT ENERGY      -115.732113683702

CARTESIAN COORDINATES (ANGSTROEM)
---------------------------------
  C     -9.239067   -5.099073    0.798096
  O     -9.384162   -5.754281    2.003019
  H     -8.498989   -6.000853    2.296157
  H     -8.693844   -5.708319    0.095357
  H    -10.258006   -4.715967    0.432128
  H     -8.614225   -4.207495    0.849079
  C     -6.229169   -5.605848    3.649831
  O     -6.486129   -5.657773    2.254109
  H     -6.061267   -6.372344    1.832964
  H     -5.270334   -5.238399    3.993347
  H     -7.008296   -5.020978    4.148391
  H     -6.485685   -6.561689    4.106326

 Multiplicity           Mult            ....    1
 Number of Electrons    NEL             ....   18
 Basis Dimension        Dim             ....  172

ORBITAL ENERGIES
----------------

  NO   OCC          E(Eh)            E(eV)
   0   2.0000     -19.229084      -523.2500
   1   2.0000     -10.313233      -280.6373
   2   2.0000      -1.137958       -30.9654
   3   2.0000      -0.804837       -21.9007
   4   2.0000      -0.615312       -16.7435
   5   2.0000      -0.549725       -14.9588
   6   2.0000      -0.523398       -14.2424
   7   2.0000      -0.421896       -11.4804
   8   2.0000      -0.380545       -10.3552
   9   0.0000       0.099157         2.6982
  10   0.0000       0.133325         3.6280
  11   0.0000       0.147179         4.0049
  12   0.0000       0.190151         5.1743
  13   0.0000       0.198311         5.3963

MULLIKEN ATOMIC CHARGES
-----------------------
   0 C :    0.018853
   1 O :   -0.001922
   2 H :   -0.013407
   3 H :   -0.005995
   4 H :   -0.000165
   5 H :   -0.007674
   6 C :   -0.160178
   7 O :   -0.481959
   8 H :    0.313923
   9 H :    0.113389
  10 H :    0.119575
  11 H :    0.105561
Sum of atomic charges:   -0.0000000

LOEWDIN ATOMIC CHARGES
----------------------
   0 C :   -0.012199
   1 O :   -0.004573
   2 H :   -0.031332
   3 H :   -0.001787
   4 H :   -0.000127
   5 H :   -0.003250
   6 C :   -0.378417
   7 O :   -0.024000
   8 H :    0.149413
   9 H :    0.094596
  10 H :    0.112817
  11 H :    0.098858

  Mayer bond orders larger than 0.1
B(  6-C ,  7-O ) :   0.9775 B(  6-C ,  9-H ) :   0.9665 B(  6-C , 10-H ) :   0.9782
B(  6-C , 11-H ) :   0.9844 B(  7-O ,  8-H ) :   0.8999

Dispersion correction           -0.000266255
FINAL SINGLE POINT ENERGY      -115.731470106970

DIPOLE MOMENT
-------------
                                X             Y             Z
Electronic contribution:     -0.19091       0.07774      -1.85885
Nuclear contribution   :      0.55425      -0.53424       2.18011
                        -----------------------------------------
Total Dipole Moment    :      0.36334      -0.45649       0.32126
                        -----------------------------------------
Magnitude (a.u.)       :      0.66604
Magnitude (Debye)      :      1.69294

Rotational constants in cm-1:     4.563378     0.806573     0.793676
Rotational constants in MHz : 136806.636389 24180.461503 23793.803887

                             ****ORCA TERMINATED NORMALLY****
TOTAL RUN TIME: 0 days 0 hours 1 minutes 5 seconds 266 msec
