                         Program Version 4.1.2  - RELEASE  -
|  1> #Run DFT-D3 single point of the dimer
|  2> ! wB97X-D3 def2-TZVP TIGHTSCF CHELPG PMODEL PAL8
|  3>
|  4> %base "10-191_DFT_AB"
|  5>
|  6> %scf
|  7> MaxIter 1000
|  8> end
|  9>
| 10> * xyz 0 1
| 11>   C                      10.931514            -5.409510            -4.610699
| 12>   O                      9.654416             -4.865354            -4.751905
| 13>   H                      9.467168             -4.607327            -3.840395
| 14>   H                      11.768323            -4.800732            -4.959978
| 15>   H                      11.167124            -5.797031            -3.580499
| 16>   H                      11.008256            -6.256578            -5.380066
| 17>   C                      9.179188             -2.296258            -1.378937
| 18>   O                      9.126528             -3.730062            -1.614299
| 19>   H                      9.780172             -4.125602            -1.001933
| 20>   H                      10.076277            -2.135125            -0.877923
| 21>   H                      9.117740             -1.750285            -2.323667
| 22>   H                      8.413924             -1.920282            -0.682767
| 23> *
| 24>
| 25> #Run DFT-D3 single point of the molecule with dimer basis set
| 26> $new_job
| 27> %base "10-191_DFT_A"
| 28> ! wB97X-D3 def2-TZVP TIGHTSCF CHELPG PMODEL
| 29>
| 30> %scf
| 31> MaxIter 1000
| 32> end
| 33>
| 34> * xyz 0 1
| 35>   C                      10.931514            -5.409510            -4.610699
| 36>   O                      9.654416             -4.865354            -4.751905
| 37>   H                      9.467168             -4.607327            -3.840395
| 38>   H                      11.768323            -4.800732            -4.959978
| 39>   H                      11.167124            -5.797031            -3.580499
| 40>   H                      11.008256            -6.256578            -5.380066
| 41>   C                    : 9.179188             -2.296258            -1.378937
| 42>   O                    : 9.126528             -3.730062            -1.614299
| 43>   H                    : 9.780172             -4.125602            -1.001933
| 44>   H                    : 10.076277            -2.135125            -0.877923
| 45>   H                    : 9.117740             -1.750285            -2.323667
| 46>   H                    : 8.413924             -1.920282            -0.682767
| 47> *
| 48>
| 49> #Run DFT-D3 single point of the particle with dimer basis set
| 50> $new_job
| 51> %base "10-191_DFT_B"
| 52> ! wB97X-D3 def2-TZVP TIGHTSCF CHELPG PMODEL
| 53>
| 54> %scf
| 55> MaxIter 1000
| 56> end
| 57>
| 58> * xyz 0 1
| 59>   C                    : 10.931514            -5.409510            -4.610699
| 60>   O                    : 9.654416             -4.865354            -4.751905
| 61>   H                    : 9.467168             -4.607327            -3.840395
| 62>   H                    : 11.768323            -4.800732            -4.959978
| 63>   H                    : 11.167124            -5.797031            -3.580499
| 64>   H                    : 11.008256            -6.256578            -5.380066
| 65>   C                      9.179188             -2.296258            -1.378937
| 66>   O                      9.126528             -3.730062            -1.614299
| 67>   H                      9.780172             -4.125602            -1.001933
| 68>   H                      10.076277            -2.135125            -0.877923
| 69>   H                      9.117740             -1.750285            -2.323667
| 70>   H                      8.413924             -1.920282            -0.682767
| 71> *
| 72>
| 73>                          ****END OF INPUT****
 Total Charge           Charge          ....    0
 Multiplicity           Mult            ....    1
 Number of Electrons    NEL             ....   36
Dispersion correction           -0.001534541
FINAL SINGLE POINT ENERGY      -231.466013370001
Dispersion correction           -0.000249943
FINAL SINGLE POINT ENERGY      -115.728689685908

CARTESIAN COORDINATES (ANGSTROEM)
---------------------------------
  C     10.931514   -5.409510   -4.610699
  O      9.654416   -4.865354   -4.751905
  H      9.467168   -4.607327   -3.840395
  H     11.768323   -4.800732   -4.959978
  H     11.167124   -5.797031   -3.580499
  H     11.008256   -6.256578   -5.380066
  C      9.179188   -2.296258   -1.378937
  O      9.126528   -3.730062   -1.614299
  H      9.780172   -4.125602   -1.001933
  H     10.076277   -2.135125   -0.877923
  H      9.117740   -1.750285   -2.323667
  H      8.413924   -1.920282   -0.682767

 Multiplicity           Mult            ....    1
 Number of Electrons    NEL             ....   18
 Basis Dimension        Dim             ....  172

ORBITAL ENERGIES
----------------

  NO   OCC          E(Eh)            E(eV)
   0   2.0000     -19.231219      -523.3081
   1   2.0000     -10.311669      -280.5948
   2   2.0000      -1.122253       -30.5381
   3   2.0000      -0.798264       -21.7219
   4   2.0000      -0.606502       -16.5038
   5   2.0000      -0.533682       -14.5222
   6   2.0000      -0.530360       -14.4318
   7   2.0000      -0.437643       -11.9089
   8   2.0000      -0.374070       -10.1790
   9   0.0000       0.093307         2.5390
  10   0.0000       0.119669         3.2564
  11   0.0000       0.150678         4.1002
  12   0.0000       0.179814         4.8930
  13   0.0000       0.204005         5.5513

MULLIKEN ATOMIC CHARGES
-----------------------
   0 C :   -0.001044
   1 O :   -0.000812
   2 H :   -0.003796
   3 H :    0.000117
   4 H :   -0.002223
   5 H :   -0.000235
   6 C :   -0.169575
   7 O :   -0.474580
   8 H :    0.314434
   9 H :    0.109165
  10 H :    0.123453
  11 H :    0.105095
Sum of atomic charges:    0.0000000

LOEWDIN ATOMIC CHARGES
----------------------
   0 C :   -0.002345
   1 O :   -0.001067
   2 H :   -0.016662
   3 H :   -0.000017
   4 H :   -0.000944
   5 H :   -0.000050
   6 C :   -0.350270
   7 O :   -0.098593
   8 H :    0.177766
   9 H :    0.086307
  10 H :    0.106577
  11 H :    0.099298

  Mayer bond orders larger than 0.1
B(  6-C ,  7-O ) :   1.0000 B(  6-C ,  9-H ) :   0.9910 B(  6-C , 10-H ) :   0.9764
B(  6-C , 11-H ) :   0.9659 B(  7-O ,  8-H ) :   0.8996

Dispersion correction           -0.000246973
FINAL SINGLE POINT ENERGY      -115.730564645759

DIPOLE MOMENT
-------------
                                X             Y             Z
Electronic contribution:     -0.19214      -1.70002      -0.45076
Nuclear contribution   :      0.64857       2.06433       0.95521
                        -----------------------------------------
Total Dipole Moment    :      0.45643       0.36431       0.50446
                        -----------------------------------------
Magnitude (a.u.)       :      0.77170
Magnitude (Debye)      :      1.96152

Rotational constants in cm-1:     4.333181     0.802012     0.770565
Rotational constants in MHz : 129905.508946 24043.727359 23100.953417

                             ****ORCA TERMINATED NORMALLY****
TOTAL RUN TIME: 0 days 0 hours 1 minutes 6 seconds 759 msec
