                         Program Version 4.1.2  - RELEASE  -
|  1> #Run DFT-D3 single point of the dimer
|  2> ! wB97X-D3 def2-TZVP TIGHTSCF CHELPG PMODEL PAL8
|  3>
|  4> %base "11-124_DFT_AB"
|  5>
|  6> %scf
|  7> MaxIter 1000
|  8> end
|  9>
| 10> * xyz 0 1
| 11>   C                      0.044626             7.336796             -2.000568
| 12>   O                      0.666804             8.379387             -2.767885
| 13>   H                      1.634866             8.354970             -2.635268
| 14>   H                      0.688306             6.433786             -1.904531
| 15>   H                      -0.210121            7.772745             -1.070785
| 16>   H                      -0.934877            7.018362             -2.489453
| 17>   C                      1.787189             8.141923             -6.209273
| 18>   O                      1.225959             9.057737             -7.130875
| 19>   H                      1.591158             9.924854             -6.877070
| 20>   H                      2.930828             8.116669             -6.320015
| 21>   H                      1.425929             8.176816             -5.223951
| 22>   H                      1.494492             7.116921             -6.583028
| 23> *
| 24>
| 25> #Run DFT-D3 single point of the molecule with dimer basis set
| 26> $new_job
| 27> %base "11-124_DFT_A"
| 28> ! wB97X-D3 def2-TZVP TIGHTSCF CHELPG PMODEL
| 29>
| 30> %scf
| 31> MaxIter 1000
| 32> end
| 33>
| 34> * xyz 0 1
| 35>   C                      0.044626             7.336796             -2.000568
| 36>   O                      0.666804             8.379387             -2.767885
| 37>   H                      1.634866             8.354970             -2.635268
| 38>   H                      0.688306             6.433786             -1.904531
| 39>   H                      -0.210121            7.772745             -1.070785
| 40>   H                      -0.934877            7.018362             -2.489453
| 41>   C                    : 1.787189             8.141923             -6.209273
| 42>   O                    : 1.225959             9.057737             -7.130875
| 43>   H                    : 1.591158             9.924854             -6.877070
| 44>   H                    : 2.930828             8.116669             -6.320015
| 45>   H                    : 1.425929             8.176816             -5.223951
| 46>   H                    : 1.494492             7.116921             -6.583028
| 47> *
| 48>
| 49> #Run DFT-D3 single point of the particle with dimer basis set
| 50> $new_job
| 51> %base "11-124_DFT_B"
| 52> ! wB97X-D3 def2-TZVP TIGHTSCF CHELPG PMODEL
| 53>
| 54> %scf
| 55> MaxIter 1000
| 56> end
| 57>
| 58> * xyz 0 1
| 59>   C                    : 0.044626             7.336796             -2.000568
| 60>   O                    : 0.666804             8.379387             -2.767885
| 61>   H                    : 1.634866             8.354970             -2.635268
| 62>   H                    : 0.688306             6.433786             -1.904531
| 63>   H                    : -0.210121            7.772745             -1.070785
| 64>   H                    : -0.934877            7.018362             -2.489453
| 65>   C                      1.787189             8.141923             -6.209273
| 66>   O                      1.225959             9.057737             -7.130875
| 67>   H                      1.591158             9.924854             -6.877070
| 68>   H                      2.930828             8.116669             -6.320015
| 69>   H                      1.425929             8.176816             -5.223951
| 70>   H                      1.494492             7.116921             -6.583028
| 71> *
| 72>
| 73>                          ****END OF INPUT****
 Total Charge           Charge          ....    0
 Multiplicity           Mult            ....    1
 Number of Electrons    NEL             ....   36
Dispersion correction           -0.001336644
FINAL SINGLE POINT ENERGY      -231.464440880242
Dispersion correction           -0.000254087
FINAL SINGLE POINT ENERGY      -115.732574704931

CARTESIAN COORDINATES (ANGSTROEM)
---------------------------------
  C      0.044626    7.336796   -2.000568
  O      0.666804    8.379387   -2.767885
  H      1.634866    8.354970   -2.635268
  H      0.688306    6.433786   -1.904531
  H     -0.210121    7.772745   -1.070785
  H     -0.934877    7.018362   -2.489453
  C      1.787189    8.141923   -6.209273
  O      1.225959    9.057737   -7.130875
  H      1.591158    9.924854   -6.877070
  H      2.930828    8.116669   -6.320015
  H      1.425929    8.176816   -5.223951
  H      1.494492    7.116921   -6.583028

 Multiplicity           Mult            ....    1
 Number of Electrons    NEL             ....   18
 Basis Dimension        Dim             ....  172

ORBITAL ENERGIES
----------------

  NO   OCC          E(Eh)            E(eV)
   0   2.0000     -19.234300      -523.3919
   1   2.0000     -10.317403      -280.7508
   2   2.0000      -1.135970       -30.9113
   3   2.0000      -0.791057       -21.5258
   4   2.0000      -0.606025       -16.4908
   5   2.0000      -0.550084       -14.9685
   6   2.0000      -0.518818       -14.1178
   7   2.0000      -0.426992       -11.6190
   8   2.0000      -0.378519       -10.3000
   9   0.0000       0.082017         2.2318
  10   0.0000       0.115856         3.1526
  11   0.0000       0.149808         4.0765
  12   0.0000       0.168237         4.5780
  13   0.0000       0.188910         5.1405

MULLIKEN ATOMIC CHARGES
-----------------------
   0 C :    0.000243
   1 O :    0.000537
   2 H :   -0.000707
   3 H :   -0.000054
   4 H :   -0.000030
   5 H :   -0.000010
   6 C :   -0.169094
   7 O :   -0.467612
   8 H :    0.314926
   9 H :    0.103906
  10 H :    0.110014
  11 H :    0.107881
Sum of atomic charges:    0.0000000

LOEWDIN ATOMIC CHARGES
----------------------
   0 C :   -0.000808
   1 O :   -0.004362
   2 H :   -0.002207
   3 H :   -0.000035
   4 H :   -0.000023
   5 H :   -0.000038
   6 C :   -0.396417
   7 O :   -0.081920
   8 H :    0.177498
   9 H :    0.106097
  10 H :    0.086425
  11 H :    0.115789

  Mayer bond orders larger than 0.1
B(  6-C ,  7-O ) :   1.0020 B(  6-C ,  9-H ) :   0.9823 B(  6-C , 10-H ) :   0.9640
B(  6-C , 11-H ) :   0.9742 B(  7-O ,  8-H ) :   0.8992

Dispersion correction           -0.000249347
FINAL SINGLE POINT ENERGY      -115.730487613915

DIPOLE MOMENT
-------------
                                X             Y             Z
Electronic contribution:     -0.86932       1.25034      -1.07593
Nuclear contribution   :      1.28816      -1.08011       1.58319
                        -----------------------------------------
Total Dipole Moment    :      0.41883       0.17024       0.50726
                        -----------------------------------------
Magnitude (a.u.)       :      0.67950
Magnitude (Debye)      :      1.72715

Rotational constants in cm-1:     4.161492     0.824909     0.802389
Rotational constants in MHz : 124758.377187 24730.162301 24055.012683

                             ****ORCA TERMINATED NORMALLY****
TOTAL RUN TIME: 0 days 0 hours 1 minutes 1 seconds 817 msec
