                         Program Version 4.1.2  - RELEASE  -
|  1> #Run DFT-D3 single point of the dimer
|  2> ! wB97X-D3 def2-TZVP TIGHTSCF CHELPG PMODEL PAL8
|  3>
|  4> %base "9-186_DFT_AB"
|  5>
|  6> %scf
|  7> MaxIter 1000
|  8> end
|  9>
| 10> * xyz 0 1
| 11>   C                      -7.709008            5.724465             -7.041858
| 12>   O                      -7.893009            5.397264             -5.706339
| 13>   H                      -7.470461            4.539697             -5.561548
| 14>   H                      -8.301419            5.232286             -7.798056
| 15>   H                      -7.925926            6.759924             -7.241924
| 16>   H                      -6.721848            5.612300             -7.397646
| 17>   C                      -4.723180            2.478515             -4.752313
| 18>   O                      -5.544233            3.373510             -5.366435
| 19>   H                      -5.971417            2.996121             -6.150473
| 20>   H                      -5.273834            1.547178             -4.698938
| 21>   H                      -3.747039            2.419369             -5.248474
| 22>   H                      -4.535337            2.705505             -3.659405
| 23> *
| 24>
| 25> #Run DFT-D3 single point of the molecule with dimer basis set
| 26> $new_job
| 27> %base "9-186_DFT_A"
| 28> ! wB97X-D3 def2-TZVP TIGHTSCF CHELPG PMODEL
| 29>
| 30> %scf
| 31> MaxIter 1000
| 32> end
| 33>
| 34> * xyz 0 1
| 35>   C                      -7.709008            5.724465             -7.041858
| 36>   O                      -7.893009            5.397264             -5.706339
| 37>   H                      -7.470461            4.539697             -5.561548
| 38>   H                      -8.301419            5.232286             -7.798056
| 39>   H                      -7.925926            6.759924             -7.241924
| 40>   H                      -6.721848            5.612300             -7.397646
| 41>   C                    : -4.723180            2.478515             -4.752313
| 42>   O                    : -5.544233            3.373510             -5.366435
| 43>   H                    : -5.971417            2.996121             -6.150473
| 44>   H                    : -5.273834            1.547178             -4.698938
| 45>   H                    : -3.747039            2.419369             -5.248474
| 46>   H                    : -4.535337            2.705505             -3.659405
| 47> *
| 48>
| 49> #Run DFT-D3 single point of the particle with dimer basis set
| 50> $new_job
| 51> %base "9-186_DFT_B"
| 52> ! wB97X-D3 def2-TZVP TIGHTSCF CHELPG PMODEL
| 53>
| 54> %scf
| 55> MaxIter 1000
| 56> end
| 57>
| 58> * xyz 0 1
| 59>   C                    : -7.709008            5.724465             -7.041858
| 60>   O                    : -7.893009            5.397264             -5.706339
| 61>   H                    : -7.470461            4.539697             -5.561548
| 62>   H                    : -8.301419            5.232286             -7.798056
| 63>   H                    : -7.925926            6.759924             -7.241924
| 64>   H                    : -6.721848            5.612300             -7.397646
| 65>   C                      -4.723180            2.478515             -4.752313
| 66>   O                      -5.544233            3.373510             -5.366435
| 67>   H                      -5.971417            2.996121             -6.150473
| 68>   H                      -5.273834            1.547178             -4.698938
| 69>   H                      -3.747039            2.419369             -5.248474
| 70>   H                      -4.535337            2.705505             -3.659405
| 71> *
| 72>
| 73>                          ****END OF INPUT****
 Total Charge           Charge          ....    0
 Multiplicity           Mult            ....    1
 Number of Electrons    NEL             ....   36
Dispersion correction           -0.001553290
FINAL SINGLE POINT ENERGY      -231.465015846604
Dispersion correction           -0.000245513
FINAL SINGLE POINT ENERGY      -115.731883398575

CARTESIAN COORDINATES (ANGSTROEM)
---------------------------------
  C     -7.709008    5.724465   -7.041858
  O     -7.893009    5.397264   -5.706339
  H     -7.470461    4.539697   -5.561548
  H     -8.301419    5.232286   -7.798056
  H     -7.925926    6.759924   -7.241924
  H     -6.721848    5.612300   -7.397646
  C     -4.723180    2.478515   -4.752313
  O     -5.544233    3.373510   -5.366435
  H     -5.971417    2.996121   -6.150473
  H     -5.273834    1.547178   -4.698938
  H     -3.747039    2.419369   -5.248474
  H     -4.535337    2.705505   -3.659405

 Multiplicity           Mult            ....    1
 Number of Electrons    NEL             ....   18
 Basis Dimension        Dim             ....  172

ORBITAL ENERGIES
----------------

  NO   OCC          E(Eh)            E(eV)
   0   2.0000     -19.228828      -523.2430
   1   2.0000     -10.311596      -280.5928
   2   2.0000      -1.150075       -31.2951
   3   2.0000      -0.791741       -21.5444
   4   2.0000      -0.616962       -16.7884
   5   2.0000      -0.557561       -15.1720
   6   2.0000      -0.533373       -14.5138
   7   2.0000      -0.414035       -11.2665
   8   2.0000      -0.372509       -10.1365
   9   0.0000       0.089148         2.4258
  10   0.0000       0.125689         3.4202
  11   0.0000       0.156187         4.2501
  12   0.0000       0.184898         5.0313
  13   0.0000       0.200612         5.4589

MULLIKEN ATOMIC CHARGES
-----------------------
   0 C :    0.002390
   1 O :    0.002789
   2 H :   -0.015843
   3 H :   -0.000103
   4 H :   -0.000145
   5 H :   -0.003544
   6 C :   -0.152146
   7 O :   -0.460237
   8 H :    0.325937
   9 H :    0.096934
  10 H :    0.094749
  11 H :    0.109218
Sum of atomic charges:   -0.0000000

LOEWDIN ATOMIC CHARGES
----------------------
   0 C :   -0.002655
   1 O :   -0.002381
   2 H :   -0.021020
   3 H :   -0.000024
   4 H :   -0.000012
   5 H :   -0.001556
   6 C :   -0.428129
   7 O :   -0.028209
   8 H :    0.182934
   9 H :    0.093762
  10 H :    0.093980
  11 H :    0.113311

  Mayer bond orders larger than 0.1
B(  6-C ,  7-O ) :   1.0033 B(  6-C ,  9-H ) :   0.9917 B(  6-C , 10-H ) :   0.9699
B(  6-C , 11-H ) :   0.9709 B(  7-O ,  8-H ) :   0.8847

Dispersion correction           -0.000225324
FINAL SINGLE POINT ENERGY      -115.730534995507

DIPOLE MOMENT
-------------
                                X             Y             Z
Electronic contribution:     -0.99069       1.27438      -0.79570
Nuclear contribution   :      1.01198      -1.87194       0.53305
                        -----------------------------------------
Total Dipole Moment    :      0.02130      -0.59755      -0.26265
                        -----------------------------------------
Magnitude (a.u.)       :      0.65308
Magnitude (Debye)      :      1.65999

Rotational constants in cm-1:     4.294087     0.871141     0.851503
Rotational constants in MHz : 128733.475662 26116.144744 25527.423569

                             ****ORCA TERMINATED NORMALLY****
TOTAL RUN TIME: 0 days 0 hours 0 minutes 44 seconds 889 msec
