                         Program Version 4.1.2  - RELEASE  -
|  1> #Run DFT-D3 single point of the dimer
|  2> ! wB97X-D3 def2-TZVP TIGHTSCF CHELPG PMODEL PAL8
|  3>
|  4> %base "12-164_DFT_AB"
|  5>
|  6> %scf
|  7> MaxIter 1000
|  8> end
|  9>
| 10> * xyz 0 1
| 11>   C                      4.565372             -4.990735            -9.161081
| 12>   O                      4.726718             -3.609688            -8.731465
| 13>   H                      5.297105             -3.125183            -9.359927
| 14>   H                      3.792895             -5.027628            -9.950942
| 15>   H                      5.474635             -5.509436            -9.439797
| 16>   H                      4.043528             -5.647131            -8.427769
| 17>   C                      9.229451             -5.151753            -8.916976
| 18>   O                      7.924277             -5.413865            -9.260101
| 19>   H                      7.447929             -4.528494            -9.198646
| 20>   H                      9.368424             -4.190752            -8.496241
| 21>   H                      9.789180             -5.788667            -8.187264
| 22>   H                      9.881184             -5.288122            -9.755907
| 23> *
| 24>
| 25> #Run DFT-D3 single point of the molecule with dimer basis set
| 26> $new_job
| 27> %base "12-164_DFT_A"
| 28> ! wB97X-D3 def2-TZVP TIGHTSCF CHELPG PMODEL
| 29>
| 30> %scf
| 31> MaxIter 1000
| 32> end
| 33>
| 34> * xyz 0 1
| 35>   C                      4.565372             -4.990735            -9.161081
| 36>   O                      4.726718             -3.609688            -8.731465
| 37>   H                      5.297105             -3.125183            -9.359927
| 38>   H                      3.792895             -5.027628            -9.950942
| 39>   H                      5.474635             -5.509436            -9.439797
| 40>   H                      4.043528             -5.647131            -8.427769
| 41>   C                    : 9.229451             -5.151753            -8.916976
| 42>   O                    : 7.924277             -5.413865            -9.260101
| 43>   H                    : 7.447929             -4.528494            -9.198646
| 44>   H                    : 9.368424             -4.190752            -8.496241
| 45>   H                    : 9.789180             -5.788667            -8.187264
| 46>   H                    : 9.881184             -5.288122            -9.755907
| 47> *
| 48>
| 49> #Run DFT-D3 single point of the particle with dimer basis set
| 50> $new_job
| 51> %base "12-164_DFT_B"
| 52> ! wB97X-D3 def2-TZVP TIGHTSCF CHELPG PMODEL
| 53>
| 54> %scf
| 55> MaxIter 1000
| 56> end
| 57>
| 58> * xyz 0 1
| 59>   C                    : 4.565372             -4.990735            -9.161081
| 60>   O                    : 4.726718             -3.609688            -8.731465
| 61>   H                    : 5.297105             -3.125183            -9.359927
| 62>   H                    : 3.792895             -5.027628            -9.950942
| 63>   H                    : 5.474635             -5.509436            -9.439797
| 64>   H                    : 4.043528             -5.647131            -8.427769
| 65>   C                      9.229451             -5.151753            -8.916976
| 66>   O                      7.924277             -5.413865            -9.260101
| 67>   H                      7.447929             -4.528494            -9.198646
| 68>   H                      9.368424             -4.190752            -8.496241
| 69>   H                      9.789180             -5.788667            -8.187264
| 70>   H                      9.881184             -5.288122            -9.755907
| 71> *
| 72>
| 73>                          ****END OF INPUT****
 Total Charge           Charge          ....    0
 Multiplicity           Mult            ....    1
 Number of Electrons    NEL             ....   36
Dispersion correction           -0.001623695
FINAL SINGLE POINT ENERGY      -231.454664265357
Dispersion correction           -0.000284482
FINAL SINGLE POINT ENERGY      -115.729846585612

CARTESIAN COORDINATES (ANGSTROEM)
---------------------------------
  C      4.565372   -4.990735   -9.161081
  O      4.726718   -3.609688   -8.731465
  H      5.297105   -3.125183   -9.359927
  H      3.792895   -5.027628   -9.950942
  H      5.474635   -5.509436   -9.439797
  H      4.043528   -5.647131   -8.427769
  C      9.229451   -5.151753   -8.916976
  O      7.924277   -5.413865   -9.260101
  H      7.447929   -4.528494   -9.198646
  H      9.368424   -4.190752   -8.496241
  H      9.789180   -5.788667   -8.187264
  H      9.881184   -5.288122   -9.755907

 Multiplicity           Mult            ....    1
 Number of Electrons    NEL             ....   18
 Basis Dimension        Dim             ....  172

ORBITAL ENERGIES
----------------

  NO   OCC          E(Eh)            E(eV)
   0   2.0000     -19.239824      -523.5422
   1   2.0000     -10.305606      -280.4298
   2   2.0000      -1.145088       -31.1594
   3   2.0000      -0.795386       -21.6436
   4   2.0000      -0.621003       -16.8984
   5   2.0000      -0.545112       -14.8332
   6   2.0000      -0.531051       -14.4506
   7   2.0000      -0.433317       -11.7912
   8   2.0000      -0.368567       -10.0292
   9   0.0000       0.076720         2.0877
  10   0.0000       0.123860         3.3704
  11   0.0000       0.150241         4.0883
  12   0.0000       0.173653         4.7253
  13   0.0000       0.204088         5.5535

MULLIKEN ATOMIC CHARGES
-----------------------
   0 C :   -0.003286
   1 O :    0.000334
   2 H :   -0.000090
   3 H :   -0.000153
   4 H :   -0.005529
   5 H :    0.000445
   6 C :   -0.175939
   7 O :   -0.448636
   8 H :    0.329064
   9 H :    0.102827
  10 H :    0.097549
  11 H :    0.103414
Sum of atomic charges:    0.0000000

LOEWDIN ATOMIC CHARGES
----------------------
   0 C :   -0.007304
   1 O :   -0.000783
   2 H :   -0.001450
   3 H :   -0.000071
   4 H :   -0.009766
   5 H :   -0.000050
   6 C :   -0.428335
   7 O :   -0.051249
   8 H :    0.211557
   9 H :    0.089285
  10 H :    0.104821
  11 H :    0.093345

  Mayer bond orders larger than 0.1
B(  6-C ,  7-O ) :   1.0234 B(  6-C ,  9-H ) :   0.9880 B(  6-C , 10-H ) :   0.9717
B(  6-C , 11-H ) :   0.9831 B(  7-O ,  8-H ) :   0.8856

Dispersion correction           -0.000244712
FINAL SINGLE POINT ENERGY      -115.724044181414

DIPOLE MOMENT
-------------
                                X             Y             Z
Electronic contribution:     -1.89314      -0.47755      -0.49494
Nuclear contribution   :      2.08260       1.15392       0.66486
                        -----------------------------------------
Total Dipole Moment    :      0.18946       0.67637       0.16992
                        -----------------------------------------
Magnitude (a.u.)       :      0.72267
Magnitude (Debye)      :      1.83687

Rotational constants in cm-1:     4.541120     0.858188     0.817549
Rotational constants in MHz : 136139.361290 25727.827336 24509.510846

                             ****ORCA TERMINATED NORMALLY****
TOTAL RUN TIME: 0 days 0 hours 1 minutes 16 seconds 651 msec
