                         Program Version 4.1.2  - RELEASE  -
|  1> #Run DFT-D3 single point of the dimer
|  2> ! wB97X-D3 def2-TZVP TIGHTSCF CHELPG PMODEL PAL8
|  3>
|  4> %base "11-116_DFT_AB"
|  5>
|  6> %scf
|  7> MaxIter 1000
|  8> end
|  9>
| 10> * xyz 0 1
| 11>   C                      9.746196             0.127752             0.272165
| 12>   O                      9.036215             1.286193             0.694994
| 13>   H                      9.106927             1.857356             -0.091271
| 14>   H                      9.334585             -0.309086            -0.601121
| 15>   H                      10.778810            0.400009             -0.013756
| 16>   H                      9.754853             -0.603531            1.099498
| 17>   C                      10.772383            0.858536             -3.839267
| 18>   O                      10.144216            1.061492             -2.595977
| 19>   H                      9.190354             1.162496             -2.722293
| 20>   H                      10.490129            1.727984             -4.536279
| 21>   H                      11.875388            0.787049             -3.795854
| 22>   H                      10.378328            -0.013718            -4.334733
| 23> *
| 24>
| 25> #Run DFT-D3 single point of the molecule with dimer basis set
| 26> $new_job
| 27> %base "11-116_DFT_A"
| 28> ! wB97X-D3 def2-TZVP TIGHTSCF CHELPG PMODEL
| 29>
| 30> %scf
| 31> MaxIter 1000
| 32> end
| 33>
| 34> * xyz 0 1
| 35>   C                      9.746196             0.127752             0.272165
| 36>   O                      9.036215             1.286193             0.694994
| 37>   H                      9.106927             1.857356             -0.091271
| 38>   H                      9.334585             -0.309086            -0.601121
| 39>   H                      10.778810            0.400009             -0.013756
| 40>   H                      9.754853             -0.603531            1.099498
| 41>   C                    : 10.772383            0.858536             -3.839267
| 42>   O                    : 10.144216            1.061492             -2.595977
| 43>   H                    : 9.190354             1.162496             -2.722293
| 44>   H                    : 10.490129            1.727984             -4.536279
| 45>   H                    : 11.875388            0.787049             -3.795854
| 46>   H                    : 10.378328            -0.013718            -4.334733
| 47> *
| 48>
| 49> #Run DFT-D3 single point of the particle with dimer basis set
| 50> $new_job
| 51> %base "11-116_DFT_B"
| 52> ! wB97X-D3 def2-TZVP TIGHTSCF CHELPG PMODEL
| 53>
| 54> %scf
| 55> MaxIter 1000
| 56> end
| 57>
| 58> * xyz 0 1
| 59>   C                    : 9.746196             0.127752             0.272165
| 60>   O                    : 9.036215             1.286193             0.694994
| 61>   H                    : 9.106927             1.857356             -0.091271
| 62>   H                    : 9.334585             -0.309086            -0.601121
| 63>   H                    : 10.778810            0.400009             -0.013756
| 64>   H                    : 9.754853             -0.603531            1.099498
| 65>   C                      10.772383            0.858536             -3.839267
| 66>   O                      10.144216            1.061492             -2.595977
| 67>   H                      9.190354             1.162496             -2.722293
| 68>   H                      10.490129            1.727984             -4.536279
| 69>   H                      11.875388            0.787049             -3.795854
| 70>   H                      10.378328            -0.013718            -4.334733
| 71> *
| 72>
| 73>                          ****END OF INPUT****
 Total Charge           Charge          ....    0
 Multiplicity           Mult            ....    1
 Number of Electrons    NEL             ....   36
Dispersion correction           -0.001876368
FINAL SINGLE POINT ENERGY      -231.469584494238
Dispersion correction           -0.000218739
FINAL SINGLE POINT ENERGY      -115.734359149875

CARTESIAN COORDINATES (ANGSTROEM)
---------------------------------
  C      9.746196    0.127752    0.272165
  O      9.036215    1.286193    0.694994
  H      9.106927    1.857356   -0.091271
  H      9.334585   -0.309086   -0.601121
  H     10.778810    0.400009   -0.013756
  H      9.754853   -0.603531    1.099498
  C     10.772383    0.858536   -3.839267
  O     10.144216    1.061492   -2.595977
  H      9.190354    1.162496   -2.722293
  H     10.490129    1.727984   -4.536279
  H     11.875388    0.787049   -3.795854
  H     10.378328   -0.013718   -4.334733

 Multiplicity           Mult            ....    1
 Number of Electrons    NEL             ....   18
 Basis Dimension        Dim             ....  172

ORBITAL ENERGIES
----------------

  NO   OCC          E(Eh)            E(eV)
   0   2.0000     -19.231779      -523.3233
   1   2.0000     -10.319605      -280.8107
   2   2.0000      -1.137022       -30.9399
   3   2.0000      -0.792571       -21.5669
   4   2.0000      -0.612812       -16.6755
   5   2.0000      -0.536276       -14.5928
   6   2.0000      -0.533416       -14.5150
   7   2.0000      -0.431950       -11.7540
   8   2.0000      -0.369807       -10.0630
   9   0.0000       0.095801         2.6069
  10   0.0000       0.127956         3.4818
  11   0.0000       0.152778         4.1573
  12   0.0000       0.184412         5.0181
  13   0.0000       0.195514         5.3202

MULLIKEN ATOMIC CHARGES
-----------------------
   0 C :    0.026298
   1 O :   -0.000678
   2 H :   -0.004465
   3 H :   -0.021293
   4 H :   -0.009899
   5 H :   -0.000527
   6 C :   -0.172443
   7 O :   -0.468133
   8 H :    0.321259
   9 H :    0.096173
  10 H :    0.127397
  11 H :    0.106312
Sum of atomic charges:    0.0000000

LOEWDIN ATOMIC CHARGES
----------------------
   0 C :   -0.018257
   1 O :   -0.000253
   2 H :   -0.003850
   3 H :   -0.010515
   4 H :   -0.005535
   5 H :   -0.000147
   6 C :   -0.393159
   7 O :   -0.050029
   8 H :    0.177815
   9 H :    0.103004
  10 H :    0.111388
  11 H :    0.089539

  Mayer bond orders larger than 0.1
B(  6-C ,  7-O ) :   0.9926 B(  6-C ,  9-H ) :   0.9790 B(  6-C , 10-H ) :   0.9706
B(  6-C , 11-H ) :   0.9732 B(  7-O ,  8-H ) :   0.8891

Dispersion correction           -0.000240063
FINAL SINGLE POINT ENERGY      -115.733318354666

DIPOLE MOMENT
-------------
                                X             Y             Z
Electronic contribution:     -0.57532       0.16099       1.76309
Nuclear contribution   :      0.22542      -0.19054      -2.34674
                        -----------------------------------------
Total Dipole Moment    :     -0.34991      -0.02955      -0.58366
                        -----------------------------------------
Magnitude (a.u.)       :      0.68115
Magnitude (Debye)      :      1.73134

Rotational constants in cm-1:     4.228567     0.831823     0.797014
Rotational constants in MHz : 126769.252906 24937.420335 23893.885004

                             ****ORCA TERMINATED NORMALLY****
TOTAL RUN TIME: 0 days 0 hours 1 minutes 6 seconds 336 msec
