                         Program Version 4.1.2  - RELEASE  -
|  1> #Run DFT-D3 single point of the dimer
|  2> ! wB97X-D3 def2-TZVP TIGHTSCF CHELPG PMODEL PAL8
|  3>
|  4> %base "3-17_DFT_AB"
|  5>
|  6> %scf
|  7> MaxIter 1000
|  8> end
|  9>
| 10> * xyz 0 1
| 11>   C                      0.141561             6.247437             4.342902
| 12>   O                      -0.671210            6.055133             5.470995
| 13>   H                      -0.143852            5.652897             6.120910
| 14>   H                      0.997028             6.871239             4.544806
| 15>   H                      0.411989             5.326716             3.898990
| 16>   H                      -0.387381            6.739469             3.540981
| 17>   C                      -1.061053            5.301009             11.263492
| 18>   O                      -1.295647            4.489598             10.101776
| 19>   H                      -1.351680            3.540695             10.358751
| 20>   H                      -0.103723            5.314560             11.688800
| 21>   H                      -1.275487            6.334969             11.016867
| 22>   H                      -1.821840            4.945084             11.969522
| 23> *
| 24>
| 25> #Run DFT-D3 single point of the molecule with dimer basis set
| 26> $new_job
| 27> %base "3-17_DFT_A"
| 28> ! wB97X-D3 def2-TZVP TIGHTSCF CHELPG PMODEL
| 29>
| 30> %scf
| 31> MaxIter 1000
| 32> end
| 33>
| 34> * xyz 0 1
| 35>   C                      0.141561             6.247437             4.342902
| 36>   O                      -0.671210            6.055133             5.470995
| 37>   H                      -0.143852            5.652897             6.120910
| 38>   H                      0.997028             6.871239             4.544806
| 39>   H                      0.411989             5.326716             3.898990
| 40>   H                      -0.387381            6.739469             3.540981
| 41>   C                    : -1.061053            5.301009             11.263492
| 42>   O                    : -1.295647            4.489598             10.101776
| 43>   H                    : -1.351680            3.540695             10.358751
| 44>   H                    : -0.103723            5.314560             11.688800
| 45>   H                    : -1.275487            6.334969             11.016867
| 46>   H                    : -1.821840            4.945084             11.969522
| 47> *
| 48>
| 49> #Run DFT-D3 single point of the particle with dimer basis set
| 50> $new_job
| 51> %base "3-17_DFT_B"
| 52> ! wB97X-D3 def2-TZVP TIGHTSCF CHELPG PMODEL
| 53>
| 54> %scf
| 55> MaxIter 1000
| 56> end
| 57>
| 58> * xyz 0 1
| 59>   C                    : 0.141561             6.247437             4.342902
| 60>   O                    : -0.671210            6.055133             5.470995
| 61>   H                    : -0.143852            5.652897             6.120910
| 62>   H                    : 0.997028             6.871239             4.544806
| 63>   H                    : 0.411989             5.326716             3.898990
| 64>   H                    : -0.387381            6.739469             3.540981
| 65>   C                      -1.061053            5.301009             11.263492
| 66>   O                      -1.295647            4.489598             10.101776
| 67>   H                      -1.351680            3.540695             10.358751
| 68>   H                      -0.103723            5.314560             11.688800
| 69>   H                      -1.275487            6.334969             11.016867
| 70>   H                      -1.821840            4.945084             11.969522
| 71> *
| 72>
| 73>                          ****END OF INPUT****
 Total Charge           Charge          ....    0
 Multiplicity           Mult            ....    1
 Number of Electrons    NEL             ....   36
Dispersion correction           -0.000586218
FINAL SINGLE POINT ENERGY      -231.464504805736
Dispersion correction           -0.000225441
FINAL SINGLE POINT ENERGY      -115.733605339541

CARTESIAN COORDINATES (ANGSTROEM)
---------------------------------
  C      0.141561    6.247437    4.342902
  O     -0.671210    6.055133    5.470995
  H     -0.143852    5.652897    6.120910
  H      0.997028    6.871239    4.544806
  H      0.411989    5.326716    3.898990
  H     -0.387381    6.739469    3.540981
  C     -1.061053    5.301009   11.263492
  O     -1.295647    4.489598   10.101776
  H     -1.351680    3.540695   10.358751
  H     -0.103723    5.314560   11.688800
  H     -1.275487    6.334969   11.016867
  H     -1.821840    4.945084   11.969522

 Multiplicity           Mult            ....    1
 Number of Electrons    NEL             ....   18
 Basis Dimension        Dim             ....  172

ORBITAL ENERGIES
----------------

  NO   OCC          E(Eh)            E(eV)
   0   2.0000     -19.229223      -523.2538
   1   2.0000     -10.309124      -280.5255
   2   2.0000      -1.122643       -30.5487
   3   2.0000      -0.799066       -21.7437
   4   2.0000      -0.602799       -16.4030
   5   2.0000      -0.549642       -14.9565
   6   2.0000      -0.523640       -14.2490
   7   2.0000      -0.427599       -11.6356
   8   2.0000      -0.373428       -10.1615
   9   0.0000       0.093724         2.5504
  10   0.0000       0.111858         3.0438
  11   0.0000       0.154632         4.2078
  12   0.0000       0.174446         4.7469
  13   0.0000       0.203949         5.5497

MULLIKEN ATOMIC CHARGES
-----------------------
   0 C :    0.000077
   1 O :    0.000059
   2 H :   -0.000720
   3 H :   -0.000005
   4 H :   -0.000006
   5 H :    0.000001
   6 C :   -0.163158
   7 O :   -0.487006
   8 H :    0.316682
   9 H :    0.109871
  10 H :    0.118900
  11 H :    0.105304
Sum of atomic charges:   -0.0000000

LOEWDIN ATOMIC CHARGES
----------------------
   0 C :   -0.000007
   1 O :   -0.000009
   2 H :   -0.000331
   3 H :   -0.000000
   4 H :   -0.000000
   5 H :   -0.000001
   6 C :   -0.363414
   7 O :   -0.108075
   8 H :    0.179484
   9 H :    0.083938
  10 H :    0.107330
  11 H :    0.101086

  Mayer bond orders larger than 0.1
B(  6-C ,  7-O ) :   0.9970 B(  6-C ,  9-H ) :   0.9625 B(  6-C , 10-H ) :   0.9757
B(  6-C , 11-H ) :   0.9941 B(  7-O ,  8-H ) :   0.8951

Dispersion correction           -0.000245344
FINAL SINGLE POINT ENERGY      -115.730499462344

DIPOLE MOMENT
-------------
                                X             Y             Z
Electronic contribution:     -0.12623      -0.88625      -1.50389
Nuclear contribution   :      0.18496       0.63841       2.15178
                        -----------------------------------------
Total Dipole Moment    :      0.05873      -0.24785       0.64789
                        -----------------------------------------
Magnitude (a.u.)       :      0.69616
Magnitude (Debye)      :      1.76950

Rotational constants in cm-1:     4.400309     0.812512     0.782846
Rotational constants in MHz : 131917.945058 24358.484891 23469.144097

                             ****ORCA TERMINATED NORMALLY****
TOTAL RUN TIME: 0 days 0 hours 5 minutes 28 seconds 445 msec
