                         Program Version 4.1.2  - RELEASE  -
|  1> #Run DFT-D3 single point of the dimer
|  2> ! wB97X-D3 def2-TZVP TIGHTSCF CHELPG PMODEL PAL8
|  3>
|  4> %base "21-175_DFT_AB"
|  5>
|  6> %scf
|  7> MaxIter 1000
|  8> end
|  9>
| 10> * xyz 0 1
| 11>   C                      9.472084             -11.337148           -8.910433
| 12>   O                      8.816187             -10.835881           -7.791333
| 13>   H                      8.235912             -10.104401           -8.032040
| 14>   H                      10.273137            -11.995235           -8.539505
| 15>   H                      8.851538             -11.855969           -9.677426
| 16>   H                      10.003461            -10.531981           -9.493681
| 17>   C                      9.710830             -8.422702            -5.064005
| 18>   O                      10.466402            -8.451642            -6.277999
| 19>   H                      10.223626            -9.285449            -6.710394
| 20>   H                      8.752063             -8.786221            -5.240208
| 21>   H                      10.146935            -9.046594            -4.260139
| 22>   H                      9.506341             -7.405239            -4.757363
| 23> *
| 24>
| 25> #Run DFT-D3 single point of the molecule with dimer basis set
| 26> $new_job
| 27> %base "21-175_DFT_A"
| 28> ! wB97X-D3 def2-TZVP TIGHTSCF CHELPG PMODEL
| 29>
| 30> %scf
| 31> MaxIter 1000
| 32> end
| 33>
| 34> * xyz 0 1
| 35>   C                      9.472084             -11.337148           -8.910433
| 36>   O                      8.816187             -10.835881           -7.791333
| 37>   H                      8.235912             -10.104401           -8.032040
| 38>   H                      10.273137            -11.995235           -8.539505
| 39>   H                      8.851538             -11.855969           -9.677426
| 40>   H                      10.003461            -10.531981           -9.493681
| 41>   C                    : 9.710830             -8.422702            -5.064005
| 42>   O                    : 10.466402            -8.451642            -6.277999
| 43>   H                    : 10.223626            -9.285449            -6.710394
| 44>   H                    : 8.752063             -8.786221            -5.240208
| 45>   H                    : 10.146935            -9.046594            -4.260139
| 46>   H                    : 9.506341             -7.405239            -4.757363
| 47> *
| 48>
| 49> #Run DFT-D3 single point of the particle with dimer basis set
| 50> $new_job
| 51> %base "21-175_DFT_B"
| 52> ! wB97X-D3 def2-TZVP TIGHTSCF CHELPG PMODEL
| 53>
| 54> %scf
| 55> MaxIter 1000
| 56> end
| 57>
| 58> * xyz 0 1
| 59>   C                    : 9.472084             -11.337148           -8.910433
| 60>   O                    : 8.816187             -10.835881           -7.791333
| 61>   H                    : 8.235912             -10.104401           -8.032040
| 62>   H                    : 10.273137            -11.995235           -8.539505
| 63>   H                    : 8.851538             -11.855969           -9.677426
| 64>   H                    : 10.003461            -10.531981           -9.493681
| 65>   C                      9.710830             -8.422702            -5.064005
| 66>   O                      10.466402            -8.451642            -6.277999
| 67>   H                      10.223626            -9.285449            -6.710394
| 68>   H                      8.752063             -8.786221            -5.240208
| 69>   H                      10.146935            -9.046594            -4.260139
| 70>   H                      9.506341             -7.405239            -4.757363
| 71> *
| 72>
| 73>                          ****END OF INPUT****
 Total Charge           Charge          ....    0
 Multiplicity           Mult            ....    1
 Number of Electrons    NEL             ....   36
Dispersion correction           -0.001721195
FINAL SINGLE POINT ENERGY      -231.474222739633
Dispersion correction           -0.000258096
FINAL SINGLE POINT ENERGY      -115.735527586160

CARTESIAN COORDINATES (ANGSTROEM)
---------------------------------
  C      9.472084  -11.337148   -8.910433
  O      8.816187  -10.835881   -7.791333
  H      8.235912  -10.104401   -8.032040
  H     10.273137  -11.995235   -8.539505
  H      8.851538  -11.855969   -9.677426
  H     10.003461  -10.531981   -9.493681
  C      9.710830   -8.422702   -5.064005
  O     10.466402   -8.451642   -6.277999
  H     10.223626   -9.285449   -6.710394
  H      8.752063   -8.786221   -5.240208
  H     10.146935   -9.046594   -4.260139
  H      9.506341   -7.405239   -4.757363

 Multiplicity           Mult            ....    1
 Number of Electrons    NEL             ....   18
 Basis Dimension        Dim             ....  172

ORBITAL ENERGIES
----------------

  NO   OCC          E(Eh)            E(eV)
   0   2.0000     -19.231899      -523.3266
   1   2.0000     -10.308346      -280.5044
   2   2.0000      -1.131073       -30.7781
   3   2.0000      -0.799590       -21.7579
   4   2.0000      -0.609148       -16.5758
   5   2.0000      -0.545803       -14.8521
   6   2.0000      -0.522729       -14.2242
   7   2.0000      -0.436166       -11.8687
   8   2.0000      -0.376381       -10.2419
   9   0.0000       0.069512         1.8915
  10   0.0000       0.128517         3.4971
  11   0.0000       0.153706         4.1825
  12   0.0000       0.164277         4.4702
  13   0.0000       0.192478         5.2376

MULLIKEN ATOMIC CHARGES
-----------------------
   0 C :   -0.000417
   1 O :   -0.001325
   2 H :   -0.001404
   3 H :   -0.000091
   4 H :   -0.000006
   5 H :   -0.000346
   6 C :   -0.164620
   7 O :   -0.473340
   8 H :    0.313335
   9 H :    0.109191
  10 H :    0.102176
  11 H :    0.116849
Sum of atomic charges:   -0.0000000

LOEWDIN ATOMIC CHARGES
----------------------
   0 C :   -0.002465
   1 O :   -0.006120
   2 H :   -0.001917
   3 H :   -0.000157
   4 H :   -0.000041
   5 H :   -0.000296
   6 C :   -0.369463
   7 O :   -0.086473
   8 H :    0.176329
   9 H :    0.084917
  10 H :    0.099351
  11 H :    0.106337

  Mayer bond orders larger than 0.1
B(  6-C ,  7-O ) :   0.9976 B(  6-C ,  9-H ) :   0.9820 B(  6-C , 10-H ) :   0.9758
B(  6-C , 11-H ) :   0.9731 B(  7-O ,  8-H ) :   0.9069

Dispersion correction           -0.000236671
FINAL SINGLE POINT ENERGY      -115.732265406735

DIPOLE MOMENT
-------------
                                X             Y             Z
Electronic contribution:      1.07999       0.12541      -1.47594
Nuclear contribution   :     -1.58588      -0.62851       1.68210
                        -----------------------------------------
Total Dipole Moment    :     -0.50588      -0.50310       0.20616
                        -----------------------------------------
Magnitude (a.u.)       :      0.74265
Magnitude (Debye)      :      1.88767

Rotational constants in cm-1:     4.385866     0.817261     0.792640
Rotational constants in MHz : 131484.969550 24500.880919 23762.738532

                             ****ORCA TERMINATED NORMALLY****
TOTAL RUN TIME: 0 days 0 hours 1 minutes 7 seconds 111 msec
