                         Program Version 4.1.2  - RELEASE  -
|  1> #Run DFT-D3 single point of the dimer
|  2> ! wB97X-D3 def2-TZVP TIGHTSCF CHELPG PMODEL PAL8
|  3>
|  4> %base "14-116_DFT_AB"
|  5>
|  6> %scf
|  7> MaxIter 1000
|  8> end
|  9>
| 10> * xyz 0 1
| 11>   C                      10.107105            -5.583094            0.898709
| 12>   O                      9.277626             -4.510390            1.399296
| 13>   H                      9.836118             -3.927165            1.959038
| 14>   H                      11.109694            -5.474125            1.303897
| 15>   H                      9.825191             -6.604012            1.214564
| 16>   H                      10.273370            -5.608392            -0.218637
| 17>   C                      7.484563             -7.813298            -0.080176
| 18>   O                      7.970204             -7.814618            -1.412592
| 19>   H                      7.379166             -7.968400            -2.111946
| 20>   H                      8.308965             -7.504813            0.583477
| 21>   H                      6.647479             -7.119770            0.045726
| 22>   H                      7.206635             -8.850339            0.205564
| 23> *
| 24>
| 25> #Run DFT-D3 single point of the molecule with dimer basis set
| 26> $new_job
| 27> %base "14-116_DFT_A"
| 28> ! wB97X-D3 def2-TZVP TIGHTSCF CHELPG PMODEL
| 29>
| 30> %scf
| 31> MaxIter 1000
| 32> end
| 33>
| 34> * xyz 0 1
| 35>   C                      10.107105            -5.583094            0.898709
| 36>   O                      9.277626             -4.510390            1.399296
| 37>   H                      9.836118             -3.927165            1.959038
| 38>   H                      11.109694            -5.474125            1.303897
| 39>   H                      9.825191             -6.604012            1.214564
| 40>   H                      10.273370            -5.608392            -0.218637
| 41>   C                    : 7.484563             -7.813298            -0.080176
| 42>   O                    : 7.970204             -7.814618            -1.412592
| 43>   H                    : 7.379166             -7.968400            -2.111946
| 44>   H                    : 8.308965             -7.504813            0.583477
| 45>   H                    : 6.647479             -7.119770            0.045726
| 46>   H                    : 7.206635             -8.850339            0.205564
| 47> *
| 48>
| 49> #Run DFT-D3 single point of the particle with dimer basis set
| 50> $new_job
| 51> %base "14-116_DFT_B"
| 52> ! wB97X-D3 def2-TZVP TIGHTSCF CHELPG PMODEL
| 53>
| 54> %scf
| 55> MaxIter 1000
| 56> end
| 57>
| 58> * xyz 0 1
| 59>   C                    : 10.107105            -5.583094            0.898709
| 60>   O                    : 9.277626             -4.510390            1.399296
| 61>   H                    : 9.836118             -3.927165            1.959038
| 62>   H                    : 11.109694            -5.474125            1.303897
| 63>   H                    : 9.825191             -6.604012            1.214564
| 64>   H                    : 10.273370            -5.608392            -0.218637
| 65>   C                      7.484563             -7.813298            -0.080176
| 66>   O                      7.970204             -7.814618            -1.412592
| 67>   H                      7.379166             -7.968400            -2.111946
| 68>   H                      8.308965             -7.504813            0.583477
| 69>   H                      6.647479             -7.119770            0.045726
| 70>   H                      7.206635             -8.850339            0.205564
| 71> *
| 72>
| 73>                          ****END OF INPUT****
 Total Charge           Charge          ....    0
 Multiplicity           Mult            ....    1
 Number of Electrons    NEL             ....   36
Dispersion correction           -0.001782170
FINAL SINGLE POINT ENERGY      -231.462413016054
Dispersion correction           -0.000280399
FINAL SINGLE POINT ENERGY      -115.729709643613

CARTESIAN COORDINATES (ANGSTROEM)
---------------------------------
  C     10.107105   -5.583094    0.898709
  O      9.277626   -4.510390    1.399296
  H      9.836118   -3.927165    1.959038
  H     11.109694   -5.474125    1.303897
  H      9.825191   -6.604012    1.214564
  H     10.273370   -5.608392   -0.218637
  C      7.484563   -7.813298   -0.080176
  O      7.970204   -7.814618   -1.412592
  H      7.379166   -7.968400   -2.111946
  H      8.308965   -7.504813    0.583477
  H      6.647479   -7.119770    0.045726
  H      7.206635   -8.850339    0.205564

 Multiplicity           Mult            ....    1
 Number of Electrons    NEL             ....   18
 Basis Dimension        Dim             ....  172

ORBITAL ENERGIES
----------------

  NO   OCC          E(Eh)            E(eV)
   0   2.0000     -19.220361      -523.0126
   1   2.0000     -10.318312      -280.7756
   2   2.0000      -1.132494       -30.8167
   3   2.0000      -0.801502       -21.8100
   4   2.0000      -0.612002       -16.6534
   5   2.0000      -0.542121       -14.7519
   6   2.0000      -0.528781       -14.3889
   7   2.0000      -0.419041       -11.4027
   8   2.0000      -0.372361       -10.1324
   9   0.0000       0.092996         2.5306
  10   0.0000       0.123892         3.3713
  11   0.0000       0.157022         4.2728
  12   0.0000       0.169429         4.6104
  13   0.0000       0.200815         5.4645

MULLIKEN ATOMIC CHARGES
-----------------------
   0 C :    0.000859
   1 O :    0.000080
   2 H :    0.000036
   3 H :    0.000498
   4 H :    0.003102
   5 H :   -0.001790
   6 C :   -0.137636
   7 O :   -0.498008
   8 H :    0.312853
   9 H :    0.116634
  10 H :    0.101910
  11 H :    0.101461
Sum of atomic charges:   -0.0000000

LOEWDIN ATOMIC CHARGES
----------------------
   0 C :   -0.010229
   1 O :   -0.000104
   2 H :   -0.000011
   3 H :   -0.000043
   4 H :   -0.011707
   5 H :   -0.001149
   6 C :   -0.366261
   7 O :   -0.068948
   8 H :    0.142445
   9 H :    0.122344
  10 H :    0.095526
  11 H :    0.098136

  Mayer bond orders larger than 0.1
B(  6-C ,  7-O ) :   0.9974 B(  6-C ,  9-H ) :   0.9724 B(  6-C , 10-H ) :   0.9777
B(  6-C , 11-H ) :   0.9826 B(  7-O ,  8-H ) :   0.8986

Dispersion correction           -0.000263020
FINAL SINGLE POINT ENERGY      -115.733330654194

DIPOLE MOMENT
-------------
                                X             Y             Z
Electronic contribution:      0.63020       0.05714      -1.60896
Nuclear contribution   :     -1.23098      -0.15338       1.70280
                        -----------------------------------------
Total Dipole Moment    :     -0.60077      -0.09624       0.09385
                        -----------------------------------------
Magnitude (a.u.)       :      0.61563
Magnitude (Debye)      :      1.56480

Rotational constants in cm-1:     4.381946     0.814896     0.795788
Rotational constants in MHz : 131367.422365 24429.981191 23857.129579

                             ****ORCA TERMINATED NORMALLY****
TOTAL RUN TIME: 0 days 0 hours 1 minutes 7 seconds 374 msec
