                         Program Version 4.1.2  - RELEASE  -
|  1> #Run DFT-D3 single point of the dimer
|  2> ! wB97X-D3 def2-TZVP TIGHTSCF CHELPG PMODEL PAL8
|  3>
|  4> %base "2-91_DFT_AB"
|  5>
|  6> %scf
|  7> MaxIter 1000
|  8> end
|  9>
| 10> * xyz 0 1
| 11>   C                      10.131559            -0.929883            -3.069840
| 12>   O                      8.749478             -0.835584            -3.413896
| 13>   H                      8.295501             -1.609561            -3.197512
| 14>   H                      10.881002            -1.133662            -3.916814
| 15>   H                      10.518113            -0.027949            -2.527007
| 16>   H                      10.152257            -1.698416            -2.209900
| 17>   C                      4.533409             0.137027             -4.796207
| 18>   O                      4.436586             -1.244241            -4.528768
| 19>   H                      5.310152             -1.569002            -4.367743
| 20>   H                      5.533253             0.291524             -5.098196
| 21>   H                      3.883806             0.507045             -5.598548
| 22>   H                      4.424128             0.778533             -3.962578
| 23> *
| 24>
| 25> #Run DFT-D3 single point of the molecule with dimer basis set
| 26> $new_job
| 27> %base "2-91_DFT_A"
| 28> ! wB97X-D3 def2-TZVP TIGHTSCF CHELPG PMODEL
| 29>
| 30> %scf
| 31> MaxIter 1000
| 32> end
| 33>
| 34> * xyz 0 1
| 35>   C                      10.131559            -0.929883            -3.069840
| 36>   O                      8.749478             -0.835584            -3.413896
| 37>   H                      8.295501             -1.609561            -3.197512
| 38>   H                      10.881002            -1.133662            -3.916814
| 39>   H                      10.518113            -0.027949            -2.527007
| 40>   H                      10.152257            -1.698416            -2.209900
| 41>   C                    : 4.533409             0.137027             -4.796207
| 42>   O                    : 4.436586             -1.244241            -4.528768
| 43>   H                    : 5.310152             -1.569002            -4.367743
| 44>   H                    : 5.533253             0.291524             -5.098196
| 45>   H                    : 3.883806             0.507045             -5.598548
| 46>   H                    : 4.424128             0.778533             -3.962578
| 47> *
| 48>
| 49> #Run DFT-D3 single point of the particle with dimer basis set
| 50> $new_job
| 51> %base "2-91_DFT_B"
| 52> ! wB97X-D3 def2-TZVP TIGHTSCF CHELPG PMODEL
| 53>
| 54> %scf
| 55> MaxIter 1000
| 56> end
| 57>
| 58> * xyz 0 1
| 59>   C                    : 10.131559            -0.929883            -3.069840
| 60>   O                    : 8.749478             -0.835584            -3.413896
| 61>   H                    : 8.295501             -1.609561            -3.197512
| 62>   H                    : 10.881002            -1.133662            -3.916814
| 63>   H                    : 10.518113            -0.027949            -2.527007
| 64>   H                    : 10.152257            -1.698416            -2.209900
| 65>   C                      4.533409             0.137027             -4.796207
| 66>   O                      4.436586             -1.244241            -4.528768
| 67>   H                      5.310152             -1.569002            -4.367743
| 68>   H                      5.533253             0.291524             -5.098196
| 69>   H                      3.883806             0.507045             -5.598548
| 70>   H                      4.424128             0.778533             -3.962578
| 71> *
| 72>
| 73>                          ****END OF INPUT****
 Total Charge           Charge          ....    0
 Multiplicity           Mult            ....    1
 Number of Electrons    NEL             ....   36
Dispersion correction           -0.000942066
FINAL SINGLE POINT ENERGY      -231.455005316345
Dispersion correction           -0.000278317
FINAL SINGLE POINT ENERGY      -115.724321783071

CARTESIAN COORDINATES (ANGSTROEM)
---------------------------------
  C     10.131559   -0.929883   -3.069840
  O      8.749478   -0.835584   -3.413896
  H      8.295501   -1.609561   -3.197512
  H     10.881002   -1.133662   -3.916814
  H     10.518113   -0.027949   -2.527007
  H     10.152257   -1.698416   -2.209900
  C      4.533409    0.137027   -4.796207
  O      4.436586   -1.244241   -4.528768
  H      5.310152   -1.569002   -4.367743
  H      5.533253    0.291524   -5.098196
  H      3.883806    0.507045   -5.598548
  H      4.424128    0.778533   -3.962578

 Multiplicity           Mult            ....    1
 Number of Electrons    NEL             ....   18
 Basis Dimension        Dim             ....  172

ORBITAL ENERGIES
----------------

  NO   OCC          E(Eh)            E(eV)
   0   2.0000     -19.227876      -523.2171
   1   2.0000     -10.305257      -280.4203
   2   2.0000      -1.140321       -31.0297
   3   2.0000      -0.802493       -21.8369
   4   2.0000      -0.617720       -16.8090
   5   2.0000      -0.542987       -14.7754
   6   2.0000      -0.535794       -14.5797
   7   2.0000      -0.429996       -11.7008
   8   2.0000      -0.375012       -10.2046
   9   0.0000       0.074697         2.0326
  10   0.0000       0.109072         2.9680
  11   0.0000       0.153295         4.1714
  12   0.0000       0.178851         4.8668
  13   0.0000       0.189640         5.1604

MULLIKEN ATOMIC CHARGES
-----------------------
   0 C :    0.000021
   1 O :    0.000007
   2 H :   -0.000412
   3 H :   -0.000000
   4 H :    0.000000
   5 H :    0.000001
   6 C :   -0.158702
   7 O :   -0.473334
   8 H :    0.315881
   9 H :    0.097834
  10 H :    0.115330
  11 H :    0.103374
Sum of atomic charges:    0.0000000

LOEWDIN ATOMIC CHARGES
----------------------
   0 C :   -0.000011
   1 O :   -0.000135
   2 H :   -0.000492
   3 H :   -0.000000
   4 H :   -0.000001
   5 H :   -0.000001
   6 C :   -0.378272
   7 O :   -0.068068
   8 H :    0.161600
   9 H :    0.090721
  10 H :    0.106578
  11 H :    0.088082

  Mayer bond orders larger than 0.1
B(  6-C ,  7-O ) :   1.0072 B(  6-C ,  9-H ) :   0.9998 B(  6-C , 10-H ) :   0.9744
B(  6-C , 11-H ) :   0.9695 B(  7-O ,  8-H ) :   0.9035

Dispersion correction           -0.000231859
FINAL SINGLE POINT ENERGY      -115.729884222584

DIPOLE MOMENT
-------------
                                X             Y             Z
Electronic contribution:     -0.37641      -1.78105       0.35777
Nuclear contribution   :      1.01487       2.13534      -0.36983
                        -----------------------------------------
Total Dipole Moment    :      0.63846       0.35429      -0.01206
                        -----------------------------------------
Magnitude (a.u.)       :      0.73028
Magnitude (Debye)      :      1.85621

Rotational constants in cm-1:     4.578995     0.836509     0.805227
Rotational constants in MHz : 137274.821574 25077.916845 24140.090300

                             ****ORCA TERMINATED NORMALLY****
TOTAL RUN TIME: 0 days 0 hours 6 minutes 24 seconds 73 msec
