                         Program Version 4.1.2  - RELEASE  -
|  1> #Run DFT-D3 single point of the dimer
|  2> ! wB97X-D3 def2-TZVP TIGHTSCF CHELPG PMODEL PAL8
|  3>
|  4> %base "5-53_DFT_AB"
|  5>
|  6> %scf
|  7> MaxIter 1000
|  8> end
|  9>
| 10> * xyz 0 1
| 11>   C                      -6.273322            -9.533329            -8.368384
| 12>   O                      -7.523562            -10.051300           -8.014050
| 13>   H                      -8.078851            -9.952586            -8.778788
| 14>   H                      -5.871098            -8.781854            -7.648397
| 15>   H                      -5.513111            -10.350072           -8.413968
| 16>   H                      -6.238926            -9.095729            -9.396470
| 17>   C                      -10.431865           -7.477750            -6.751600
| 18>   O                      -9.758328            -8.725350            -6.439824
| 19>   H                      -9.338538            -9.047118            -7.218534
| 20>   H                      -11.368914           -7.722481            -7.383089
| 21>   H                      -10.707634           -6.859162            -5.857968
| 22>   H                      -9.774949            -6.808374            -7.376511
| 23> *
| 24>
| 25> #Run DFT-D3 single point of the molecule with dimer basis set
| 26> $new_job
| 27> %base "5-53_DFT_A"
| 28> ! wB97X-D3 def2-TZVP TIGHTSCF CHELPG PMODEL
| 29>
| 30> %scf
| 31> MaxIter 1000
| 32> end
| 33>
| 34> * xyz 0 1
| 35>   C                      -6.273322            -9.533329            -8.368384
| 36>   O                      -7.523562            -10.051300           -8.014050
| 37>   H                      -8.078851            -9.952586            -8.778788
| 38>   H                      -5.871098            -8.781854            -7.648397
| 39>   H                      -5.513111            -10.350072           -8.413968
| 40>   H                      -6.238926            -9.095729            -9.396470
| 41>   C                    : -10.431865           -7.477750            -6.751600
| 42>   O                    : -9.758328            -8.725350            -6.439824
| 43>   H                    : -9.338538            -9.047118            -7.218534
| 44>   H                    : -11.368914           -7.722481            -7.383089
| 45>   H                    : -10.707634           -6.859162            -5.857968
| 46>   H                    : -9.774949            -6.808374            -7.376511
| 47> *
| 48>
| 49> #Run DFT-D3 single point of the particle with dimer basis set
| 50> $new_job
| 51> %base "5-53_DFT_B"
| 52> ! wB97X-D3 def2-TZVP TIGHTSCF CHELPG PMODEL
| 53>
| 54> %scf
| 55> MaxIter 1000
| 56> end
| 57>
| 58> * xyz 0 1
| 59>   C                    : -6.273322            -9.533329            -8.368384
| 60>   O                    : -7.523562            -10.051300           -8.014050
| 61>   H                    : -8.078851            -9.952586            -8.778788
| 62>   H                    : -5.871098            -8.781854            -7.648397
| 63>   H                    : -5.513111            -10.350072           -8.413968
| 64>   H                    : -6.238926            -9.095729            -9.396470
| 65>   C                      -10.431865           -7.477750            -6.751600
| 66>   O                      -9.758328            -8.725350            -6.439824
| 67>   H                      -9.338538            -9.047118            -7.218534
| 68>   H                      -11.368914           -7.722481            -7.383089
| 69>   H                      -10.707634           -6.859162            -5.857968
| 70>   H                      -9.774949            -6.808374            -7.376511
| 71> *
| 72>
| 73>                          ****END OF INPUT****
 Total Charge           Charge          ....    0
 Multiplicity           Mult            ....    1
 Number of Electrons    NEL             ....   36
Dispersion correction           -0.001483111
FINAL SINGLE POINT ENERGY      -231.465667294464
Dispersion correction           -0.000255993
FINAL SINGLE POINT ENERGY      -115.733999717740

CARTESIAN COORDINATES (ANGSTROEM)
---------------------------------
  C     -6.273322   -9.533329   -8.368384
  O     -7.523562  -10.051300   -8.014050
  H     -8.078851   -9.952586   -8.778788
  H     -5.871098   -8.781854   -7.648397
  H     -5.513111  -10.350072   -8.413968
  H     -6.238926   -9.095729   -9.396470
  C    -10.431865   -7.477750   -6.751600
  O     -9.758328   -8.725350   -6.439824
  H     -9.338538   -9.047118   -7.218534
  H    -11.368914   -7.722481   -7.383089
  H    -10.707634   -6.859162   -5.857968
  H     -9.774949   -6.808374   -7.376511

 Multiplicity           Mult            ....    1
 Number of Electrons    NEL             ....   18
 Basis Dimension        Dim             ....  172

ORBITAL ENERGIES
----------------

  NO   OCC          E(Eh)            E(eV)
   0   2.0000     -19.229981      -523.2744
   1   2.0000     -10.331323      -281.1296
   2   2.0000      -1.129614       -30.7383
   3   2.0000      -0.790339       -21.5062
   4   2.0000      -0.604331       -16.4447
   5   2.0000      -0.533772       -14.5247
   6   2.0000      -0.522021       -14.2049
   7   2.0000      -0.432767       -11.7762
   8   2.0000      -0.374022       -10.1776
   9   0.0000       0.073944         2.0121
  10   0.0000       0.126523         3.4429
  11   0.0000       0.143630         3.9084
  12   0.0000       0.177457         4.8288
  13   0.0000       0.187264         5.0957

MULLIKEN ATOMIC CHARGES
-----------------------
   0 C :   -0.001668
   1 O :   -0.000453
   2 H :   -0.001036
   3 H :   -0.000091
   4 H :   -0.000053
   5 H :    0.000102
   6 C :   -0.181649
   7 O :   -0.472613
   8 H :    0.312021
   9 H :    0.108583
  10 H :    0.130495
  11 H :    0.106362
Sum of atomic charges:    0.0000000

LOEWDIN ATOMIC CHARGES
----------------------
   0 C :   -0.001663
   1 O :   -0.008695
   2 H :   -0.003367
   3 H :   -0.000214
   4 H :   -0.000044
   5 H :   -0.000013
   6 C :   -0.371345
   7 O :   -0.090157
   8 H :    0.157003
   9 H :    0.106073
  10 H :    0.113337
  11 H :    0.099085

  Mayer bond orders larger than 0.1
B(  6-C ,  7-O ) :   0.9866 B(  6-C ,  9-H ) :   0.9762 B(  6-C , 10-H ) :   0.9670
B(  6-C , 11-H ) :   0.9729 B(  7-O ,  8-H ) :   0.9051

Dispersion correction           -0.000273224
FINAL SINGLE POINT ENERGY      -115.730732441262

DIPOLE MOMENT
-------------
                                X             Y             Z
Electronic contribution:      0.82014      -1.56992       0.65048
Nuclear contribution   :     -0.81657       1.89724      -1.26196
                        -----------------------------------------
Total Dipole Moment    :      0.00357       0.32731      -0.61148
                        -----------------------------------------
Magnitude (a.u.)       :      0.69358
Magnitude (Debye)      :      1.76293

Rotational constants in cm-1:     4.107829     0.783608     0.761375
Rotational constants in MHz : 123149.610267 23491.965769 22825.436815

                             ****ORCA TERMINATED NORMALLY****
TOTAL RUN TIME: 0 days 0 hours 0 minutes 52 seconds 985 msec
