                         Program Version 4.1.2  - RELEASE  -
|  1> #Run DFT-D3 single point of the dimer
|  2> ! wB97X-D3 def2-TZVP TIGHTSCF CHELPG PMODEL PAL8
|  3>
|  4> %base "6-35_DFT_AB"
|  5>
|  6> %scf
|  7> MaxIter 1000
|  8> end
|  9>
| 10> * xyz 0 1
| 11>   C                      5.317093             -1.389465            9.829214
| 12>   O                      4.191214             -1.778297            9.136215
| 13>   H                      3.445085             -1.583899            9.711773
| 14>   H                      5.210921             -0.435185            10.318451
| 15>   H                      5.554928             -2.009631            10.720505
| 16>   H                      6.232359             -1.237325            9.223944
| 17>   C                      5.345835             -5.496980            10.131205
| 18>   O                      4.489622             -6.041958            9.117409
| 19>   H                      5.107373             -5.994451            8.335632
| 20>   H                      6.241814             -6.084614            10.236029
| 21>   H                      5.692882             -4.544201            9.687126
| 22>   H                      4.908284             -5.200487            11.125695
| 23> *
| 24>
| 25> #Run DFT-D3 single point of the molecule with dimer basis set
| 26> $new_job
| 27> %base "6-35_DFT_A"
| 28> ! wB97X-D3 def2-TZVP TIGHTSCF CHELPG PMODEL
| 29>
| 30> %scf
| 31> MaxIter 1000
| 32> end
| 33>
| 34> * xyz 0 1
| 35>   C                      5.317093             -1.389465            9.829214
| 36>   O                      4.191214             -1.778297            9.136215
| 37>   H                      3.445085             -1.583899            9.711773
| 38>   H                      5.210921             -0.435185            10.318451
| 39>   H                      5.554928             -2.009631            10.720505
| 40>   H                      6.232359             -1.237325            9.223944
| 41>   C                    : 5.345835             -5.496980            10.131205
| 42>   O                    : 4.489622             -6.041958            9.117409
| 43>   H                    : 5.107373             -5.994451            8.335632
| 44>   H                    : 6.241814             -6.084614            10.236029
| 45>   H                    : 5.692882             -4.544201            9.687126
| 46>   H                    : 4.908284             -5.200487            11.125695
| 47> *
| 48>
| 49> #Run DFT-D3 single point of the particle with dimer basis set
| 50> $new_job
| 51> %base "6-35_DFT_B"
| 52> ! wB97X-D3 def2-TZVP TIGHTSCF CHELPG PMODEL
| 53>
| 54> %scf
| 55> MaxIter 1000
| 56> end
| 57>
| 58> * xyz 0 1
| 59>   C                    : 5.317093             -1.389465            9.829214
| 60>   O                    : 4.191214             -1.778297            9.136215
| 61>   H                    : 3.445085             -1.583899            9.711773
| 62>   H                    : 5.210921             -0.435185            10.318451
| 63>   H                    : 5.554928             -2.009631            10.720505
| 64>   H                    : 6.232359             -1.237325            9.223944
| 65>   C                      5.345835             -5.496980            10.131205
| 66>   O                      4.489622             -6.041958            9.117409
| 67>   H                      5.107373             -5.994451            8.335632
| 68>   H                      6.241814             -6.084614            10.236029
| 69>   H                      5.692882             -4.544201            9.687126
| 70>   H                      4.908284             -5.200487            11.125695
| 71> *
| 72>
| 73>                          ****END OF INPUT****
 Total Charge           Charge          ....    0
 Multiplicity           Mult            ....    1
 Number of Electrons    NEL             ....   36
Dispersion correction           -0.001473832
FINAL SINGLE POINT ENERGY      -231.457222861496
Dispersion correction           -0.000234213
FINAL SINGLE POINT ENERGY      -115.731165034259

CARTESIAN COORDINATES (ANGSTROEM)
---------------------------------
  C      5.317093   -1.389465    9.829214
  O      4.191214   -1.778297    9.136215
  H      3.445085   -1.583899    9.711773
  H      5.210921   -0.435185   10.318451
  H      5.554928   -2.009631   10.720505
  H      6.232359   -1.237325    9.223944
  C      5.345835   -5.496980   10.131205
  O      4.489622   -6.041958    9.117409
  H      5.107373   -5.994451    8.335632
  H      6.241814   -6.084614   10.236029
  H      5.692882   -4.544201    9.687126
  H      4.908284   -5.200487   11.125695

 Multiplicity           Mult            ....    1
 Number of Electrons    NEL             ....   18
 Basis Dimension        Dim             ....  172

ORBITAL ENERGIES
----------------

  NO   OCC          E(Eh)            E(eV)
   0   2.0000     -19.235108      -523.4139
   1   2.0000     -10.318609      -280.7836
   2   2.0000      -1.129444       -30.7337
   3   2.0000      -0.788021       -21.4431
   4   2.0000      -0.601551       -16.3690
   5   2.0000      -0.540843       -14.7171
   6   2.0000      -0.527152       -14.3445
   7   2.0000      -0.437659       -11.9093
   8   2.0000      -0.369910       -10.0658
   9   0.0000       0.081733         2.2241
  10   0.0000       0.111425         3.0320
  11   0.0000       0.150114         4.0848
  12   0.0000       0.161163         4.3855
  13   0.0000       0.184858         5.0302

MULLIKEN ATOMIC CHARGES
-----------------------
   0 C :    0.003021
   1 O :    0.000040
   2 H :   -0.000043
   3 H :   -0.000178
   4 H :   -0.002850
   5 H :   -0.000585
   6 C :   -0.182078
   7 O :   -0.465680
   8 H :    0.318624
   9 H :    0.110872
  10 H :    0.094565
  11 H :    0.124291
Sum of atomic charges:   -0.0000000

LOEWDIN ATOMIC CHARGES
----------------------
   0 C :   -0.004409
   1 O :   -0.000267
   2 H :   -0.000043
   3 H :   -0.000051
   4 H :   -0.002023
   5 H :   -0.000238
   6 C :   -0.384521
   7 O :   -0.109990
   8 H :    0.195884
   9 H :    0.090443
  10 H :    0.099752
  11 H :    0.115463

  Mayer bond orders larger than 0.1
B(  6-C ,  7-O ) :   0.9854 B(  6-C ,  9-H ) :   0.9708 B(  6-C , 10-H ) :   0.9954
B(  6-C , 11-H ) :   0.9673 B(  7-O ,  8-H ) :   0.8953

Dispersion correction           -0.000221205
FINAL SINGLE POINT ENERGY      -115.725146994513

DIPOLE MOMENT
-------------
                                X             Y             Z
Electronic contribution:     -1.34721      -0.89191      -1.02973
Nuclear contribution   :      2.06277       1.15169       0.95744
                        -----------------------------------------
Total Dipole Moment    :      0.71556       0.25978      -0.07230
                        -----------------------------------------
Magnitude (a.u.)       :      0.76468
Magnitude (Debye)      :      1.94366

Rotational constants in cm-1:     4.174695     0.819778     0.781510
Rotational constants in MHz : 125154.213110 24576.324102 23429.094092

                             ****ORCA TERMINATED NORMALLY****
TOTAL RUN TIME: 0 days 0 hours 0 minutes 59 seconds 123 msec
