                         Program Version 4.1.2  - RELEASE  -
|  1> #Run DFT-D3 single point of the dimer
|  2> ! wB97X-D3 def2-TZVP TIGHTSCF CHELPG PMODEL PAL8
|  3>
|  4> %base "6-66_DFT_AB"
|  5>
|  6> %scf
|  7> MaxIter 1000
|  8> end
|  9>
| 10> * xyz 0 1
| 11>   C                      -6.106169            -7.139025            5.478536
| 12>   O                      -7.250673            -6.358448            5.904261
| 13>   H                      -7.580413            -5.854131            5.158850
| 14>   H                      -5.225424            -6.537199            5.228452
| 15>   H                      -5.853161            -7.888103            6.266709
| 16>   H                      -6.381485            -7.683977            4.536477
| 17>   C                      -2.190822            -7.947502            7.529450
| 18>   O                      -3.066713            -7.196894            6.720029
| 19>   H                      -2.716396            -6.362280            6.432907
| 20>   H                      -1.179943            -8.022056            7.071990
| 21>   H                      -2.105679            -7.578783            8.607140
| 22>   H                      -2.475948            -8.926809            7.712486
| 23> *
| 24>
| 25> #Run DFT-D3 single point of the molecule with dimer basis set
| 26> $new_job
| 27> %base "6-66_DFT_A"
| 28> ! wB97X-D3 def2-TZVP TIGHTSCF CHELPG PMODEL
| 29>
| 30> %scf
| 31> MaxIter 1000
| 32> end
| 33>
| 34> * xyz 0 1
| 35>   C                      -6.106169            -7.139025            5.478536
| 36>   O                      -7.250673            -6.358448            5.904261
| 37>   H                      -7.580413            -5.854131            5.158850
| 38>   H                      -5.225424            -6.537199            5.228452
| 39>   H                      -5.853161            -7.888103            6.266709
| 40>   H                      -6.381485            -7.683977            4.536477
| 41>   C                    : -2.190822            -7.947502            7.529450
| 42>   O                    : -3.066713            -7.196894            6.720029
| 43>   H                    : -2.716396            -6.362280            6.432907
| 44>   H                    : -1.179943            -8.022056            7.071990
| 45>   H                    : -2.105679            -7.578783            8.607140
| 46>   H                    : -2.475948            -8.926809            7.712486
| 47> *
| 48>
| 49> #Run DFT-D3 single point of the particle with dimer basis set
| 50> $new_job
| 51> %base "6-66_DFT_B"
| 52> ! wB97X-D3 def2-TZVP TIGHTSCF CHELPG PMODEL
| 53>
| 54> %scf
| 55> MaxIter 1000
| 56> end
| 57>
| 58> * xyz 0 1
| 59>   C                    : -6.106169            -7.139025            5.478536
| 60>   O                    : -7.250673            -6.358448            5.904261
| 61>   H                    : -7.580413            -5.854131            5.158850
| 62>   H                    : -5.225424            -6.537199            5.228452
| 63>   H                    : -5.853161            -7.888103            6.266709
| 64>   H                    : -6.381485            -7.683977            4.536477
| 65>   C                      -2.190822            -7.947502            7.529450
| 66>   O                      -3.066713            -7.196894            6.720029
| 67>   H                      -2.716396            -6.362280            6.432907
| 68>   H                      -1.179943            -8.022056            7.071990
| 69>   H                      -2.105679            -7.578783            8.607140
| 70>   H                      -2.475948            -8.926809            7.712486
| 71> *
| 72>
| 73>                          ****END OF INPUT****
 Total Charge           Charge          ....    0
 Multiplicity           Mult            ....    1
 Number of Electrons    NEL             ....   36
Dispersion correction           -0.001521206
FINAL SINGLE POINT ENERGY      -231.464876173480
Dispersion correction           -0.000261243
FINAL SINGLE POINT ENERGY      -115.734744397597

CARTESIAN COORDINATES (ANGSTROEM)
---------------------------------
  C     -6.106169   -7.139025    5.478536
  O     -7.250673   -6.358448    5.904261
  H     -7.580413   -5.854131    5.158850
  H     -5.225424   -6.537199    5.228452
  H     -5.853161   -7.888103    6.266709
  H     -6.381485   -7.683977    4.536477
  C     -2.190822   -7.947502    7.529450
  O     -3.066713   -7.196894    6.720029
  H     -2.716396   -6.362280    6.432907
  H     -1.179943   -8.022056    7.071990
  H     -2.105679   -7.578783    8.607140
  H     -2.475948   -8.926809    7.712486

 Multiplicity           Mult            ....    1
 Number of Electrons    NEL             ....   18
 Basis Dimension        Dim             ....  172

ORBITAL ENERGIES
----------------

  NO   OCC          E(Eh)            E(eV)
   0   2.0000     -19.231489      -523.3154
   1   2.0000     -10.314694      -280.6771
   2   2.0000      -1.137274       -30.9468
   3   2.0000      -0.803465       -21.8634
   4   2.0000      -0.614794       -16.7294
   5   2.0000      -0.543299       -14.7839
   6   2.0000      -0.530623       -14.4390
   7   2.0000      -0.424080       -11.5398
   8   2.0000      -0.374428       -10.1887
   9   0.0000       0.098298         2.6748
  10   0.0000       0.122858         3.3431
  11   0.0000       0.148530         4.0417
  12   0.0000       0.180246         4.9047
  13   0.0000       0.201691         5.4883

MULLIKEN ATOMIC CHARGES
-----------------------
   0 C :    0.004448
   1 O :   -0.000022
   2 H :   -0.000010
   3 H :   -0.006360
   4 H :   -0.004487
   5 H :   -0.000672
   6 C :   -0.160799
   7 O :   -0.473036
   8 H :    0.321237
   9 H :    0.100139
  10 H :    0.091870
  11 H :    0.127692
Sum of atomic charges:    0.0000000

LOEWDIN ATOMIC CHARGES
----------------------
   0 C :   -0.011821
   1 O :   -0.000035
   2 H :   -0.000015
   3 H :   -0.005665
   4 H :   -0.003779
   5 H :   -0.000123
   6 C :   -0.389019
   7 O :   -0.050144
   8 H :    0.164345
   9 H :    0.100076
  10 H :    0.102357
  11 H :    0.093823

  Mayer bond orders larger than 0.1
B(  6-C ,  7-O ) :   1.0033 B(  6-C ,  9-H ) :   0.9786 B(  6-C , 10-H ) :   0.9721
B(  6-C , 11-H ) :   0.9729 B(  7-O ,  8-H ) :   0.8914

Dispersion correction           -0.000273125
FINAL SINGLE POINT ENERGY      -115.729383599073

DIPOLE MOMENT
-------------
                                X             Y             Z
Electronic contribution:     -1.28697       0.86880      -1.14185
Nuclear contribution   :      1.86860      -0.66316       1.27029
                        -----------------------------------------
Total Dipole Moment    :      0.58163       0.20564       0.12844
                        -----------------------------------------
Magnitude (a.u.)       :      0.63014
Magnitude (Debye)      :      1.60169

Rotational constants in cm-1:     4.529418     0.810494     0.794011
Rotational constants in MHz : 135788.543581 24298.003303 23803.851467

                             ****ORCA TERMINATED NORMALLY****
TOTAL RUN TIME: 0 days 0 hours 1 minutes 5 seconds 921 msec
