                         Program Version 4.1.2  - RELEASE  -
|  1> #Run DFT-D3 single point of the dimer
|  2> ! wB97X-D3 def2-TZVP TIGHTSCF CHELPG PMODEL PAL8
|  3>
|  4> %base "14-109_DFT_AB"
|  5>
|  6> %scf
|  7> MaxIter 1000
|  8> end
|  9>
| 10> * xyz 0 1
| 11>   C                      -7.605909            2.443021             -5.622041
| 12>   O                      -8.394434            3.474753             -5.066151
| 13>   H                      -8.746984            3.268596             -4.163043
| 14>   H                      -6.908455            2.024404             -4.832031
| 15>   H                      -8.242513            1.688588             -6.000919
| 16>   H                      -7.027775            2.828739             -6.512241
| 17>   C                      -5.012732            4.651737             -4.015420
| 18>   O                      -5.313746            6.068341             -3.824211
| 19>   H                      -5.792739            6.296180             -4.612807
| 20>   H                      -4.509524            4.441952             -4.946995
| 21>   H                      -4.294382            4.316787             -3.213413
| 22>   H                      -5.939629            4.108769             -3.953471
| 23> *
| 24>
| 25> #Run DFT-D3 single point of the molecule with dimer basis set
| 26> $new_job
| 27> %base "14-109_DFT_A"
| 28> ! wB97X-D3 def2-TZVP TIGHTSCF CHELPG PMODEL
| 29>
| 30> %scf
| 31> MaxIter 1000
| 32> end
| 33>
| 34> * xyz 0 1
| 35>   C                      -7.605909            2.443021             -5.622041
| 36>   O                      -8.394434            3.474753             -5.066151
| 37>   H                      -8.746984            3.268596             -4.163043
| 38>   H                      -6.908455            2.024404             -4.832031
| 39>   H                      -8.242513            1.688588             -6.000919
| 40>   H                      -7.027775            2.828739             -6.512241
| 41>   C                    : -5.012732            4.651737             -4.015420
| 42>   O                    : -5.313746            6.068341             -3.824211
| 43>   H                    : -5.792739            6.296180             -4.612807
| 44>   H                    : -4.509524            4.441952             -4.946995
| 45>   H                    : -4.294382            4.316787             -3.213413
| 46>   H                    : -5.939629            4.108769             -3.953471
| 47> *
| 48>
| 49> #Run DFT-D3 single point of the particle with dimer basis set
| 50> $new_job
| 51> %base "14-109_DFT_B"
| 52> ! wB97X-D3 def2-TZVP TIGHTSCF CHELPG PMODEL
| 53>
| 54> %scf
| 55> MaxIter 1000
| 56> end
| 57>
| 58> * xyz 0 1
| 59>   C                    : -7.605909            2.443021             -5.622041
| 60>   O                    : -8.394434            3.474753             -5.066151
| 61>   H                    : -8.746984            3.268596             -4.163043
| 62>   H                    : -6.908455            2.024404             -4.832031
| 63>   H                    : -8.242513            1.688588             -6.000919
| 64>   H                    : -7.027775            2.828739             -6.512241
| 65>   C                      -5.012732            4.651737             -4.015420
| 66>   O                      -5.313746            6.068341             -3.824211
| 67>   H                      -5.792739            6.296180             -4.612807
| 68>   H                      -4.509524            4.441952             -4.946995
| 69>   H                      -4.294382            4.316787             -3.213413
| 70>   H                      -5.939629            4.108769             -3.953471
| 71> *
| 72>
| 73>                          ****END OF INPUT****
 Total Charge           Charge          ....    0
 Multiplicity           Mult            ....    1
 Number of Electrons    NEL             ....   36
Dispersion correction           -0.001827226
FINAL SINGLE POINT ENERGY      -231.467761017314
Dispersion correction           -0.000251405
FINAL SINGLE POINT ENERGY      -115.731814684692

CARTESIAN COORDINATES (ANGSTROEM)
---------------------------------
  C     -7.605909    2.443021   -5.622041
  O     -8.394434    3.474753   -5.066151
  H     -8.746984    3.268596   -4.163043
  H     -6.908455    2.024404   -4.832031
  H     -8.242513    1.688588   -6.000919
  H     -7.027775    2.828739   -6.512241
  C     -5.012732    4.651737   -4.015420
  O     -5.313746    6.068341   -3.824211
  H     -5.792739    6.296180   -4.612807
  H     -4.509524    4.441952   -4.946995
  H     -4.294382    4.316787   -3.213413
  H     -5.939629    4.108769   -3.953471

 Multiplicity           Mult            ....    1
 Number of Electrons    NEL             ....   18
 Basis Dimension        Dim             ....  172

ORBITAL ENERGIES
----------------

  NO   OCC          E(Eh)            E(eV)
   0   2.0000     -19.229344      -523.2570
   1   2.0000     -10.316868      -280.7362
   2   2.0000      -1.126971       -30.6664
   3   2.0000      -0.795556       -21.6482
   4   2.0000      -0.601585       -16.3700
   5   2.0000      -0.546640       -14.8748
   6   2.0000      -0.514525       -14.0009
   7   2.0000      -0.440423       -11.9845
   8   2.0000      -0.376876       -10.2553
   9   0.0000       0.078796         2.1441
  10   0.0000       0.120364         3.2753
  11   0.0000       0.147753         4.0206
  12   0.0000       0.161003         4.3811
  13   0.0000       0.191354         5.2070

MULLIKEN ATOMIC CHARGES
-----------------------
   0 C :   -0.001949
   1 O :    0.000744
   2 H :    0.000047
   3 H :   -0.001069
   4 H :   -0.000306
   5 H :    0.000075
   6 C :   -0.180320
   7 O :   -0.472402
   8 H :    0.308934
   9 H :    0.112222
  10 H :    0.121014
  11 H :    0.113010
Sum of atomic charges:    0.0000000

LOEWDIN ATOMIC CHARGES
----------------------
   0 C :   -0.007813
   1 O :   -0.001483
   2 H :   -0.000539
   3 H :   -0.003176
   4 H :   -0.000087
   5 H :   -0.000508
   6 C :   -0.350297
   7 O :   -0.104367
   8 H :    0.159155
   9 H :    0.094025
  10 H :    0.116843
  11 H :    0.098247

  Mayer bond orders larger than 0.1
B(  6-C ,  7-O ) :   0.9904 B(  6-C ,  9-H ) :   0.9722 B(  6-C , 10-H ) :   0.9702
B(  6-C , 11-H ) :   0.9797 B(  7-O ,  8-H ) :   0.9069

Dispersion correction           -0.000240838
FINAL SINGLE POINT ENERGY      -115.733753885190

DIPOLE MOMENT
-------------
                                X             Y             Z
Electronic contribution:     -0.32960       1.73913       0.32637
Nuclear contribution   :      0.16399      -2.18757      -0.90194
                        -----------------------------------------
Total Dipole Moment    :     -0.16562      -0.44844      -0.57557
                        -----------------------------------------
Magnitude (a.u.)       :      0.74820
Magnitude (Debye)      :      1.90178

Rotational constants in cm-1:     4.235314     0.795776     0.766998
Rotational constants in MHz : 126971.514534 23856.767306 22994.009781

                             ****ORCA TERMINATED NORMALLY****
TOTAL RUN TIME: 0 days 0 hours 0 minutes 56 seconds 750 msec
