                         Program Version 4.1.2  - RELEASE  -
|  1> #Run DFT-D3 single point of the dimer
|  2> ! wB97X-D3 def2-TZVP TIGHTSCF CHELPG PMODEL PAL8
|  3>
|  4> %base "15-136_DFT_AB"
|  5>
|  6> %scf
|  7> MaxIter 1000
|  8> end
|  9>
| 10> * xyz 0 1
| 11>   C                      0.539348             -7.166168            0.517284
| 12>   O                      0.719637             -6.836601            -0.852378
| 13>   H                      -0.086676            -6.402254            -1.195676
| 14>   H                      1.415332             -7.554984            1.038854
| 15>   H                      0.234247             -6.288057            1.056190
| 16>   H                      -0.304731            -7.862906            0.678743
| 17>   C                      -0.016333            -2.488242            -0.118915
| 18>   O                      1.397039             -2.664913            -0.010818
| 19>   H                      1.520192             -3.372147            0.554595
| 20>   H                      -0.521164            -3.413662            -0.468075
| 21>   H                      -0.463068            -2.346561            0.852921
| 22>   H                      -0.441045            -1.658200            -0.760794
| 23> *
| 24>
| 25> #Run DFT-D3 single point of the molecule with dimer basis set
| 26> $new_job
| 27> %base "15-136_DFT_A"
| 28> ! wB97X-D3 def2-TZVP TIGHTSCF CHELPG PMODEL
| 29>
| 30> %scf
| 31> MaxIter 1000
| 32> end
| 33>
| 34> * xyz 0 1
| 35>   C                      0.539348             -7.166168            0.517284
| 36>   O                      0.719637             -6.836601            -0.852378
| 37>   H                      -0.086676            -6.402254            -1.195676
| 38>   H                      1.415332             -7.554984            1.038854
| 39>   H                      0.234247             -6.288057            1.056190
| 40>   H                      -0.304731            -7.862906            0.678743
| 41>   C                    : -0.016333            -2.488242            -0.118915
| 42>   O                    : 1.397039             -2.664913            -0.010818
| 43>   H                    : 1.520192             -3.372147            0.554595
| 44>   H                    : -0.521164            -3.413662            -0.468075
| 45>   H                    : -0.463068            -2.346561            0.852921
| 46>   H                    : -0.441045            -1.658200            -0.760794
| 47> *
| 48>
| 49> #Run DFT-D3 single point of the particle with dimer basis set
| 50> $new_job
| 51> %base "15-136_DFT_B"
| 52> ! wB97X-D3 def2-TZVP TIGHTSCF CHELPG PMODEL
| 53>
| 54> %scf
| 55> MaxIter 1000
| 56> end
| 57>
| 58> * xyz 0 1
| 59>   C                    : 0.539348             -7.166168            0.517284
| 60>   O                    : 0.719637             -6.836601            -0.852378
| 61>   H                    : -0.086676            -6.402254            -1.195676
| 62>   H                    : 1.415332             -7.554984            1.038854
| 63>   H                    : 0.234247             -6.288057            1.056190
| 64>   H                    : -0.304731            -7.862906            0.678743
| 65>   C                      -0.016333            -2.488242            -0.118915
| 66>   O                      1.397039             -2.664913            -0.010818
| 67>   H                      1.520192             -3.372147            0.554595
| 68>   H                      -0.521164            -3.413662            -0.468075
| 69>   H                      -0.463068            -2.346561            0.852921
| 70>   H                      -0.441045            -1.658200            -0.760794
| 71> *
| 72>
| 73>                          ****END OF INPUT****
 Total Charge           Charge          ....    0
 Multiplicity           Mult            ....    1
 Number of Electrons    NEL             ....   36
Dispersion correction           -0.001351119
FINAL SINGLE POINT ENERGY      -231.461167459365
Dispersion correction           -0.000245592
FINAL SINGLE POINT ENERGY      -115.733165003802

CARTESIAN COORDINATES (ANGSTROEM)
---------------------------------
  C      0.539348   -7.166168    0.517284
  O      0.719637   -6.836601   -0.852378
  H     -0.086676   -6.402254   -1.195676
  H      1.415332   -7.554984    1.038854
  H      0.234247   -6.288057    1.056190
  H     -0.304731   -7.862906    0.678743
  C     -0.016333   -2.488242   -0.118915
  O      1.397039   -2.664913   -0.010818
  H      1.520192   -3.372147    0.554595
  H     -0.521164   -3.413662   -0.468075
  H     -0.463068   -2.346561    0.852921
  H     -0.441045   -1.658200   -0.760794

 Multiplicity           Mult            ....    1
 Number of Electrons    NEL             ....   18
 Basis Dimension        Dim             ....  172

ORBITAL ENERGIES
----------------

  NO   OCC          E(Eh)            E(eV)
   0   2.0000     -19.229912      -523.2725
   1   2.0000     -10.319974      -280.8208
   2   2.0000      -1.145018       -31.1575
   3   2.0000      -0.798712       -21.7341
   4   2.0000      -0.617574       -16.8050
   5   2.0000      -0.533692       -14.5225
   6   2.0000      -0.530248       -14.4288
   7   2.0000      -0.437322       -11.9001
   8   2.0000      -0.374616       -10.1938
   9   0.0000       0.073382         1.9968
  10   0.0000       0.128640         3.5005
  11   0.0000       0.143713         3.9106
  12   0.0000       0.158602         4.3158
  13   0.0000       0.193053         5.2532

MULLIKEN ATOMIC CHARGES
-----------------------
   0 C :   -0.000566
   1 O :    0.000127
   2 H :    0.000099
   3 H :    0.000049
   4 H :   -0.000034
   5 H :    0.000015
   6 C :   -0.187592
   7 O :   -0.458936
   8 H :    0.307169
   9 H :    0.102421
  10 H :    0.108098
  11 H :    0.129150
Sum of atomic charges:   -0.0000000

LOEWDIN ATOMIC CHARGES
----------------------
   0 C :   -0.000524
   1 O :   -0.000083
   2 H :   -0.000584
   3 H :   -0.000004
   4 H :   -0.000388
   5 H :   -0.000009
   6 C :   -0.383190
   7 O :   -0.060535
   8 H :    0.139424
   9 H :    0.096572
  10 H :    0.091240
  11 H :    0.118081

  Mayer bond orders larger than 0.1
B(  6-C ,  7-O ) :   0.9901 B(  6-C ,  9-H ) :   0.9765 B(  6-C , 10-H ) :   0.9798
B(  6-C , 11-H ) :   0.9697 B(  7-O ,  8-H ) :   0.9108

Dispersion correction           -0.000250070
FINAL SINGLE POINT ENERGY      -115.727549271662

DIPOLE MOMENT
-------------
                                X             Y             Z
Electronic contribution:      2.00190      -0.02798       0.00328
Nuclear contribution   :     -2.50653      -0.35681       0.33456
                        -----------------------------------------
Total Dipole Moment    :     -0.50463      -0.38480       0.33783
                        -----------------------------------------
Magnitude (a.u.)       :      0.71893
Magnitude (Debye)      :      1.82736

Rotational constants in cm-1:     4.483386     0.807080     0.775436
Rotational constants in MHz : 134408.540148 24195.644332 23246.977461

                             ****ORCA TERMINATED NORMALLY****
TOTAL RUN TIME: 0 days 0 hours 0 minutes 56 seconds 116 msec
