                         Program Version 4.1.2  - RELEASE  -
|  1> #Run DFT-D3 single point of the dimer
|  2> ! wB97X-D3 def2-TZVP TIGHTSCF CHELPG PMODEL PAL8
|  3>
|  4> %base "3-136_DFT_AB"
|  5>
|  6> %scf
|  7> MaxIter 1000
|  8> end
|  9>
| 10> * xyz 0 1
| 11>   C                      -7.916342            -6.777899            -3.497241
| 12>   O                      -8.592063            -7.645050            -2.610539
| 13>   H                      -8.289805            -7.563570            -1.732779
| 14>   H                      -6.857783            -7.080269            -3.642114
| 15>   H                      -8.305381            -6.748343            -4.490312
| 16>   H                      -8.036397            -5.738256            -3.130291
| 17>   C                      -6.344511            -9.803492            -0.015826
| 18>   O                      -6.200448            -9.830734            1.365811
| 19>   H                      -5.476961            -10.426228           1.565663
| 20>   H                      -5.497085            -9.336135            -0.563791
| 21>   H                      -6.618263            -10.802139           -0.346192
| 22>   H                      -7.150481            -9.123313            -0.386533
| 23> *
| 24>
| 25> #Run DFT-D3 single point of the molecule with dimer basis set
| 26> $new_job
| 27> %base "3-136_DFT_A"
| 28> ! wB97X-D3 def2-TZVP TIGHTSCF CHELPG PMODEL
| 29>
| 30> %scf
| 31> MaxIter 1000
| 32> end
| 33>
| 34> * xyz 0 1
| 35>   C                      -7.916342            -6.777899            -3.497241
| 36>   O                      -8.592063            -7.645050            -2.610539
| 37>   H                      -8.289805            -7.563570            -1.732779
| 38>   H                      -6.857783            -7.080269            -3.642114
| 39>   H                      -8.305381            -6.748343            -4.490312
| 40>   H                      -8.036397            -5.738256            -3.130291
| 41>   C                    : -6.344511            -9.803492            -0.015826
| 42>   O                    : -6.200448            -9.830734            1.365811
| 43>   H                    : -5.476961            -10.426228           1.565663
| 44>   H                    : -5.497085            -9.336135            -0.563791
| 45>   H                    : -6.618263            -10.802139           -0.346192
| 46>   H                    : -7.150481            -9.123313            -0.386533
| 47> *
| 48>
| 49> #Run DFT-D3 single point of the particle with dimer basis set
| 50> $new_job
| 51> %base "3-136_DFT_B"
| 52> ! wB97X-D3 def2-TZVP TIGHTSCF CHELPG PMODEL
| 53>
| 54> %scf
| 55> MaxIter 1000
| 56> end
| 57>
| 58> * xyz 0 1
| 59>   C                    : -7.916342            -6.777899            -3.497241
| 60>   O                    : -8.592063            -7.645050            -2.610539
| 61>   H                    : -8.289805            -7.563570            -1.732779
| 62>   H                    : -6.857783            -7.080269            -3.642114
| 63>   H                    : -8.305381            -6.748343            -4.490312
| 64>   H                    : -8.036397            -5.738256            -3.130291
| 65>   C                      -6.344511            -9.803492            -0.015826
| 66>   O                      -6.200448            -9.830734            1.365811
| 67>   H                      -5.476961            -10.426228           1.565663
| 68>   H                      -5.497085            -9.336135            -0.563791
| 69>   H                      -6.618263            -10.802139           -0.346192
| 70>   H                      -7.150481            -9.123313            -0.386533
| 71> *
| 72>
| 73>                          ****END OF INPUT****
 Total Charge           Charge          ....    0
 Multiplicity           Mult            ....    1
 Number of Electrons    NEL             ....   36
Dispersion correction           -0.001197915
FINAL SINGLE POINT ENERGY      -231.464740456692
Dispersion correction           -0.000249556
FINAL SINGLE POINT ENERGY      -115.732719055139

CARTESIAN COORDINATES (ANGSTROEM)
---------------------------------
  C     -7.916342   -6.777899   -3.497241
  O     -8.592063   -7.645050   -2.610539
  H     -8.289805   -7.563570   -1.732779
  H     -6.857783   -7.080269   -3.642114
  H     -8.305381   -6.748343   -4.490312
  H     -8.036397   -5.738256   -3.130291
  C     -6.344511   -9.803492   -0.015826
  O     -6.200448   -9.830734    1.365811
  H     -5.476961  -10.426228    1.565663
  H     -5.497085   -9.336135   -0.563791
  H     -6.618263  -10.802139   -0.346192
  H     -7.150481   -9.123313   -0.386533

 Multiplicity           Mult            ....    1
 Number of Electrons    NEL             ....   18
 Basis Dimension        Dim             ....  172

ORBITAL ENERGIES
----------------

  NO   OCC          E(Eh)            E(eV)
   0   2.0000     -19.231247      -523.3088
   1   2.0000     -10.314476      -280.6712
   2   2.0000      -1.145518       -31.1711
   3   2.0000      -0.793115       -21.5818
   4   2.0000      -0.611574       -16.6418
   5   2.0000      -0.555488       -15.1156
   6   2.0000      -0.526742       -14.3334
   7   2.0000      -0.421241       -11.4626
   8   2.0000      -0.375385       -10.2147
   9   0.0000       0.084687         2.3044
  10   0.0000       0.118024         3.2116
  11   0.0000       0.145636         3.9630
  12   0.0000       0.171301         4.6613
  13   0.0000       0.196444         5.3455

MULLIKEN ATOMIC CHARGES
-----------------------
   0 C :   -0.000114
   1 O :   -0.000034
   2 H :   -0.000020
   3 H :   -0.000050
   4 H :   -0.000007
   5 H :   -0.000003
   6 C :   -0.166189
   7 O :   -0.464293
   8 H :    0.317631
   9 H :    0.097622
  10 H :    0.099242
  11 H :    0.116214
Sum of atomic charges:   -0.0000000

LOEWDIN ATOMIC CHARGES
----------------------
   0 C :   -0.000150
   1 O :   -0.000719
   2 H :   -0.005019
   3 H :   -0.000052
   4 H :   -0.000001
   5 H :   -0.000001
   6 C :   -0.415239
   7 O :   -0.057751
   8 H :    0.171883
   9 H :    0.097837
  10 H :    0.093685
  11 H :    0.115528

  Mayer bond orders larger than 0.1
B(  6-C ,  7-O ) :   1.0127 B(  6-C ,  9-H ) :   0.9727 B(  6-C , 10-H ) :   0.9847
B(  6-C , 11-H ) :   0.9712 B(  7-O ,  8-H ) :   0.8969

Dispersion correction           -0.000239454
FINAL SINGLE POINT ENERGY      -115.731606964636

DIPOLE MOMENT
-------------
                                X             Y             Z
Electronic contribution:      0.13476      -0.01408       1.90723
Nuclear contribution   :      0.25181      -0.33755      -2.30615
                        -----------------------------------------
Total Dipole Moment    :      0.38658      -0.35163      -0.39892
                        -----------------------------------------
Magnitude (a.u.)       :      0.65744
Magnitude (Debye)      :      1.67107

Rotational constants in cm-1:     4.335927     0.840040     0.821301
Rotational constants in MHz : 129987.819719 25183.763162 24621.990891

                             ****ORCA TERMINATED NORMALLY****
TOTAL RUN TIME: 0 days 0 hours 5 minutes 48 seconds 243 msec
