                         Program Version 4.1.2  - RELEASE  -
|  1> #Run DFT-D3 single point of the dimer
|  2> ! wB97X-D3 def2-TZVP TIGHTSCF CHELPG PMODEL PAL8
|  3>
|  4> %base "10-172_DFT_AB"
|  5>
|  6> %scf
|  7> MaxIter 1000
|  8> end
|  9>
| 10> * xyz 0 1
| 11>   C                      2.018643             1.948399             1.332270
| 12>   O                      3.332165             2.287138             1.756769
| 13>   H                      3.311944             2.537674             2.703339
| 14>   H                      2.054708             1.402109             0.362876
| 15>   H                      1.485087             1.342053             2.106728
| 16>   H                      1.462710             2.875440             1.361166
| 17>   C                      4.262847             0.709514             5.516234
| 18>   O                      3.249038             1.221760             4.607938
| 19>   H                      2.759917             0.525777             4.274813
| 20>   H                      5.064640             1.369477             5.723628
| 21>   H                      3.836143             0.461897             6.456810
| 22>   H                      4.748013             -0.205630            5.211231
| 23> *
| 24>
| 25> #Run DFT-D3 single point of the molecule with dimer basis set
| 26> $new_job
| 27> %base "10-172_DFT_A"
| 28> ! wB97X-D3 def2-TZVP TIGHTSCF CHELPG PMODEL
| 29>
| 30> %scf
| 31> MaxIter 1000
| 32> end
| 33>
| 34> * xyz 0 1
| 35>   C                      2.018643             1.948399             1.332270
| 36>   O                      3.332165             2.287138             1.756769
| 37>   H                      3.311944             2.537674             2.703339
| 38>   H                      2.054708             1.402109             0.362876
| 39>   H                      1.485087             1.342053             2.106728
| 40>   H                      1.462710             2.875440             1.361166
| 41>   C                    : 4.262847             0.709514             5.516234
| 42>   O                    : 3.249038             1.221760             4.607938
| 43>   H                    : 2.759917             0.525777             4.274813
| 44>   H                    : 5.064640             1.369477             5.723628
| 45>   H                    : 3.836143             0.461897             6.456810
| 46>   H                    : 4.748013             -0.205630            5.211231
| 47> *
| 48>
| 49> #Run DFT-D3 single point of the particle with dimer basis set
| 50> $new_job
| 51> %base "10-172_DFT_B"
| 52> ! wB97X-D3 def2-TZVP TIGHTSCF CHELPG PMODEL
| 53>
| 54> %scf
| 55> MaxIter 1000
| 56> end
| 57>
| 58> * xyz 0 1
| 59>   C                    : 2.018643             1.948399             1.332270
| 60>   O                    : 3.332165             2.287138             1.756769
| 61>   H                    : 3.311944             2.537674             2.703339
| 62>   H                    : 2.054708             1.402109             0.362876
| 63>   H                    : 1.485087             1.342053             2.106728
| 64>   H                    : 1.462710             2.875440             1.361166
| 65>   C                      4.262847             0.709514             5.516234
| 66>   O                      3.249038             1.221760             4.607938
| 67>   H                      2.759917             0.525777             4.274813
| 68>   H                      5.064640             1.369477             5.723628
| 69>   H                      3.836143             0.461897             6.456810
| 70>   H                      4.748013             -0.205630            5.211231
| 71> *
| 72>
| 73>                          ****END OF INPUT****
 Total Charge           Charge          ....    0
 Multiplicity           Mult            ....    1
 Number of Electrons    NEL             ....   36
Dispersion correction           -0.001679916
FINAL SINGLE POINT ENERGY      -231.466219529354
Dispersion correction           -0.000230038
FINAL SINGLE POINT ENERGY      -115.731794645032

CARTESIAN COORDINATES (ANGSTROEM)
---------------------------------
  C      2.018643    1.948399    1.332270
  O      3.332165    2.287138    1.756769
  H      3.311944    2.537674    2.703339
  H      2.054708    1.402109    0.362876
  H      1.485087    1.342053    2.106728
  H      1.462710    2.875440    1.361166
  C      4.262847    0.709514    5.516234
  O      3.249038    1.221760    4.607938
  H      2.759917    0.525777    4.274813
  H      5.064640    1.369477    5.723628
  H      3.836143    0.461897    6.456810
  H      4.748013   -0.205630    5.211231

 Multiplicity           Mult            ....    1
 Number of Electrons    NEL             ....   18
 Basis Dimension        Dim             ....  172

ORBITAL ENERGIES
----------------

  NO   OCC          E(Eh)            E(eV)
   0   2.0000     -19.228293      -523.2285
   1   2.0000     -10.309416      -280.5335
   2   2.0000      -1.134309       -30.8661
   3   2.0000      -0.811788       -22.0899
   4   2.0000      -0.614484       -16.7210
   5   2.0000      -0.538829       -14.6623
   6   2.0000      -0.528267       -14.3749
   7   2.0000      -0.439638       -11.9631
   8   2.0000      -0.378182       -10.2909
   9   0.0000       0.093296         2.5387
  10   0.0000       0.130838         3.5603
  11   0.0000       0.153005         4.1635
  12   0.0000       0.182457         4.9649
  13   0.0000       0.201531         5.4839

MULLIKEN ATOMIC CHARGES
-----------------------
   0 C :   -0.002523
   1 O :   -0.000653
   2 H :   -0.006236
   3 H :    0.000288
   4 H :   -0.000976
   5 H :   -0.000140
   6 C :   -0.168713
   7 O :   -0.465978
   8 H :    0.307278
   9 H :    0.127093
  10 H :    0.106363
  11 H :    0.104195
Sum of atomic charges:    0.0000000

LOEWDIN ATOMIC CHARGES
----------------------
   0 C :   -0.003524
   1 O :   -0.004826
   2 H :   -0.019773
   3 H :   -0.000019
   4 H :   -0.001406
   5 H :   -0.000048
   6 C :   -0.343370
   7 O :   -0.053104
   8 H :    0.136459
   9 H :    0.102264
  10 H :    0.092100
  11 H :    0.095247

  Mayer bond orders larger than 0.1
B(  6-C ,  7-O ) :   0.9914 B(  6-C ,  9-H ) :   0.9757 B(  6-C , 10-H ) :   0.9788
B(  6-C , 11-H ) :   0.9770 B(  7-O ,  8-H ) :   0.9083

Dispersion correction           -0.000262244
FINAL SINGLE POINT ENERGY      -115.729145059276

DIPOLE MOMENT
-------------
                                X             Y             Z
Electronic contribution:     -1.23395       0.82595      -1.17459
Nuclear contribution   :      1.36537      -1.51876       1.36862
                        -----------------------------------------
Total Dipole Moment    :      0.13142      -0.69282       0.19403
                        -----------------------------------------
Magnitude (a.u.)       :      0.73138
Magnitude (Debye)      :      1.85902

Rotational constants in cm-1:     4.748275     0.786666     0.761967
Rotational constants in MHz : 142349.694947 23583.651325 22843.205126

                             ****ORCA TERMINATED NORMALLY****
TOTAL RUN TIME: 0 days 0 hours 1 minutes 5 seconds 166 msec
