                         Program Version 4.1.2  - RELEASE  -
|  1> #Run DFT-D3 single point of the dimer
|  2> ! wB97X-D3 def2-TZVP TIGHTSCF CHELPG PMODEL PAL8
|  3>
|  4> %base "9-19_DFT_AB"
|  5>
|  6> %scf
|  7> MaxIter 1000
|  8> end
|  9>
| 10> * xyz 0 1
| 11>   C                      1.487376             -0.428665            4.266690
| 12>   O                      2.630056             -0.194025            5.057445
| 13>   H                      2.762876             -0.876611            5.745413
| 14>   H                      1.308714             0.285588             3.519412
| 15>   H                      1.633911             -1.323911            3.744331
| 16>   H                      0.553844             -0.624710            4.835763
| 17>   C                      1.134466             1.669467             7.854700
| 18>   O                      0.471927             2.156405             8.954086
| 19>   H                      -0.458943            1.970741             8.862738
| 20>   H                      1.134125             0.515744             7.875608
| 21>   H                      0.764826             1.840313             6.822769
| 22>   H                      2.204869             1.978863             7.814812
| 23> *
| 24>
| 25> #Run DFT-D3 single point of the molecule with dimer basis set
| 26> $new_job
| 27> %base "9-19_DFT_A"
| 28> ! wB97X-D3 def2-TZVP TIGHTSCF CHELPG PMODEL
| 29>
| 30> %scf
| 31> MaxIter 1000
| 32> end
| 33>
| 34> * xyz 0 1
| 35>   C                      1.487376             -0.428665            4.266690
| 36>   O                      2.630056             -0.194025            5.057445
| 37>   H                      2.762876             -0.876611            5.745413
| 38>   H                      1.308714             0.285588             3.519412
| 39>   H                      1.633911             -1.323911            3.744331
| 40>   H                      0.553844             -0.624710            4.835763
| 41>   C                    : 1.134466             1.669467             7.854700
| 42>   O                    : 0.471927             2.156405             8.954086
| 43>   H                    : -0.458943            1.970741             8.862738
| 44>   H                    : 1.134125             0.515744             7.875608
| 45>   H                    : 0.764826             1.840313             6.822769
| 46>   H                    : 2.204869             1.978863             7.814812
| 47> *
| 48>
| 49> #Run DFT-D3 single point of the particle with dimer basis set
| 50> $new_job
| 51> %base "9-19_DFT_B"
| 52> ! wB97X-D3 def2-TZVP TIGHTSCF CHELPG PMODEL
| 53>
| 54> %scf
| 55> MaxIter 1000
| 56> end
| 57>
| 58> * xyz 0 1
| 59>   C                    : 1.487376             -0.428665            4.266690
| 60>   O                    : 2.630056             -0.194025            5.057445
| 61>   H                    : 2.762876             -0.876611            5.745413
| 62>   H                    : 1.308714             0.285588             3.519412
| 63>   H                    : 1.633911             -1.323911            3.744331
| 64>   H                    : 0.553844             -0.624710            4.835763
| 65>   C                      1.134466             1.669467             7.854700
| 66>   O                      0.471927             2.156405             8.954086
| 67>   H                      -0.458943            1.970741             8.862738
| 68>   H                      1.134125             0.515744             7.875608
| 69>   H                      0.764826             1.840313             6.822769
| 70>   H                      2.204869             1.978863             7.814812
| 71> *
| 72>
| 73>                          ****END OF INPUT****
 Total Charge           Charge          ....    0
 Multiplicity           Mult            ....    1
 Number of Electrons    NEL             ....   36
Dispersion correction           -0.001663485
FINAL SINGLE POINT ENERGY      -231.461552589432
Dispersion correction           -0.000243512
FINAL SINGLE POINT ENERGY      -115.729940505304

CARTESIAN COORDINATES (ANGSTROEM)
---------------------------------
  C      1.487376   -0.428665    4.266690
  O      2.630056   -0.194025    5.057445
  H      2.762876   -0.876611    5.745413
  H      1.308714    0.285588    3.519412
  H      1.633911   -1.323911    3.744331
  H      0.553844   -0.624710    4.835763
  C      1.134466    1.669467    7.854700
  O      0.471927    2.156405    8.954086
  H     -0.458943    1.970741    8.862738
  H      1.134125    0.515744    7.875608
  H      0.764826    1.840313    6.822769
  H      2.204869    1.978863    7.814812

 Multiplicity           Mult            ....    1
 Number of Electrons    NEL             ....   18
 Basis Dimension        Dim             ....  172

ORBITAL ENERGIES
----------------

  NO   OCC          E(Eh)            E(eV)
   0   2.0000     -19.236983      -523.4649
   1   2.0000     -10.320509      -280.8353
   2   2.0000      -1.154425       -31.4135
   3   2.0000      -0.791603       -21.5406
   4   2.0000      -0.626512       -17.0483
   5   2.0000      -0.537589       -14.6285
   6   2.0000      -0.527126       -14.3438
   7   2.0000      -0.434249       -11.8165
   8   2.0000      -0.368923       -10.0389
   9   0.0000       0.078879         2.1464
  10   0.0000       0.117514         3.1977
  11   0.0000       0.146971         3.9993
  12   0.0000       0.165579         4.5056
  13   0.0000       0.185861         5.0575

MULLIKEN ATOMIC CHARGES
-----------------------
   0 C :   -0.000007
   1 O :    0.000048
   2 H :   -0.000488
   3 H :   -0.000047
   4 H :   -0.000072
   5 H :   -0.000812
   6 C :   -0.173378
   7 O :   -0.454973
   8 H :    0.319358
   9 H :    0.088661
  10 H :    0.099911
  11 H :    0.121798
Sum of atomic charges:    0.0000000

LOEWDIN ATOMIC CHARGES
----------------------
   0 C :   -0.001881
   1 O :   -0.000520
   2 H :   -0.001026
   3 H :   -0.000071
   4 H :   -0.000022
   5 H :   -0.000606
   6 C :   -0.438096
   7 O :   -0.035091
   8 H :    0.171588
   9 H :    0.098853
  10 H :    0.093930
  11 H :    0.112944

  Mayer bond orders larger than 0.1
B(  6-C ,  7-O ) :   1.0147 B(  6-C ,  9-H ) :   0.9821 B(  6-C , 10-H ) :   0.9647
B(  6-C , 11-H ) :   0.9687 B(  7-O ,  8-H ) :   0.8950

Dispersion correction           -0.000259650
FINAL SINGLE POINT ENERGY      -115.729901551749

DIPOLE MOMENT
-------------
                                X             Y             Z
Electronic contribution:     -0.86956       0.95049       1.63386
Nuclear contribution   :      0.50460      -1.21389      -2.08700
                        -----------------------------------------
Total Dipole Moment    :     -0.36496      -0.26340      -0.45314
                        -----------------------------------------
Magnitude (a.u.)       :      0.63868
Magnitude (Debye)      :      1.62340

Rotational constants in cm-1:     4.333959     0.849379     0.814812
Rotational constants in MHz : 129928.827605 25463.737849 24427.434767

                             ****ORCA TERMINATED NORMALLY****
TOTAL RUN TIME: 0 days 0 hours 0 minutes 43 seconds 777 msec
