                         Program Version 4.1.2  - RELEASE  -
|  1> #Run DFT-D3 single point of the dimer
|  2> ! wB97X-D3 def2-TZVP TIGHTSCF CHELPG PMODEL PAL8
|  3>
|  4> %base "16-18_DFT_AB"
|  5>
|  6> %scf
|  7> MaxIter 1000
|  8> end
|  9>
| 10> * xyz 0 1
| 11>   C                      4.271779             4.712240             5.343485
| 12>   O                      4.861457             5.690898             4.454410
| 13>   H                      4.587557             5.662843             3.570705
| 14>   H                      4.713760             3.664029             5.121006
| 15>   H                      4.705710             4.923602             6.335144
| 16>   H                      3.190266             4.808637             5.377588
| 17>   C                      8.311484             3.143413             3.481825
| 18>   O                      8.056739             1.722813             3.508801
| 19>   H                      7.759695             1.512041             4.395008
| 20>   H                      8.607157             3.622186             4.397042
| 21>   H                      9.109676             3.424795             2.754939
| 22>   H                      7.404429             3.636642             3.164490
| 23> *
| 24>
| 25> #Run DFT-D3 single point of the molecule with dimer basis set
| 26> $new_job
| 27> %base "16-18_DFT_A"
| 28> ! wB97X-D3 def2-TZVP TIGHTSCF CHELPG PMODEL
| 29>
| 30> %scf
| 31> MaxIter 1000
| 32> end
| 33>
| 34> * xyz 0 1
| 35>   C                      4.271779             4.712240             5.343485
| 36>   O                      4.861457             5.690898             4.454410
| 37>   H                      4.587557             5.662843             3.570705
| 38>   H                      4.713760             3.664029             5.121006
| 39>   H                      4.705710             4.923602             6.335144
| 40>   H                      3.190266             4.808637             5.377588
| 41>   C                    : 8.311484             3.143413             3.481825
| 42>   O                    : 8.056739             1.722813             3.508801
| 43>   H                    : 7.759695             1.512041             4.395008
| 44>   H                    : 8.607157             3.622186             4.397042
| 45>   H                    : 9.109676             3.424795             2.754939
| 46>   H                    : 7.404429             3.636642             3.164490
| 47> *
| 48>
| 49> #Run DFT-D3 single point of the particle with dimer basis set
| 50> $new_job
| 51> %base "16-18_DFT_B"
| 52> ! wB97X-D3 def2-TZVP TIGHTSCF CHELPG PMODEL
| 53>
| 54> %scf
| 55> MaxIter 1000
| 56> end
| 57>
| 58> * xyz 0 1
| 59>   C                    : 4.271779             4.712240             5.343485
| 60>   O                    : 4.861457             5.690898             4.454410
| 61>   H                    : 4.587557             5.662843             3.570705
| 62>   H                    : 4.713760             3.664029             5.121006
| 63>   H                    : 4.705710             4.923602             6.335144
| 64>   H                    : 3.190266             4.808637             5.377588
| 65>   C                      8.311484             3.143413             3.481825
| 66>   O                      8.056739             1.722813             3.508801
| 67>   H                      7.759695             1.512041             4.395008
| 68>   H                      8.607157             3.622186             4.397042
| 69>   H                      9.109676             3.424795             2.754939
| 70>   H                      7.404429             3.636642             3.164490
| 71> *
| 72>
| 73>                          ****END OF INPUT****
 Total Charge           Charge          ....    0
 Multiplicity           Mult            ....    1
 Number of Electrons    NEL             ....   36
Dispersion correction           -0.001204147
FINAL SINGLE POINT ENERGY      -231.463294662341
Dispersion correction           -0.000280228
FINAL SINGLE POINT ENERGY      -115.729374983580

CARTESIAN COORDINATES (ANGSTROEM)
---------------------------------
  C      4.271779    4.712240    5.343485
  O      4.861457    5.690898    4.454410
  H      4.587557    5.662843    3.570705
  H      4.713760    3.664029    5.121006
  H      4.705710    4.923602    6.335144
  H      3.190266    4.808637    5.377588
  C      8.311484    3.143413    3.481825
  O      8.056739    1.722813    3.508801
  H      7.759695    1.512041    4.395008
  H      8.607157    3.622186    4.397042
  H      9.109676    3.424795    2.754939
  H      7.404429    3.636642    3.164490

 Multiplicity           Mult            ....    1
 Number of Electrons    NEL             ....   18
 Basis Dimension        Dim             ....  172

ORBITAL ENERGIES
----------------

  NO   OCC          E(Eh)            E(eV)
   0   2.0000     -19.232332      -523.3384
   1   2.0000     -10.313896      -280.6554
   2   2.0000      -1.129120       -30.7249
   3   2.0000      -0.798834       -21.7374
   4   2.0000      -0.609343       -16.5811
   5   2.0000      -0.537937       -14.6380
   6   2.0000      -0.519393       -14.1334
   7   2.0000      -0.439812       -11.9679
   8   2.0000      -0.375065       -10.2060
   9   0.0000       0.078318         2.1311
  10   0.0000       0.118647         3.2286
  11   0.0000       0.144792         3.9400
  12   0.0000       0.162876         4.4321
  13   0.0000       0.190521         5.1843

MULLIKEN ATOMIC CHARGES
-----------------------
   0 C :   -0.000845
   1 O :    0.000076
   2 H :   -0.000079
   3 H :    0.000381
   4 H :    0.000042
   5 H :    0.000021
   6 C :   -0.180292
   7 O :   -0.475413
   8 H :    0.314729
   9 H :    0.110687
  10 H :    0.119595
  11 H :    0.111098
Sum of atomic charges:    0.0000000

LOEWDIN ATOMIC CHARGES
----------------------
   0 C :   -0.000398
   1 O :   -0.000271
   2 H :   -0.000287
   3 H :   -0.000248
   4 H :   -0.000012
   5 H :   -0.000002
   6 C :   -0.368640
   7 O :   -0.094932
   8 H :    0.166362
   9 H :    0.092016
  10 H :    0.111628
  11 H :    0.094783

  Mayer bond orders larger than 0.1
B(  6-C ,  7-O ) :   0.9974 B(  6-C ,  9-H ) :   0.9728 B(  6-C , 10-H ) :   0.9735
B(  6-C , 11-H ) :   0.9810 B(  7-O ,  8-H ) :   0.9012

Dispersion correction           -0.000263468
FINAL SINGLE POINT ENERGY      -115.732841643117

DIPOLE MOMENT
-------------
                                X             Y             Z
Electronic contribution:     -0.25491      -1.88531      -0.02225
Nuclear contribution   :      0.17629       2.34155       0.59241
                        -----------------------------------------
Total Dipole Moment    :     -0.07862       0.45624       0.57016
                        -----------------------------------------
Magnitude (a.u.)       :      0.73445
Magnitude (Debye)      :      1.86681

Rotational constants in cm-1:     4.422784     0.797015     0.769681
Rotational constants in MHz : 132591.737751 23893.920799 23074.451913

                             ****ORCA TERMINATED NORMALLY****
TOTAL RUN TIME: 0 days 0 hours 1 minutes 0 seconds 933 msec
