                         Program Version 4.1.2  - RELEASE  -
|  1> #Run DFT-D3 single point of the dimer
|  2> ! wB97X-D3 def2-TZVP TIGHTSCF CHELPG PMODEL PAL8
|  3>
|  4> %base "19-196_DFT_AB"
|  5>
|  6> %scf
|  7> MaxIter 1000
|  8> end
|  9>
| 10> * xyz 0 1
| 11>   C                      9.581174             -0.124281            1.928332
| 12>   O                      10.051812            1.201590             2.096946
| 13>   H                      10.500482            1.227346             2.926965
| 14>   H                      9.334964             -0.559037            2.868613
| 15>   H                      8.723279             -0.226228            1.277449
| 16>   H                      10.398617            -0.819547            1.598314
| 17>   C                      8.513817             3.675508             -0.383568
| 18>   O                      9.143687             3.578404             0.864481
| 19>   H                      9.463190             2.722025             0.901324
| 20>   H                      8.877662             2.865182             -1.066605
| 21>   H                      7.428917             3.486082             -0.322136
| 22>   H                      8.817236             4.613234             -0.872877
| 23> *
| 24>
| 25> #Run DFT-D3 single point of the molecule with dimer basis set
| 26> $new_job
| 27> %base "19-196_DFT_A"
| 28> ! wB97X-D3 def2-TZVP TIGHTSCF CHELPG PMODEL
| 29>
| 30> %scf
| 31> MaxIter 1000
| 32> end
| 33>
| 34> * xyz 0 1
| 35>   C                      9.581174             -0.124281            1.928332
| 36>   O                      10.051812            1.201590             2.096946
| 37>   H                      10.500482            1.227346             2.926965
| 38>   H                      9.334964             -0.559037            2.868613
| 39>   H                      8.723279             -0.226228            1.277449
| 40>   H                      10.398617            -0.819547            1.598314
| 41>   C                    : 8.513817             3.675508             -0.383568
| 42>   O                    : 9.143687             3.578404             0.864481
| 43>   H                    : 9.463190             2.722025             0.901324
| 44>   H                    : 8.877662             2.865182             -1.066605
| 45>   H                    : 7.428917             3.486082             -0.322136
| 46>   H                    : 8.817236             4.613234             -0.872877
| 47> *
| 48>
| 49> #Run DFT-D3 single point of the particle with dimer basis set
| 50> $new_job
| 51> %base "19-196_DFT_B"
| 52> ! wB97X-D3 def2-TZVP TIGHTSCF CHELPG PMODEL
| 53>
| 54> %scf
| 55> MaxIter 1000
| 56> end
| 57>
| 58> * xyz 0 1
| 59>   C                    : 9.581174             -0.124281            1.928332
| 60>   O                    : 10.051812            1.201590             2.096946
| 61>   H                    : 10.500482            1.227346             2.926965
| 62>   H                    : 9.334964             -0.559037            2.868613
| 63>   H                    : 8.723279             -0.226228            1.277449
| 64>   H                    : 10.398617            -0.819547            1.598314
| 65>   C                      8.513817             3.675508             -0.383568
| 66>   O                      9.143687             3.578404             0.864481
| 67>   H                      9.463190             2.722025             0.901324
| 68>   H                      8.877662             2.865182             -1.066605
| 69>   H                      7.428917             3.486082             -0.322136
| 70>   H                      8.817236             4.613234             -0.872877
| 71> *
| 72>
| 73>                          ****END OF INPUT****
 Total Charge           Charge          ....    0
 Multiplicity           Mult            ....    1
 Number of Electrons    NEL             ....   36
Dispersion correction           -0.001533136
FINAL SINGLE POINT ENERGY      -231.469631315767
Dispersion correction           -0.000238226
FINAL SINGLE POINT ENERGY      -115.732646596601

CARTESIAN COORDINATES (ANGSTROEM)
---------------------------------
  C      9.581174   -0.124281    1.928332
  O     10.051812    1.201590    2.096946
  H     10.500482    1.227346    2.926965
  H      9.334964   -0.559037    2.868613
  H      8.723279   -0.226228    1.277449
  H     10.398617   -0.819547    1.598314
  C      8.513817    3.675508   -0.383568
  O      9.143687    3.578404    0.864481
  H      9.463190    2.722025    0.901324
  H      8.877662    2.865182   -1.066605
  H      7.428917    3.486082   -0.322136
  H      8.817236    4.613234   -0.872877

 Multiplicity           Mult            ....    1
 Number of Electrons    NEL             ....   18
 Basis Dimension        Dim             ....  172

ORBITAL ENERGIES
----------------

  NO   OCC          E(Eh)            E(eV)
   0   2.0000     -19.227170      -523.1979
   1   2.0000     -10.317384      -280.7503
   2   2.0000      -1.152674       -31.3658
   3   2.0000      -0.794398       -21.6167
   4   2.0000      -0.619952       -16.8697
   5   2.0000      -0.549877       -14.9629
   6   2.0000      -0.523087       -14.2339
   7   2.0000      -0.432738       -11.7754
   8   2.0000      -0.377261       -10.2658
   9   0.0000       0.072083         1.9615
  10   0.0000       0.127671         3.4741
  11   0.0000       0.150338         4.0909
  12   0.0000       0.174055         4.7363
  13   0.0000       0.186561         5.0766

MULLIKEN ATOMIC CHARGES
-----------------------
   0 C :   -0.001881
   1 O :   -0.001517
   2 H :   -0.000195
   3 H :    0.000052
   4 H :   -0.000078
   5 H :   -0.000017
   6 C :   -0.176967
   7 O :   -0.448488
   8 H :    0.302905
   9 H :    0.098976
  10 H :    0.106975
  11 H :    0.120234
Sum of atomic charges:    0.0000000

LOEWDIN ATOMIC CHARGES
----------------------
   0 C :   -0.002848
   1 O :   -0.016044
   2 H :   -0.000823
   3 H :   -0.000054
   4 H :   -0.000341
   5 H :   -0.000050
   6 C :   -0.395450
   7 O :   -0.036072
   8 H :    0.146851
   9 H :    0.100218
  10 H :    0.097993
  11 H :    0.106621

  Mayer bond orders larger than 0.1
B(  6-C ,  7-O ) :   0.9999 B(  6-C ,  9-H ) :   0.9899 B(  6-C , 10-H ) :   0.9664
B(  6-C , 11-H ) :   0.9746 B(  7-O ,  8-H ) :   0.9147

Dispersion correction           -0.000230192
FINAL SINGLE POINT ENERGY      -115.731405576109

DIPOLE MOMENT
-------------
                                X             Y             Z
Electronic contribution:      0.72728       0.11719       1.72166
Nuclear contribution   :     -0.73973      -0.65114      -2.18672
                        -----------------------------------------
Total Dipole Moment    :     -0.01245      -0.53395      -0.46506
                        -----------------------------------------
Magnitude (a.u.)       :      0.70819
Magnitude (Debye)      :      1.80007

Rotational constants in cm-1:     4.238855     0.844484     0.821091
Rotational constants in MHz : 127077.689174 25316.979499 24615.693291

                             ****ORCA TERMINATED NORMALLY****
TOTAL RUN TIME: 0 days 0 hours 1 minutes 37 seconds 203 msec
