                         Program Version 4.1.2  - RELEASE  -
|  1> #Run DFT-D3 single point of the dimer
|  2> ! wB97X-D3 def2-TZVP TIGHTSCF CHELPG PMODEL PAL8
|  3>
|  4> %base "5-86_DFT_AB"
|  5>
|  6> %scf
|  7> MaxIter 1000
|  8> end
|  9>
| 10> * xyz 0 1
| 11>   C                      7.210825             8.632815             -10.573525
| 12>   O                      6.489195             9.621712             -11.265290
| 13>   H                      5.643977             9.593942             -10.878869
| 14>   H                      8.271137             8.672598             -10.791634
| 15>   H                      7.248490             8.656114             -9.461360
| 16>   H                      6.873795             7.608064             -10.845225
| 17>   C                      10.113427            10.935619            -6.481662
| 18>   O                      10.630876            10.295021            -5.295632
| 19>   H                      10.413318            10.834888            -4.519883
| 20>   H                      9.238122             11.581264            -6.278384
| 21>   H                      10.971074            11.496609            -6.993023
| 22>   H                      9.793802             10.043394            -7.079421
| 23> *
| 24>
| 25> #Run DFT-D3 single point of the molecule with dimer basis set
| 26> $new_job
| 27> %base "5-86_DFT_A"
| 28> ! wB97X-D3 def2-TZVP TIGHTSCF CHELPG PMODEL
| 29>
| 30> %scf
| 31> MaxIter 1000
| 32> end
| 33>
| 34> * xyz 0 1
| 35>   C                      7.210825             8.632815             -10.573525
| 36>   O                      6.489195             9.621712             -11.265290
| 37>   H                      5.643977             9.593942             -10.878869
| 38>   H                      8.271137             8.672598             -10.791634
| 39>   H                      7.248490             8.656114             -9.461360
| 40>   H                      6.873795             7.608064             -10.845225
| 41>   C                    : 10.113427            10.935619            -6.481662
| 42>   O                    : 10.630876            10.295021            -5.295632
| 43>   H                    : 10.413318            10.834888            -4.519883
| 44>   H                    : 9.238122             11.581264            -6.278384
| 45>   H                    : 10.971074            11.496609            -6.993023
| 46>   H                    : 9.793802             10.043394            -7.079421
| 47> *
| 48>
| 49> #Run DFT-D3 single point of the particle with dimer basis set
| 50> $new_job
| 51> %base "5-86_DFT_B"
| 52> ! wB97X-D3 def2-TZVP TIGHTSCF CHELPG PMODEL
| 53>
| 54> %scf
| 55> MaxIter 1000
| 56> end
| 57>
| 58> * xyz 0 1
| 59>   C                    : 7.210825             8.632815             -10.573525
| 60>   O                    : 6.489195             9.621712             -11.265290
| 61>   H                    : 5.643977             9.593942             -10.878869
| 62>   H                    : 8.271137             8.672598             -10.791634
| 63>   H                    : 7.248490             8.656114             -9.461360
| 64>   H                    : 6.873795             7.608064             -10.845225
| 65>   C                      10.113427            10.935619            -6.481662
| 66>   O                      10.630876            10.295021            -5.295632
| 67>   H                      10.413318            10.834888            -4.519883
| 68>   H                      9.238122             11.581264            -6.278384
| 69>   H                      10.971074            11.496609            -6.993023
| 70>   H                      9.793802             10.043394            -7.079421
| 71> *
| 72>
| 73>                          ****END OF INPUT****
 Total Charge           Charge          ....    0
 Multiplicity           Mult            ....    1
 Number of Electrons    NEL             ....   36
Dispersion correction           -0.000703392
FINAL SINGLE POINT ENERGY      -231.464079424583
Dispersion correction           -0.000252767
FINAL SINGLE POINT ENERGY      -115.732212077335

CARTESIAN COORDINATES (ANGSTROEM)
---------------------------------
  C      7.210825    8.632815  -10.573525
  O      6.489195    9.621712  -11.265290
  H      5.643977    9.593942  -10.878869
  H      8.271137    8.672598  -10.791634
  H      7.248490    8.656114   -9.461360
  H      6.873795    7.608064  -10.845225
  C     10.113427   10.935619   -6.481662
  O     10.630876   10.295021   -5.295632
  H     10.413318   10.834888   -4.519883
  H      9.238122   11.581264   -6.278384
  H     10.971074   11.496609   -6.993023
  H      9.793802   10.043394   -7.079421

 Multiplicity           Mult            ....    1
 Number of Electrons    NEL             ....   18
 Basis Dimension        Dim             ....  172

ORBITAL ENERGIES
----------------

  NO   OCC          E(Eh)            E(eV)
   0   2.0000     -19.227354      -523.2029
   1   2.0000     -10.324116      -280.9335
   2   2.0000      -1.123566       -30.5738
   3   2.0000      -0.787179       -21.4202
   4   2.0000      -0.603399       -16.4193
   5   2.0000      -0.536099       -14.5880
   6   2.0000      -0.512882       -13.9562
   7   2.0000      -0.435060       -11.8386
   8   2.0000      -0.370576       -10.0839
   9   0.0000       0.084330         2.2947
  10   0.0000       0.112664         3.0657
  11   0.0000       0.144866         3.9420
  12   0.0000       0.166212         4.5229
  13   0.0000       0.184897         5.0313

MULLIKEN ATOMIC CHARGES
-----------------------
   0 C :    0.000112
   1 O :   -0.000001
   2 H :   -0.000001
   3 H :   -0.000048
   4 H :   -0.000239
   5 H :   -0.000008
   6 C :   -0.173770
   7 O :   -0.481299
   8 H :    0.311927
   9 H :    0.111738
  10 H :    0.107886
  11 H :    0.123702
Sum of atomic charges:   -0.0000000

LOEWDIN ATOMIC CHARGES
----------------------
   0 C :   -0.000082
   1 O :   -0.000002
   2 H :   -0.000000
   3 H :   -0.000022
   4 H :   -0.000155
   5 H :   -0.000000
   6 C :   -0.374954
   7 O :   -0.110549
   8 H :    0.167874
   9 H :    0.097541
  10 H :    0.106463
  11 H :    0.113887

  Mayer bond orders larger than 0.1
B(  6-C ,  7-O ) :   0.9912 B(  6-C ,  9-H ) :   0.9717 B(  6-C , 10-H ) :   0.9682
B(  6-C , 11-H ) :   0.9776 B(  7-O ,  8-H ) :   0.9015

Dispersion correction           -0.000264235
FINAL SINGLE POINT ENERGY      -115.731595019578

DIPOLE MOMENT
-------------
                                X             Y             Z
Electronic contribution:      0.62120      -0.77706       1.37738
Nuclear contribution   :     -0.99640       1.37074      -1.34807
                        -----------------------------------------
Total Dipole Moment    :     -0.37520       0.59368       0.02931
                        -----------------------------------------
Magnitude (a.u.)       :      0.70292
Magnitude (Debye)      :      1.78667

Rotational constants in cm-1:     3.981823     0.805569     0.781741
Rotational constants in MHz : 119372.042244 24150.355818 23436.017318

                             ****ORCA TERMINATED NORMALLY****
TOTAL RUN TIME: 0 days 0 hours 1 minutes 1 seconds 81 msec
