                         Program Version 4.1.2  - RELEASE  -
|  1> #Run DFT-D3 single point of the dimer
|  2> ! wB97X-D3 def2-TZVP TIGHTSCF CHELPG PMODEL PAL8
|  3>
|  4> %base "8-95_DFT_AB"
|  5>
|  6> %scf
|  7> MaxIter 1000
|  8> end
|  9>
| 10> * xyz 0 1
| 11>   C                      -4.288569            -3.454093            4.046615
| 12>   O                      -4.072984            -3.445141            5.450072
| 13>   H                      -3.608082            -2.611545            5.566733
| 14>   H                      -3.328369            -3.735090            3.527382
| 15>   H                      -4.996269            -4.232074            3.685555
| 16>   H                      -4.566862            -2.490800            3.649591
| 17>   C                      -5.450394            -7.017792            1.970977
| 18>   O                      -6.042229            -6.920867            0.673254
| 19>   H                      -6.564923            -7.763865            0.522771
| 20>   H                      -4.782055            -7.916130            2.135093
| 21>   H                      -4.793322            -6.180792            2.074901
| 22>   H                      -6.219856            -6.898667            2.649508
| 23> *
| 24>
| 25> #Run DFT-D3 single point of the molecule with dimer basis set
| 26> $new_job
| 27> %base "8-95_DFT_A"
| 28> ! wB97X-D3 def2-TZVP TIGHTSCF CHELPG PMODEL
| 29>
| 30> %scf
| 31> MaxIter 1000
| 32> end
| 33>
| 34> * xyz 0 1
| 35>   C                      -4.288569            -3.454093            4.046615
| 36>   O                      -4.072984            -3.445141            5.450072
| 37>   H                      -3.608082            -2.611545            5.566733
| 38>   H                      -3.328369            -3.735090            3.527382
| 39>   H                      -4.996269            -4.232074            3.685555
| 40>   H                      -4.566862            -2.490800            3.649591
| 41>   C                    : -5.450394            -7.017792            1.970977
| 42>   O                    : -6.042229            -6.920867            0.673254
| 43>   H                    : -6.564923            -7.763865            0.522771
| 44>   H                    : -4.782055            -7.916130            2.135093
| 45>   H                    : -4.793322            -6.180792            2.074901
| 46>   H                    : -6.219856            -6.898667            2.649508
| 47> *
| 48>
| 49> #Run DFT-D3 single point of the particle with dimer basis set
| 50> $new_job
| 51> %base "8-95_DFT_B"
| 52> ! wB97X-D3 def2-TZVP TIGHTSCF CHELPG PMODEL
| 53>
| 54> %scf
| 55> MaxIter 1000
| 56> end
| 57>
| 58> * xyz 0 1
| 59>   C                    : -4.288569            -3.454093            4.046615
| 60>   O                    : -4.072984            -3.445141            5.450072
| 61>   H                    : -3.608082            -2.611545            5.566733
| 62>   H                    : -3.328369            -3.735090            3.527382
| 63>   H                    : -4.996269            -4.232074            3.685555
| 64>   H                    : -4.566862            -2.490800            3.649591
| 65>   C                      -5.450394            -7.017792            1.970977
| 66>   O                      -6.042229            -6.920867            0.673254
| 67>   H                      -6.564923            -7.763865            0.522771
| 68>   H                      -4.782055            -7.916130            2.135093
| 69>   H                      -4.793322            -6.180792            2.074901
| 70>   H                      -6.219856            -6.898667            2.649508
| 71> *
| 72>
| 73>                          ****END OF INPUT****
 Total Charge           Charge          ....    0
 Multiplicity           Mult            ....    1
 Number of Electrons    NEL             ....   36
Dispersion correction           -0.001172624
FINAL SINGLE POINT ENERGY      -231.462720581422
Dispersion correction           -0.000235322
FINAL SINGLE POINT ENERGY      -115.732399624576

CARTESIAN COORDINATES (ANGSTROEM)
---------------------------------
  C     -4.288569   -3.454093    4.046615
  O     -4.072984   -3.445141    5.450072
  H     -3.608082   -2.611545    5.566733
  H     -3.328369   -3.735090    3.527382
  H     -4.996269   -4.232074    3.685555
  H     -4.566862   -2.490800    3.649591
  C     -5.450394   -7.017792    1.970977
  O     -6.042229   -6.920867    0.673254
  H     -6.564923   -7.763865    0.522771
  H     -4.782055   -7.916130    2.135093
  H     -4.793322   -6.180792    2.074901
  H     -6.219856   -6.898667    2.649508

 Multiplicity           Mult            ....    1
 Number of Electrons    NEL             ....   18
 Basis Dimension        Dim             ....  172

ORBITAL ENERGIES
----------------

  NO   OCC          E(Eh)            E(eV)
   0   2.0000     -19.231713      -523.3215
   1   2.0000     -10.307665      -280.4858
   2   2.0000      -1.123094       -30.5609
   3   2.0000      -0.796197       -21.6656
   4   2.0000      -0.597743       -16.2654
   5   2.0000      -0.553836       -15.0706
   6   2.0000      -0.520359       -14.1597
   7   2.0000      -0.430176       -11.7057
   8   2.0000      -0.374578       -10.1928
   9   0.0000       0.087097         2.3700
  10   0.0000       0.112602         3.0641
  11   0.0000       0.148294         4.0353
  12   0.0000       0.174567         4.7502
  13   0.0000       0.191327         5.2063

MULLIKEN ATOMIC CHARGES
-----------------------
   0 C :    0.000970
   1 O :   -0.000013
   2 H :   -0.000001
   3 H :   -0.000345
   4 H :   -0.001624
   5 H :   -0.000075
   6 C :   -0.160964
   7 O :   -0.482719
   8 H :    0.314714
   9 H :    0.099792
  10 H :    0.120656
  11 H :    0.109608
Sum of atomic charges:   -0.0000000

LOEWDIN ATOMIC CHARGES
----------------------
   0 C :   -0.001747
   1 O :   -0.000008
   2 H :   -0.000002
   3 H :   -0.000329
   4 H :   -0.002731
   5 H :   -0.000010
   6 C :   -0.370825
   7 O :   -0.108037
   8 H :    0.190506
   9 H :    0.103464
  10 H :    0.105544
  11 H :    0.084176

  Mayer bond orders larger than 0.1
B(  6-C ,  7-O ) :   1.0028 B(  6-C ,  9-H ) :   0.9670 B(  6-C , 10-H ) :   0.9737
B(  6-C , 11-H ) :   0.9838 B(  7-O ,  8-H ) :   0.8953

Dispersion correction           -0.000242445
FINAL SINGLE POINT ENERGY      -115.729576403614

DIPOLE MOMENT
-------------
                                X             Y             Z
Electronic contribution:     -0.72565       0.21846      -1.57229
Nuclear contribution   :      0.64674      -0.74506       2.01087
                        -----------------------------------------
Total Dipole Moment    :     -0.07891      -0.52659       0.43858
                        -----------------------------------------
Magnitude (a.u.)       :      0.68984
Magnitude (Debye)      :      1.75343

Rotational constants in cm-1:     4.281973     0.819095     0.794846
Rotational constants in MHz : 128370.310570 24555.854720 23828.875700

                             ****ORCA TERMINATED NORMALLY****
TOTAL RUN TIME: 0 days 0 hours 0 minutes 34 seconds 272 msec
