                         Program Version 4.1.2  - RELEASE  -
|  1> #Run DFT-D3 single point of the dimer
|  2> ! wB97X-D3 def2-TZVP TIGHTSCF CHELPG PMODEL PAL8
|  3>
|  4> %base "21-101_DFT_AB"
|  5>
|  6> %scf
|  7> MaxIter 1000
|  8> end
|  9>
| 10> * xyz 0 1
| 11>   C                      -9.935633            -1.088503            1.284899
| 12>   O                      -11.033869           -1.960237            1.345496
| 13>   H                      -11.887862           -1.623931            1.666152
| 14>   H                      -8.996411            -1.368978            1.817904
| 15>   H                      -9.676983            -0.896278            0.194077
| 16>   H                      -10.219109           -0.076535            1.690126
| 17>   C                      -6.369211            3.163556             0.285240
| 18>   O                      -6.227927            4.268699             1.167217
| 19>   H                      -7.087048            4.498600             1.550799
| 20>   H                      -7.055003            2.375268             0.723441
| 21>   H                      -6.909121            3.466641             -0.665375
| 22>   H                      -5.436438            2.612705             0.110659
| 23> *
| 24>
| 25> #Run DFT-D3 single point of the molecule with dimer basis set
| 26> $new_job
| 27> %base "21-101_DFT_A"
| 28> ! wB97X-D3 def2-TZVP TIGHTSCF CHELPG PMODEL
| 29>
| 30> %scf
| 31> MaxIter 1000
| 32> end
| 33>
| 34> * xyz 0 1
| 35>   C                      -9.935633            -1.088503            1.284899
| 36>   O                      -11.033869           -1.960237            1.345496
| 37>   H                      -11.887862           -1.623931            1.666152
| 38>   H                      -8.996411            -1.368978            1.817904
| 39>   H                      -9.676983            -0.896278            0.194077
| 40>   H                      -10.219109           -0.076535            1.690126
| 41>   C                    : -6.369211            3.163556             0.285240
| 42>   O                    : -6.227927            4.268699             1.167217
| 43>   H                    : -7.087048            4.498600             1.550799
| 44>   H                    : -7.055003            2.375268             0.723441
| 45>   H                    : -6.909121            3.466641             -0.665375
| 46>   H                    : -5.436438            2.612705             0.110659
| 47> *
| 48>
| 49> #Run DFT-D3 single point of the particle with dimer basis set
| 50> $new_job
| 51> %base "21-101_DFT_B"
| 52> ! wB97X-D3 def2-TZVP TIGHTSCF CHELPG PMODEL
| 53>
| 54> %scf
| 55> MaxIter 1000
| 56> end
| 57>
| 58> * xyz 0 1
| 59>   C                    : -9.935633            -1.088503            1.284899
| 60>   O                    : -11.033869           -1.960237            1.345496
| 61>   H                    : -11.887862           -1.623931            1.666152
| 62>   H                    : -8.996411            -1.368978            1.817904
| 63>   H                    : -9.676983            -0.896278            0.194077
| 64>   H                    : -10.219109           -0.076535            1.690126
| 65>   C                      -6.369211            3.163556             0.285240
| 66>   O                      -6.227927            4.268699             1.167217
| 67>   H                      -7.087048            4.498600             1.550799
| 68>   H                      -7.055003            2.375268             0.723441
| 69>   H                      -6.909121            3.466641             -0.665375
| 70>   H                      -5.436438            2.612705             0.110659
| 71> *
| 72>
| 73>                          ****END OF INPUT****
 Total Charge           Charge          ....    0
 Multiplicity           Mult            ....    1
 Number of Electrons    NEL             ....   36
Dispersion correction           -0.000707018
FINAL SINGLE POINT ENERGY      -231.460220794026
Dispersion correction           -0.000280027
FINAL SINGLE POINT ENERGY      -115.728025242558

CARTESIAN COORDINATES (ANGSTROEM)
---------------------------------
  C     -9.935633   -1.088503    1.284899
  O    -11.033869   -1.960237    1.345496
  H    -11.887862   -1.623931    1.666152
  H     -8.996411   -1.368978    1.817904
  H     -9.676983   -0.896278    0.194077
  H    -10.219109   -0.076535    1.690126
  C     -6.369211    3.163556    0.285240
  O     -6.227927    4.268699    1.167217
  H     -7.087048    4.498600    1.550799
  H     -7.055003    2.375268    0.723441
  H     -6.909121    3.466641   -0.665375
  H     -5.436438    2.612705    0.110659

 Multiplicity           Mult            ....    1
 Number of Electrons    NEL             ....   18
 Basis Dimension        Dim             ....  172

ORBITAL ENERGIES
----------------

  NO   OCC          E(Eh)            E(eV)
   0   2.0000     -19.232028      -523.3301
   1   2.0000     -10.323281      -280.9108
   2   2.0000      -1.132111       -30.8063
   3   2.0000      -0.790650       -21.5147
   4   2.0000      -0.609190       -16.5769
   5   2.0000      -0.540275       -14.7016
   6   2.0000      -0.520759       -14.1706
   7   2.0000      -0.430311       -11.7094
   8   2.0000      -0.371450       -10.1077
   9   0.0000       0.079925         2.1749
  10   0.0000       0.112539         3.0624
  11   0.0000       0.141099         3.8395
  12   0.0000       0.163088         4.4378
  13   0.0000       0.186436         5.0732

MULLIKEN ATOMIC CHARGES
-----------------------
   0 C :    0.000037
   1 O :   -0.000003
   2 H :   -0.000001
   3 H :   -0.000038
   4 H :   -0.000056
   5 H :   -0.000073
   6 C :   -0.178109
   7 O :   -0.475250
   8 H :    0.320037
   9 H :    0.101775
  10 H :    0.102784
  11 H :    0.128897
Sum of atomic charges:   -0.0000000

LOEWDIN ATOMIC CHARGES
----------------------
   0 C :   -0.000157
   1 O :   -0.000002
   2 H :   -0.000000
   3 H :   -0.000020
   4 H :   -0.000033
   5 H :   -0.000050
   6 C :   -0.393936
   7 O :   -0.088535
   8 H :    0.174278
   9 H :    0.099290
  10 H :    0.100641
  11 H :    0.108525

  Mayer bond orders larger than 0.1
B(  6-C ,  7-O ) :   0.9986 B(  6-C ,  9-H ) :   0.9792 B(  6-C , 10-H ) :   0.9709
B(  6-C , 11-H ) :   0.9678 B(  7-O ,  8-H ) :   0.8935

Dispersion correction           -0.000261630
FINAL SINGLE POINT ENERGY      -115.732158611893

DIPOLE MOMENT
-------------
                                X             Y             Z
Electronic contribution:      0.49317       1.50844       1.08884
Nuclear contribution   :     -1.09217      -1.81754      -1.17187
                        -----------------------------------------
Total Dipole Moment    :     -0.59900      -0.30909      -0.08303
                        -----------------------------------------
Magnitude (a.u.)       :      0.67914
Magnitude (Debye)      :      1.72624

Rotational constants in cm-1:     4.182452     0.811481     0.783388
Rotational constants in MHz : 125386.769351 24327.583306 23485.376560

                             ****ORCA TERMINATED NORMALLY****
TOTAL RUN TIME: 0 days 0 hours 0 minutes 54 seconds 857 msec
