                         Program Version 4.1.2  - RELEASE  -
|  1> #Run DFT geometry optimization
|  2> ! wB97X-D3 def2-TZVP TIGHTSCF Grid5 FinalGrid6 Opt CHELPG PAL4
|  3>
|  4> %base "0_geo_opt"
|  5> %geom MaxIter 500
|  6> end
|  7>
|  8> %geom
|  9>   Constraints
| 10>     { B 0 1 C }
| 11>   end
| 12> end
| 13>
| 14>
| 15> * xyz 0 1
| 16>   C                    3.010818             -1.180916            0.598394
| 17>   O                    4.395163             -1.128031            0.874405
| 18>   H                    4.772686             -0.379003            0.412591
| 19>   H                    2.805944             -1.318984            -0.469447
| 20>   H                    2.611142             -2.040284            1.135801
| 21>   H                    2.484267             -0.284510            0.945561
| 22> *
| 23>
| 24>                          ****END OF INPUT****
 Total Charge           Charge          ....    0
 Multiplicity           Mult            ....    1
 Number of Electrons    NEL             ....   18
Dispersion correction           -0.000239754
FINAL SINGLE POINT ENERGY      -115.738050659302
Dispersion correction            ... done
                    ***********************HURRAY********************

CARTESIAN COORDINATES (ANGSTROEM)
---------------------------------
  C      3.010798   -1.180950    0.598411
  O      4.395145   -1.128069    0.874414
  H      4.772455   -0.378980    0.412540
  H      2.806090   -1.318962   -0.469425
  H      2.611104   -2.040277    1.135793
  H      2.484427   -0.284489    0.945571

 Multiplicity           Mult            ....    1
 Number of Electrons    NEL             ....   18
 Basis Dimension        Dim             ....   86

ORBITAL ENERGIES
----------------

  NO   OCC          E(Eh)            E(eV)
   0   2.0000     -19.228073      -523.2225
   1   2.0000     -10.315201      -280.6909
   2   2.0000      -1.136487       -30.9254
   3   2.0000      -0.795388       -21.6436
   4   2.0000      -0.611399       -16.6370
   5   2.0000      -0.541679       -14.7398
   6   2.0000      -0.526198       -14.3186
   7   2.0000      -0.433887       -11.8067
   8   2.0000      -0.373652       -10.1676
   9   0.0000       0.116644         3.1740
  10   0.0000       0.156610         4.2616
  11   0.0000       0.202549         5.5116
  12   0.0000       0.205085         5.5806
  13   0.0000       0.226265         6.1570

MULLIKEN ATOMIC CHARGES
-----------------------
   0 C :   -0.151083
   1 O :   -0.477814
   2 H :    0.312970
   3 H :    0.098791
   4 H :    0.118341
   5 H :    0.098795
Sum of atomic charges:   -0.0000000

LOEWDIN ATOMIC CHARGES
----------------------
   0 C :   -0.384390
   1 O :   -0.076845
   2 H :    0.165683
   3 H :    0.093434
   4 H :    0.108684
   5 H :    0.093433

  Mayer bond orders larger than 0.1
B(  0-C ,  1-O ) :   0.9985 B(  0-C ,  3-H ) :   0.9755 B(  0-C ,  4-H ) :   0.9750
B(  0-C ,  5-H ) :   0.9755 B(  1-O ,  2-H ) :   0.9003

Dispersion correction           -0.000239650
FINAL SINGLE POINT ENERGY      -115.738050697831

DIPOLE MOMENT
-------------
                                X             Y             Z
Electronic contribution:      1.75533      -0.02841       0.41977
Nuclear contribution   :     -2.06660       0.47596      -0.81771
                        -----------------------------------------
Total Dipole Moment    :     -0.31127       0.44755      -0.39794
                        -----------------------------------------
Magnitude (a.u.)       :      0.67494
Magnitude (Debye)      :      1.71556

Rotational constants in cm-1:     4.292666     0.832859     0.804026
Rotational constants in MHz : 128690.880017 24968.498211 24104.090724

                             ****ORCA TERMINATED NORMALLY****
TOTAL RUN TIME: 0 days 0 hours 0 minutes 38 seconds 680 msec
