                         Program Version 4.1.2  - RELEASE  -
|  1> #Run DFT-D3 single point of the dimer
|  2> ! wB97X-D3 def2-TZVP TIGHTSCF CHELPG PMODEL PAL8
|  3>
|  4> %base "21-61_DFT_AB"
|  5>
|  6> %scf
|  7> MaxIter 1000
|  8> end
|  9>
| 10> * xyz 0 1
| 11>   C                      -11.372586           8.540703             -4.414854
| 12>   O                      -10.682548           7.464592             -3.735657
| 13>   H                      -9.880261            7.202070             -4.211377
| 14>   H                      -12.306293           8.795395             -3.765906
| 15>   H                      -10.774642           9.463074             -4.547285
| 16>   H                      -11.771777           8.144614             -5.371547
| 17>   C                      -8.603786            5.447837             -7.490318
| 18>   O                      -8.296332            6.339186             -6.437737
| 19>   H                      -7.357825            6.381653             -6.421790
| 20>   H                      -8.094756            4.454546             -7.365590
| 21>   H                      -9.650627            5.292896             -7.546803
| 22>   H                      -8.190118            5.916413             -8.395784
| 23> *
| 24>
| 25> #Run DFT-D3 single point of the molecule with dimer basis set
| 26> $new_job
| 27> %base "21-61_DFT_A"
| 28> ! wB97X-D3 def2-TZVP TIGHTSCF CHELPG PMODEL
| 29>
| 30> %scf
| 31> MaxIter 1000
| 32> end
| 33>
| 34> * xyz 0 1
| 35>   C                      -11.372586           8.540703             -4.414854
| 36>   O                      -10.682548           7.464592             -3.735657
| 37>   H                      -9.880261            7.202070             -4.211377
| 38>   H                      -12.306293           8.795395             -3.765906
| 39>   H                      -10.774642           9.463074             -4.547285
| 40>   H                      -11.771777           8.144614             -5.371547
| 41>   C                    : -8.603786            5.447837             -7.490318
| 42>   O                    : -8.296332            6.339186             -6.437737
| 43>   H                    : -7.357825            6.381653             -6.421790
| 44>   H                    : -8.094756            4.454546             -7.365590
| 45>   H                    : -9.650627            5.292896             -7.546803
| 46>   H                    : -8.190118            5.916413             -8.395784
| 47> *
| 48>
| 49> #Run DFT-D3 single point of the particle with dimer basis set
| 50> $new_job
| 51> %base "21-61_DFT_B"
| 52> ! wB97X-D3 def2-TZVP TIGHTSCF CHELPG PMODEL
| 53>
| 54> %scf
| 55> MaxIter 1000
| 56> end
| 57>
| 58> * xyz 0 1
| 59>   C                    : -11.372586           8.540703             -4.414854
| 60>   O                    : -10.682548           7.464592             -3.735657
| 61>   H                    : -9.880261            7.202070             -4.211377
| 62>   H                    : -12.306293           8.795395             -3.765906
| 63>   H                    : -10.774642           9.463074             -4.547285
| 64>   H                    : -11.771777           8.144614             -5.371547
| 65>   C                      -8.603786            5.447837             -7.490318
| 66>   O                      -8.296332            6.339186             -6.437737
| 67>   H                      -7.357825            6.381653             -6.421790
| 68>   H                      -8.094756            4.454546             -7.365590
| 69>   H                      -9.650627            5.292896             -7.546803
| 70>   H                      -8.190118            5.916413             -8.395784
| 71> *
| 72>
| 73>                          ****END OF INPUT****
 Total Charge           Charge          ....    0
 Multiplicity           Mult            ....    1
 Number of Electrons    NEL             ....   36
Dispersion correction           -0.001170908
FINAL SINGLE POINT ENERGY      -231.470362471614
Dispersion correction           -0.000276453
FINAL SINGLE POINT ENERGY      -115.732188154562

CARTESIAN COORDINATES (ANGSTROEM)
---------------------------------
  C    -11.372586    8.540703   -4.414854
  O    -10.682548    7.464592   -3.735657
  H     -9.880261    7.202070   -4.211377
  H    -12.306293    8.795395   -3.765906
  H    -10.774642    9.463074   -4.547285
  H    -11.771777    8.144614   -5.371547
  C     -8.603786    5.447837   -7.490318
  O     -8.296332    6.339186   -6.437737
  H     -7.357825    6.381653   -6.421790
  H     -8.094756    4.454546   -7.365590
  H     -9.650627    5.292896   -7.546803
  H     -8.190118    5.916413   -8.395784

 Multiplicity           Mult            ....    1
 Number of Electrons    NEL             ....   18
 Basis Dimension        Dim             ....  172

ORBITAL ENERGIES
----------------

  NO   OCC          E(Eh)            E(eV)
   0   2.0000     -19.226966      -523.1923
   1   2.0000     -10.313576      -280.6467
   2   2.0000      -1.142417       -31.0868
   3   2.0000      -0.795121       -21.6363
   4   2.0000      -0.611399       -16.6370
   5   2.0000      -0.544568       -14.8184
   6   2.0000      -0.530136       -14.4257
   7   2.0000      -0.440109       -11.9760
   8   2.0000      -0.370377       -10.0785
   9   0.0000       0.097431         2.6512
  10   0.0000       0.118758         3.2316
  11   0.0000       0.158136         4.3031
  12   0.0000       0.183120         4.9830
  13   0.0000       0.196189         5.3386

MULLIKEN ATOMIC CHARGES
-----------------------
   0 C :   -0.000299
   1 O :    0.000555
   2 H :   -0.005314
   3 H :   -0.000049
   4 H :    0.000004
   5 H :   -0.000269
   6 C :   -0.160294
   7 O :   -0.459298
   8 H :    0.306293
   9 H :    0.095671
  10 H :    0.125266
  11 H :    0.097733
Sum of atomic charges:    0.0000000

LOEWDIN ATOMIC CHARGES
----------------------
   0 C :   -0.000630
   1 O :   -0.000250
   2 H :   -0.006782
   3 H :   -0.000014
   4 H :   -0.000033
   5 H :   -0.000080
   6 C :   -0.379984
   7 O :   -0.064031
   8 H :    0.155925
   9 H :    0.098469
  10 H :    0.100235
  11 H :    0.097173

  Mayer bond orders larger than 0.1
B(  6-C ,  7-O ) :   0.9888 B(  6-C ,  9-H ) :   0.9725 B(  6-C , 10-H ) :   0.9732
B(  6-C , 11-H ) :   0.9833 B(  7-O ,  8-H ) :   0.9071

Dispersion correction           -0.000214172
FINAL SINGLE POINT ENERGY      -115.734023460461

DIPOLE MOMENT
-------------
                                X             Y             Z
Electronic contribution:      0.11769       1.13049       1.36538
Nuclear contribution   :      0.34568      -1.45526      -1.77492
                        -----------------------------------------
Total Dipole Moment    :      0.46337      -0.32477      -0.40954
                        -----------------------------------------
Magnitude (a.u.)       :      0.69851
Magnitude (Debye)      :      1.77547

Rotational constants in cm-1:     4.229194     0.843972     0.812735
Rotational constants in MHz : 126788.046560 25301.651357 24365.178571

                             ****ORCA TERMINATED NORMALLY****
TOTAL RUN TIME: 0 days 0 hours 1 minutes 5 seconds 302 msec
