                         Program Version 4.1.2  - RELEASE  -
|  1> #Run DFT-D3 single point of the dimer
|  2> ! wB97X-D3 def2-TZVP TIGHTSCF CHELPG PMODEL PAL8
|  3>
|  4> %base "6-26_DFT_AB"
|  5>
|  6> %scf
|  7> MaxIter 1000
|  8> end
|  9>
| 10> * xyz 0 1
| 11>   C                      -0.715228            1.050743             2.453242
| 12>   O                      -1.854007            0.340821             2.144338
| 13>   H                      -2.633239            0.803480             2.639829
| 14>   H                      -0.871798            2.130612             2.284487
| 15>   H                      -0.449429            0.971583             3.539397
| 16>   H                      0.102194             0.804007             1.757111
| 17>   C                      -2.812625            3.417705             6.902419
| 18>   O                      -1.482108            3.672397             6.513151
| 19>   H                      -0.974431            2.924347             6.921874
| 20>   H                      -2.880043            2.556290             7.528965
| 21>   H                      -3.255005            4.181398             7.523786
| 22>   H                      -3.343399            3.226117             6.022469
| 23> *
| 24>
| 25> #Run DFT-D3 single point of the molecule with dimer basis set
| 26> $new_job
| 27> %base "6-26_DFT_A"
| 28> ! wB97X-D3 def2-TZVP TIGHTSCF CHELPG PMODEL
| 29>
| 30> %scf
| 31> MaxIter 1000
| 32> end
| 33>
| 34> * xyz 0 1
| 35>   C                      -0.715228            1.050743             2.453242
| 36>   O                      -1.854007            0.340821             2.144338
| 37>   H                      -2.633239            0.803480             2.639829
| 38>   H                      -0.871798            2.130612             2.284487
| 39>   H                      -0.449429            0.971583             3.539397
| 40>   H                      0.102194             0.804007             1.757111
| 41>   C                    : -2.812625            3.417705             6.902419
| 42>   O                    : -1.482108            3.672397             6.513151
| 43>   H                    : -0.974431            2.924347             6.921874
| 44>   H                    : -2.880043            2.556290             7.528965
| 45>   H                    : -3.255005            4.181398             7.523786
| 46>   H                    : -3.343399            3.226117             6.022469
| 47> *
| 48>
| 49> #Run DFT-D3 single point of the particle with dimer basis set
| 50> $new_job
| 51> %base "6-26_DFT_B"
| 52> ! wB97X-D3 def2-TZVP TIGHTSCF CHELPG PMODEL
| 53>
| 54> %scf
| 55> MaxIter 1000
| 56> end
| 57>
| 58> * xyz 0 1
| 59>   C                    : -0.715228            1.050743             2.453242
| 60>   O                    : -1.854007            0.340821             2.144338
| 61>   H                    : -2.633239            0.803480             2.639829
| 62>   H                    : -0.871798            2.130612             2.284487
| 63>   H                    : -0.449429            0.971583             3.539397
| 64>   H                    : 0.102194             0.804007             1.757111
| 65>   C                      -2.812625            3.417705             6.902419
| 66>   O                      -1.482108            3.672397             6.513151
| 67>   H                      -0.974431            2.924347             6.921874
| 68>   H                      -2.880043            2.556290             7.528965
| 69>   H                      -3.255005            4.181398             7.523786
| 70>   H                      -3.343399            3.226117             6.022469
| 71> *
| 72>
| 73>                          ****END OF INPUT****
 Total Charge           Charge          ....    0
 Multiplicity           Mult            ....    1
 Number of Electrons    NEL             ....   36
Dispersion correction           -0.000760118
FINAL SINGLE POINT ENERGY      -231.458885511807
Dispersion correction           -0.000228270
FINAL SINGLE POINT ENERGY      -115.729058976297

CARTESIAN COORDINATES (ANGSTROEM)
---------------------------------
  C     -0.715228    1.050743    2.453242
  O     -1.854007    0.340821    2.144338
  H     -2.633239    0.803480    2.639829
  H     -0.871798    2.130612    2.284487
  H     -0.449429    0.971583    3.539397
  H      0.102194    0.804007    1.757111
  C     -2.812625    3.417705    6.902419
  O     -1.482108    3.672397    6.513151
  H     -0.974431    2.924347    6.921874
  H     -2.880043    2.556290    7.528965
  H     -3.255005    4.181398    7.523786
  H     -3.343399    3.226117    6.022469

 Multiplicity           Mult            ....    1
 Number of Electrons    NEL             ....   18
 Basis Dimension        Dim             ....  172

ORBITAL ENERGIES
----------------

  NO   OCC          E(Eh)            E(eV)
   0   2.0000     -19.231449      -523.3143
   1   2.0000     -10.301544      -280.3193
   2   2.0000      -1.133706       -30.8497
   3   2.0000      -0.797343       -21.6968
   4   2.0000      -0.611882       -16.6501
   5   2.0000      -0.552877       -15.0445
   6   2.0000      -0.522181       -14.2093
   7   2.0000      -0.434527       -11.8241
   8   2.0000      -0.374329       -10.1860
   9   0.0000       0.084963         2.3120
  10   0.0000       0.112341         3.0570
  11   0.0000       0.152501         4.1498
  12   0.0000       0.169973         4.6252
  13   0.0000       0.191085         5.1997

MULLIKEN ATOMIC CHARGES
-----------------------
   0 C :    0.000508
   1 O :    0.000012
   2 H :   -0.000027
   3 H :   -0.000251
   4 H :   -0.001243
   5 H :   -0.000077
   6 C :   -0.169827
   7 O :   -0.470429
   8 H :    0.318939
   9 H :    0.100324
  10 H :    0.107493
  11 H :    0.114578
Sum of atomic charges:    0.0000000

LOEWDIN ATOMIC CHARGES
----------------------
   0 C :   -0.000255
   1 O :   -0.000010
   2 H :   -0.000014
   3 H :   -0.000070
   4 H :   -0.000459
   5 H :   -0.000009
   6 C :   -0.383534
   7 O :   -0.088868
   8 H :    0.191312
   9 H :    0.091835
  10 H :    0.097968
  11 H :    0.092104

  Mayer bond orders larger than 0.1
B(  6-C ,  7-O ) :   1.0110 B(  6-C ,  9-H ) :   0.9912 B(  6-C , 10-H ) :   0.9703
B(  6-C , 11-H ) :   0.9819 B(  7-O ,  8-H ) :   0.8987

Dispersion correction           -0.000223768
FINAL SINGLE POINT ENERGY      -115.729302047462

DIPOLE MOMENT
-------------
                                X             Y             Z
Electronic contribution:      1.62448       0.52330      -0.61584
Nuclear contribution   :     -1.82946      -1.11687       1.04407
                        -----------------------------------------
Total Dipole Moment    :     -0.20498      -0.59356       0.42823
                        -----------------------------------------
Magnitude (a.u.)       :      0.76008
Magnitude (Debye)      :      1.93196

Rotational constants in cm-1:     4.387493     0.844034     0.816557
Rotational constants in MHz : 131533.727562 25303.516438 24479.750273

                             ****ORCA TERMINATED NORMALLY****
TOTAL RUN TIME: 0 days 0 hours 1 minutes 1 seconds 1 msec
