                         Program Version 4.1.2  - RELEASE  -
|  1> #Run DFT-D3 single point of the dimer
|  2> ! wB97X-D3 def2-TZVP TIGHTSCF CHELPG PMODEL PAL8
|  3>
|  4> %base "8-6_DFT_AB"
|  5>
|  6> %scf
|  7> MaxIter 1000
|  8> end
|  9>
| 10> * xyz 0 1
| 11>   C                      3.233414             -3.571402            3.480505
| 12>   O                      2.255676             -2.570167            3.219103
| 13>   H                      1.566001             -2.787145            3.844910
| 14>   H                      2.766447             -4.558397            3.518261
| 15>   H                      4.083400             -3.498807            2.869667
| 16>   H                      3.649298             -3.340378            4.517966
| 17>   C                      6.544032             -0.473077            3.712911
| 18>   O                      7.906508             -0.325117            4.182643
| 19>   H                      8.557743             -0.777407            3.591954
| 20>   H                      6.299232             0.232570             2.974493
| 21>   H                      6.490442             -1.469732            3.134085
| 22>   H                      5.800592             -0.470221            4.596880
| 23> *
| 24>
| 25> #Run DFT-D3 single point of the molecule with dimer basis set
| 26> $new_job
| 27> %base "8-6_DFT_A"
| 28> ! wB97X-D3 def2-TZVP TIGHTSCF CHELPG PMODEL
| 29>
| 30> %scf
| 31> MaxIter 1000
| 32> end
| 33>
| 34> * xyz 0 1
| 35>   C                      3.233414             -3.571402            3.480505
| 36>   O                      2.255676             -2.570167            3.219103
| 37>   H                      1.566001             -2.787145            3.844910
| 38>   H                      2.766447             -4.558397            3.518261
| 39>   H                      4.083400             -3.498807            2.869667
| 40>   H                      3.649298             -3.340378            4.517966
| 41>   C                    : 6.544032             -0.473077            3.712911
| 42>   O                    : 7.906508             -0.325117            4.182643
| 43>   H                    : 8.557743             -0.777407            3.591954
| 44>   H                    : 6.299232             0.232570             2.974493
| 45>   H                    : 6.490442             -1.469732            3.134085
| 46>   H                    : 5.800592             -0.470221            4.596880
| 47> *
| 48>
| 49> #Run DFT-D3 single point of the particle with dimer basis set
| 50> $new_job
| 51> %base "8-6_DFT_B"
| 52> ! wB97X-D3 def2-TZVP TIGHTSCF CHELPG PMODEL
| 53>
| 54> %scf
| 55> MaxIter 1000
| 56> end
| 57>
| 58> * xyz 0 1
| 59>   C                    : 3.233414             -3.571402            3.480505
| 60>   O                    : 2.255676             -2.570167            3.219103
| 61>   H                    : 1.566001             -2.787145            3.844910
| 62>   H                    : 2.766447             -4.558397            3.518261
| 63>   H                    : 4.083400             -3.498807            2.869667
| 64>   H                    : 3.649298             -3.340378            4.517966
| 65>   C                      6.544032             -0.473077            3.712911
| 66>   O                      7.906508             -0.325117            4.182643
| 67>   H                      8.557743             -0.777407            3.591954
| 68>   H                      6.299232             0.232570             2.974493
| 69>   H                      6.490442             -1.469732            3.134085
| 70>   H                      5.800592             -0.470221            4.596880
| 71> *
| 72>
| 73>                          ****END OF INPUT****
 Total Charge           Charge          ....    0
 Multiplicity           Mult            ....    1
 Number of Electrons    NEL             ....   36
Dispersion correction           -0.001052597
FINAL SINGLE POINT ENERGY      -231.457734979785
Dispersion correction           -0.000215901
FINAL SINGLE POINT ENERGY      -115.730598452799

CARTESIAN COORDINATES (ANGSTROEM)
---------------------------------
  C      3.233414   -3.571402    3.480505
  O      2.255676   -2.570167    3.219103
  H      1.566001   -2.787145    3.844910
  H      2.766447   -4.558397    3.518261
  H      4.083400   -3.498807    2.869667
  H      3.649298   -3.340378    4.517966
  C      6.544032   -0.473077    3.712911
  O      7.906508   -0.325117    4.182643
  H      8.557743   -0.777407    3.591954
  H      6.299232    0.232570    2.974493
  H      6.490442   -1.469732    3.134085
  H      5.800592   -0.470221    4.596880

 Multiplicity           Mult            ....    1
 Number of Electrons    NEL             ....   18
 Basis Dimension        Dim             ....  172

ORBITAL ENERGIES
----------------

  NO   OCC          E(Eh)            E(eV)
   0   2.0000     -19.229521      -523.2619
   1   2.0000     -10.325382      -280.9679
   2   2.0000      -1.117327       -30.4040
   3   2.0000      -0.790681       -21.5155
   4   2.0000      -0.602294       -16.3893
   5   2.0000      -0.535087       -14.5604
   6   2.0000      -0.520308       -14.1583
   7   2.0000      -0.425185       -11.5699
   8   2.0000      -0.372044       -10.1238
   9   0.0000       0.083050         2.2599
  10   0.0000       0.108646         2.9564
  11   0.0000       0.142777         3.8852
  12   0.0000       0.164331         4.4717
  13   0.0000       0.179762         4.8916

MULLIKEN ATOMIC CHARGES
-----------------------
   0 C :    0.000347
   1 O :    0.000028
   2 H :    0.000001
   3 H :   -0.000067
   4 H :   -0.000908
   5 H :   -0.000374
   6 C :   -0.169972
   7 O :   -0.492712
   8 H :    0.320471
   9 H :    0.119140
  10 H :    0.099421
  11 H :    0.124624
Sum of atomic charges:   -0.0000000

LOEWDIN ATOMIC CHARGES
----------------------
   0 C :   -0.000817
   1 O :   -0.000006
   2 H :   -0.000001
   3 H :   -0.000010
   4 H :   -0.000899
   5 H :   -0.000242
   6 C :   -0.366927
   7 O :   -0.122288
   8 H :    0.181475
   9 H :    0.084023
  10 H :    0.105727
  11 H :    0.119966

  Mayer bond orders larger than 0.1
B(  6-C ,  7-O ) :   0.9944 B(  6-C ,  9-H ) :   0.9640 B(  6-C , 10-H ) :   0.9880
B(  6-C , 11-H ) :   0.9680 B(  7-O ,  8-H ) :   0.8909

Dispersion correction           -0.000268377
FINAL SINGLE POINT ENERGY      -115.726351705882

DIPOLE MOMENT
-------------
                                X             Y             Z
Electronic contribution:      1.59647       0.41909       0.73881
Nuclear contribution   :     -1.74628      -0.76178      -1.33097
                        -----------------------------------------
Total Dipole Moment    :     -0.14981      -0.34269      -0.59217
                        -----------------------------------------
Magnitude (a.u.)       :      0.70039
Magnitude (Debye)      :      1.78025

Rotational constants in cm-1:     4.099889     0.796338     0.757071
Rotational constants in MHz : 122911.566924 23873.617885 22696.410702

                             ****ORCA TERMINATED NORMALLY****
TOTAL RUN TIME: 0 days 0 hours 0 minutes 43 seconds 444 msec
