                         Program Version 4.1.2  - RELEASE  -
|  1> #Run DFT-D3 single point of the dimer
|  2> ! wB97X-D3 def2-TZVP TIGHTSCF CHELPG PMODEL PAL8
|  3>
|  4> %base "22-74_DFT_AB"
|  5>
|  6> %scf
|  7> MaxIter 1000
|  8> end
|  9>
| 10> * xyz 0 1
| 11>   C                      -3.152113            -1.685180            5.511687
| 12>   O                      -3.578452            -2.644021            4.578806
| 13>   H                      -2.831220            -3.224825            4.420491
| 14>   H                      -2.231712            -1.127083            5.128433
| 15>   H                      -3.887088            -1.022022            5.889255
| 16>   H                      -2.718246            -2.180419            6.352590
| 17>   C                      -4.521975            -6.233287            5.954755
| 18>   O                      -4.879138            -6.814400            7.255290
| 19>   H                      -4.346958            -6.453633            7.886201
| 20>   H                      -3.499010            -6.592115            5.620698
| 21>   H                      -5.202318            -6.713222            5.198677
| 22>   H                      -4.591454            -5.146394            5.966266
| 23> *
| 24>
| 25> #Run DFT-D3 single point of the molecule with dimer basis set
| 26> $new_job
| 27> %base "22-74_DFT_A"
| 28> ! wB97X-D3 def2-TZVP TIGHTSCF CHELPG PMODEL
| 29>
| 30> %scf
| 31> MaxIter 1000
| 32> end
| 33>
| 34> * xyz 0 1
| 35>   C                      -3.152113            -1.685180            5.511687
| 36>   O                      -3.578452            -2.644021            4.578806
| 37>   H                      -2.831220            -3.224825            4.420491
| 38>   H                      -2.231712            -1.127083            5.128433
| 39>   H                      -3.887088            -1.022022            5.889255
| 40>   H                      -2.718246            -2.180419            6.352590
| 41>   C                    : -4.521975            -6.233287            5.954755
| 42>   O                    : -4.879138            -6.814400            7.255290
| 43>   H                    : -4.346958            -6.453633            7.886201
| 44>   H                    : -3.499010            -6.592115            5.620698
| 45>   H                    : -5.202318            -6.713222            5.198677
| 46>   H                    : -4.591454            -5.146394            5.966266
| 47> *
| 48>
| 49> #Run DFT-D3 single point of the particle with dimer basis set
| 50> $new_job
| 51> %base "22-74_DFT_B"
| 52> ! wB97X-D3 def2-TZVP TIGHTSCF CHELPG PMODEL
| 53>
| 54> %scf
| 55> MaxIter 1000
| 56> end
| 57>
| 58> * xyz 0 1
| 59>   C                    : -3.152113            -1.685180            5.511687
| 60>   O                    : -3.578452            -2.644021            4.578806
| 61>   H                    : -2.831220            -3.224825            4.420491
| 62>   H                    : -2.231712            -1.127083            5.128433
| 63>   H                    : -3.887088            -1.022022            5.889255
| 64>   H                    : -2.718246            -2.180419            6.352590
| 65>   C                      -4.521975            -6.233287            5.954755
| 66>   O                      -4.879138            -6.814400            7.255290
| 67>   H                      -4.346958            -6.453633            7.886201
| 68>   H                      -3.499010            -6.592115            5.620698
| 69>   H                      -5.202318            -6.713222            5.198677
| 70>   H                      -4.591454            -5.146394            5.966266
| 71> *
| 72>
| 73>                          ****END OF INPUT****
 Total Charge           Charge          ....    0
 Multiplicity           Mult            ....    1
 Number of Electrons    NEL             ....   36
Dispersion correction           -0.001228938
FINAL SINGLE POINT ENERGY      -231.460598129914
Dispersion correction           -0.000223718
FINAL SINGLE POINT ENERGY      -115.730171915381

CARTESIAN COORDINATES (ANGSTROEM)
---------------------------------
  C     -3.152113   -1.685180    5.511687
  O     -3.578452   -2.644021    4.578806
  H     -2.831220   -3.224825    4.420491
  H     -2.231712   -1.127083    5.128433
  H     -3.887088   -1.022022    5.889255
  H     -2.718246   -2.180419    6.352590
  C     -4.521975   -6.233287    5.954755
  O     -4.879138   -6.814400    7.255290
  H     -4.346958   -6.453633    7.886201
  H     -3.499010   -6.592115    5.620698
  H     -5.202318   -6.713222    5.198677
  H     -4.591454   -5.146394    5.966266

 Multiplicity           Mult            ....    1
 Number of Electrons    NEL             ....   18
 Basis Dimension        Dim             ....  172

ORBITAL ENERGIES
----------------

  NO   OCC          E(Eh)            E(eV)
   0   2.0000     -19.223558      -523.0996
   1   2.0000     -10.326270      -280.9921
   2   2.0000      -1.132932       -30.8286
   3   2.0000      -0.797681       -21.7060
   4   2.0000      -0.605713       -16.4823
   5   2.0000      -0.541533       -14.7359
   6   2.0000      -0.514147       -13.9907
   7   2.0000      -0.436597       -11.8804
   8   2.0000      -0.377606       -10.2752
   9   0.0000       0.077891         2.1195
  10   0.0000       0.122733         3.3397
  11   0.0000       0.140883         3.8336
  12   0.0000       0.175414         4.7733
  13   0.0000       0.179096         4.8735

MULLIKEN ATOMIC CHARGES
-----------------------
   0 C :   -0.000073
   1 O :   -0.000239
   2 H :   -0.000465
   3 H :   -0.000005
   4 H :    0.000021
   5 H :   -0.000060
   6 C :   -0.170262
   7 O :   -0.470097
   8 H :    0.297085
   9 H :    0.102930
  10 H :    0.124405
  11 H :    0.116758
Sum of atomic charges:    0.0000000

LOEWDIN ATOMIC CHARGES
----------------------
   0 C :   -0.000613
   1 O :   -0.001041
   2 H :   -0.000762
   3 H :   -0.000007
   4 H :   -0.000012
   5 H :   -0.000108
   6 C :   -0.348962
   7 O :   -0.084287
   8 H :    0.120287
   9 H :    0.102906
  10 H :    0.117106
  11 H :    0.095494

  Mayer bond orders larger than 0.1
B(  6-C ,  7-O ) :   0.9900 B(  6-C ,  9-H ) :   0.9726 B(  6-C , 10-H ) :   0.9728
B(  6-C , 11-H ) :   0.9704 B(  7-O ,  8-H ) :   0.9188

Dispersion correction           -0.000268103
FINAL SINGLE POINT ENERGY      -115.729305118325

DIPOLE MOMENT
-------------
                                X             Y             Z
Electronic contribution:     -0.54356      -0.62988       1.58141
Nuclear contribution   :      1.03394       1.10735      -1.72826
                        -----------------------------------------
Total Dipole Moment    :      0.49038       0.47747      -0.14685
                        -----------------------------------------
Magnitude (a.u.)       :      0.70001
Magnitude (Debye)      :      1.77927

Rotational constants in cm-1:     4.206113     0.780564     0.758469
Rotational constants in MHz : 126096.098754 23400.709380 22738.315585

                             ****ORCA TERMINATED NORMALLY****
TOTAL RUN TIME: 0 days 0 hours 0 minutes 52 seconds 992 msec
