                         Program Version 4.1.2  - RELEASE  -
|  1> #Run DFT-D3 single point of the dimer
|  2> ! wB97X-D3 def2-TZVP TIGHTSCF CHELPG PMODEL PAL8
|  3>
|  4> %base "20-205_DFT_AB"
|  5>
|  6> %scf
|  7> MaxIter 1000
|  8> end
|  9>
| 10> * xyz 0 1
| 11>   C                      2.907116             -9.187198            -6.133131
| 12>   O                      2.091800             -9.982552            -5.330885
| 13>   H                      2.195654             -9.664146            -4.384575
| 14>   H                      3.968683             -9.348297            -5.867276
| 15>   H                      2.841180             -9.300509            -7.224873
| 16>   H                      2.736581             -8.144323            -5.972114
| 17>   C                      1.851827             -7.038614            -3.310081
| 18>   O                      2.407402             -8.242057            -2.933763
| 19>   H                      3.246962             -8.231828            -2.504413
| 20>   H                      1.582758             -6.546518            -2.366470
| 21>   H                      2.475274             -6.384976            -3.821352
| 22>   H                      0.991860             -7.245917            -3.988238
| 23> *
| 24>
| 25> #Run DFT-D3 single point of the molecule with dimer basis set
| 26> $new_job
| 27> %base "20-205_DFT_A"
| 28> ! wB97X-D3 def2-TZVP TIGHTSCF CHELPG PMODEL
| 29>
| 30> %scf
| 31> MaxIter 1000
| 32> end
| 33>
| 34> * xyz 0 1
| 35>   C                      2.907116             -9.187198            -6.133131
| 36>   O                      2.091800             -9.982552            -5.330885
| 37>   H                      2.195654             -9.664146            -4.384575
| 38>   H                      3.968683             -9.348297            -5.867276
| 39>   H                      2.841180             -9.300509            -7.224873
| 40>   H                      2.736581             -8.144323            -5.972114
| 41>   C                    : 1.851827             -7.038614            -3.310081
| 42>   O                    : 2.407402             -8.242057            -2.933763
| 43>   H                    : 3.246962             -8.231828            -2.504413
| 44>   H                    : 1.582758             -6.546518            -2.366470
| 45>   H                    : 2.475274             -6.384976            -3.821352
| 46>   H                    : 0.991860             -7.245917            -3.988238
| 47> *
| 48>
| 49> #Run DFT-D3 single point of the particle with dimer basis set
| 50> $new_job
| 51> %base "20-205_DFT_B"
| 52> ! wB97X-D3 def2-TZVP TIGHTSCF CHELPG PMODEL
| 53>
| 54> %scf
| 55> MaxIter 1000
| 56> end
| 57>
| 58> * xyz 0 1
| 59>   C                    : 2.907116             -9.187198            -6.133131
| 60>   O                    : 2.091800             -9.982552            -5.330885
| 61>   H                    : 2.195654             -9.664146            -4.384575
| 62>   H                    : 3.968683             -9.348297            -5.867276
| 63>   H                    : 2.841180             -9.300509            -7.224873
| 64>   H                    : 2.736581             -8.144323            -5.972114
| 65>   C                      1.851827             -7.038614            -3.310081
| 66>   O                      2.407402             -8.242057            -2.933763
| 67>   H                      3.246962             -8.231828            -2.504413
| 68>   H                      1.582758             -6.546518            -2.366470
| 69>   H                      2.475274             -6.384976            -3.821352
| 70>   H                      0.991860             -7.245917            -3.988238
| 71> *
| 72>
| 73>                          ****END OF INPUT****
 Total Charge           Charge          ....    0
 Multiplicity           Mult            ....    1
 Number of Electrons    NEL             ....   36
Dispersion correction           -0.002289315
FINAL SINGLE POINT ENERGY      -231.469882961052
Dispersion correction           -0.000233422
FINAL SINGLE POINT ENERGY      -115.730925490997

CARTESIAN COORDINATES (ANGSTROEM)
---------------------------------
  C      2.907116   -9.187198   -6.133131
  O      2.091800   -9.982552   -5.330885
  H      2.195654   -9.664146   -4.384575
  H      3.968683   -9.348297   -5.867276
  H      2.841180   -9.300509   -7.224873
  H      2.736581   -8.144323   -5.972114
  C      1.851827   -7.038614   -3.310081
  O      2.407402   -8.242057   -2.933763
  H      3.246962   -8.231828   -2.504413
  H      1.582758   -6.546518   -2.366470
  H      2.475274   -6.384976   -3.821352
  H      0.991860   -7.245917   -3.988238

 Multiplicity           Mult            ....    1
 Number of Electrons    NEL             ....   18
 Basis Dimension        Dim             ....  172

ORBITAL ENERGIES
----------------

  NO   OCC          E(Eh)            E(eV)
   0   2.0000     -19.222357      -523.0669
   1   2.0000     -10.307047      -280.4690
   2   2.0000      -1.143541       -31.1173
   3   2.0000      -0.802881       -21.8475
   4   2.0000      -0.625127       -17.0106
   5   2.0000      -0.551161       -14.9978
   6   2.0000      -0.527059       -14.3420
   7   2.0000      -0.421837       -11.4788
   8   2.0000      -0.368283       -10.0215
   9   0.0000       0.094457         2.5703
  10   0.0000       0.132249         3.5987
  11   0.0000       0.154129         4.1941
  12   0.0000       0.179692         4.8897
  13   0.0000       0.201848         5.4926

MULLIKEN ATOMIC CHARGES
-----------------------
   0 C :   -0.002872
   1 O :   -0.000172
   2 H :   -0.004703
   3 H :   -0.001631
   4 H :   -0.000262
   5 H :    0.000148
   6 C :   -0.133608
   7 O :   -0.491872
   8 H :    0.315931
   9 H :    0.098799
  10 H :    0.103992
  11 H :    0.116251
Sum of atomic charges:    0.0000000

LOEWDIN ATOMIC CHARGES
----------------------
   0 C :   -0.007521
   1 O :   -0.003528
   2 H :   -0.034775
   3 H :   -0.000786
   4 H :   -0.000111
   5 H :   -0.002105
   6 C :   -0.395093
   7 O :   -0.011201
   8 H :    0.156974
   9 H :    0.099510
  10 H :    0.080531
  11 H :    0.118106

  Mayer bond orders larger than 0.1
B(  6-C ,  7-O ) :   0.9710 B(  6-C ,  9-H ) :   0.9852 B(  6-C , 10-H ) :   0.9736
B(  6-C , 11-H ) :   0.9746 B(  7-O ,  8-H ) :   0.8919

Dispersion correction           -0.000231503
FINAL SINGLE POINT ENERGY      -115.729180346265

DIPOLE MOMENT
-------------
                                X             Y             Z
Electronic contribution:      0.67057      -1.53247       0.37136
Nuclear contribution   :     -0.30779       2.03724      -0.24346
                        -----------------------------------------
Total Dipole Moment    :      0.36278       0.50477       0.12790
                        -----------------------------------------
Magnitude (a.u.)       :      0.63464
Magnitude (Debye)      :      1.61312

Rotational constants in cm-1:     4.487840     0.864806     0.831842
Rotational constants in MHz : 134542.059092 25926.222110 24937.994031

                             ****ORCA TERMINATED NORMALLY****
TOTAL RUN TIME: 0 days 0 hours 1 minutes 1 seconds 787 msec
