                         Program Version 4.1.2  - RELEASE  -
|  1> #Run DFT-D3 single point of the dimer
|  2> ! wB97X-D3 def2-TZVP TIGHTSCF CHELPG PMODEL PAL8
|  3>
|  4> %base "14-160_DFT_AB"
|  5>
|  6> %scf
|  7> MaxIter 1000
|  8> end
|  9>
| 10> * xyz 0 1
| 11>   C                      10.678996            8.771194             -7.516484
| 12>   O                      10.671975            9.516892             -6.346500
| 13>   H                      10.764590            8.847367             -5.616443
| 14>   H                      10.695222            7.656437             -7.292155
| 15>   H                      9.869501             8.951080             -8.154115
| 16>   H                      11.614463            9.001513             -8.114070
| 17>   C                      9.928184             8.260720             -2.586835
| 18>   O                      9.843440             8.370878             -3.989632
| 19>   H                      9.436629             9.202394             -4.141557
| 20>   H                      10.132171            7.206825             -2.249609
| 21>   H                      10.760448            8.888493             -2.195302
| 22>   H                      8.979033             8.624816             -2.069371
| 23> *
| 24>
| 25> #Run DFT-D3 single point of the molecule with dimer basis set
| 26> $new_job
| 27> %base "14-160_DFT_A"
| 28> ! wB97X-D3 def2-TZVP TIGHTSCF CHELPG PMODEL
| 29>
| 30> %scf
| 31> MaxIter 1000
| 32> end
| 33>
| 34> * xyz 0 1
| 35>   C                      10.678996            8.771194             -7.516484
| 36>   O                      10.671975            9.516892             -6.346500
| 37>   H                      10.764590            8.847367             -5.616443
| 38>   H                      10.695222            7.656437             -7.292155
| 39>   H                      9.869501             8.951080             -8.154115
| 40>   H                      11.614463            9.001513             -8.114070
| 41>   C                    : 9.928184             8.260720             -2.586835
| 42>   O                    : 9.843440             8.370878             -3.989632
| 43>   H                    : 9.436629             9.202394             -4.141557
| 44>   H                    : 10.132171            7.206825             -2.249609
| 45>   H                    : 10.760448            8.888493             -2.195302
| 46>   H                    : 8.979033             8.624816             -2.069371
| 47> *
| 48>
| 49> #Run DFT-D3 single point of the particle with dimer basis set
| 50> $new_job
| 51> %base "14-160_DFT_B"
| 52> ! wB97X-D3 def2-TZVP TIGHTSCF CHELPG PMODEL
| 53>
| 54> %scf
| 55> MaxIter 1000
| 56> end
| 57>
| 58> * xyz 0 1
| 59>   C                    : 10.678996            8.771194             -7.516484
| 60>   O                    : 10.671975            9.516892             -6.346500
| 61>   H                    : 10.764590            8.847367             -5.616443
| 62>   H                    : 10.695222            7.656437             -7.292155
| 63>   H                    : 9.869501             8.951080             -8.154115
| 64>   H                    : 11.614463            9.001513             -8.114070
| 65>   C                      9.928184             8.260720             -2.586835
| 66>   O                      9.843440             8.370878             -3.989632
| 67>   H                      9.436629             9.202394             -4.141557
| 68>   H                      10.132171            7.206825             -2.249609
| 69>   H                      10.760448            8.888493             -2.195302
| 70>   H                      8.979033             8.624816             -2.069371
| 71> *
| 72>
| 73>                          ****END OF INPUT****
 Total Charge           Charge          ....    0
 Multiplicity           Mult            ....    1
 Number of Electrons    NEL             ....   36
Dispersion correction           -0.001468863
FINAL SINGLE POINT ENERGY      -231.471901151065
Dispersion correction           -0.000241365
FINAL SINGLE POINT ENERGY      -115.730093837155

CARTESIAN COORDINATES (ANGSTROEM)
---------------------------------
  C     10.678996    8.771194   -7.516484
  O     10.671975    9.516892   -6.346500
  H     10.764590    8.847367   -5.616443
  H     10.695222    7.656437   -7.292155
  H      9.869501    8.951080   -8.154115
  H     11.614463    9.001513   -8.114070
  C      9.928184    8.260720   -2.586835
  O      9.843440    8.370878   -3.989632
  H      9.436629    9.202394   -4.141557
  H     10.132171    7.206825   -2.249609
  H     10.760448    8.888493   -2.195302
  H      8.979033    8.624816   -2.069371

 Multiplicity           Mult            ....    1
 Number of Electrons    NEL             ....   18
 Basis Dimension        Dim             ....  172

ORBITAL ENERGIES
----------------

  NO   OCC          E(Eh)            E(eV)
   0   2.0000     -19.232922      -523.3544
   1   2.0000     -10.324315      -280.9389
   2   2.0000      -1.146667       -31.2024
   3   2.0000      -0.789526       -21.4841
   4   2.0000      -0.613962       -16.7068
   5   2.0000      -0.537074       -14.6145
   6   2.0000      -0.528866       -14.3912
   7   2.0000      -0.437341       -11.9007
   8   2.0000      -0.374134       -10.1807
   9   0.0000       0.096303         2.6205
  10   0.0000       0.121484         3.3058
  11   0.0000       0.152580         4.1519
  12   0.0000       0.189121         5.1462
  13   0.0000       0.197373         5.3708

MULLIKEN ATOMIC CHARGES
-----------------------
   0 C :    0.000843
   1 O :   -0.001658
   2 H :   -0.012714
   3 H :   -0.001257
   4 H :    0.000011
   5 H :   -0.000015
   6 C :   -0.179766
   7 O :   -0.444033
   8 H :    0.315076
   9 H :    0.120554
  10 H :    0.103073
  11 H :    0.099885
Sum of atomic charges:   -0.0000000

LOEWDIN ATOMIC CHARGES
----------------------
   0 C :   -0.001853
   1 O :   -0.008483
   2 H :   -0.040843
   3 H :   -0.000495
   4 H :   -0.000019
   5 H :   -0.000016
   6 C :   -0.399227
   7 O :   -0.023298
   8 H :    0.163564
   9 H :    0.112765
  10 H :    0.096063
  11 H :    0.101841

  Mayer bond orders larger than 0.1
B(  6-C ,  7-O ) :   0.9983 B(  6-C ,  9-H ) :   0.9723 B(  6-C , 10-H ) :   0.9737
B(  6-C , 11-H ) :   0.9747 B(  7-O ,  8-H ) :   0.8999

Dispersion correction           -0.000243760
FINAL SINGLE POINT ENERGY      -115.734072146703

DIPOLE MOMENT
-------------
                                X             Y             Z
Electronic contribution:     -0.05820      -0.03853      -1.91754
Nuclear contribution   :     -0.17335       0.51541       2.36528
                        -----------------------------------------
Total Dipole Moment    :     -0.23155       0.47688       0.44774
                        -----------------------------------------
Magnitude (a.u.)       :      0.69391
Magnitude (Debye)      :      1.76377

Rotational constants in cm-1:     4.142257     0.831294     0.798554
Rotational constants in MHz : 124181.734130 24921.569037 23940.054649

                             ****ORCA TERMINATED NORMALLY****
TOTAL RUN TIME: 0 days 0 hours 1 minutes 11 seconds 249 msec
