                         Program Version 4.1.2  - RELEASE  -
|  1> #Run DFT-D3 single point of the dimer
|  2> ! wB97X-D3 def2-TZVP TIGHTSCF CHELPG PMODEL PAL8
|  3>
|  4> %base "21-140_DFT_AB"
|  5>
|  6> %scf
|  7> MaxIter 1000
|  8> end
|  9>
| 10> * xyz 0 1
| 11>   C                      -2.546638            1.902959             -2.605679
| 12>   O                      -2.598122            0.758630             -3.458367
| 13>   H                      -3.379653            0.987957             -4.003683
| 14>   H                      -2.358352            2.803489             -3.201803
| 15>   H                      -3.498359            2.075437             -2.061589
| 16>   H                      -1.772985            1.821890             -1.845222
| 17>   C                      -0.476332            5.228080             -3.863871
| 18>   O                      0.558869             4.308490             -3.545075
| 19>   H                      0.259840             3.888630             -2.740243
| 20>   H                      -0.393640            5.740900             -4.847753
| 21>   H                      -1.548750            4.885884             -3.895985
| 22>   H                      -0.448631            6.086702             -3.136892
| 23> *
| 24>
| 25> #Run DFT-D3 single point of the molecule with dimer basis set
| 26> $new_job
| 27> %base "21-140_DFT_A"
| 28> ! wB97X-D3 def2-TZVP TIGHTSCF CHELPG PMODEL
| 29>
| 30> %scf
| 31> MaxIter 1000
| 32> end
| 33>
| 34> * xyz 0 1
| 35>   C                      -2.546638            1.902959             -2.605679
| 36>   O                      -2.598122            0.758630             -3.458367
| 37>   H                      -3.379653            0.987957             -4.003683
| 38>   H                      -2.358352            2.803489             -3.201803
| 39>   H                      -3.498359            2.075437             -2.061589
| 40>   H                      -1.772985            1.821890             -1.845222
| 41>   C                    : -0.476332            5.228080             -3.863871
| 42>   O                    : 0.558869             4.308490             -3.545075
| 43>   H                    : 0.259840             3.888630             -2.740243
| 44>   H                    : -0.393640            5.740900             -4.847753
| 45>   H                    : -1.548750            4.885884             -3.895985
| 46>   H                    : -0.448631            6.086702             -3.136892
| 47> *
| 48>
| 49> #Run DFT-D3 single point of the particle with dimer basis set
| 50> $new_job
| 51> %base "21-140_DFT_B"
| 52> ! wB97X-D3 def2-TZVP TIGHTSCF CHELPG PMODEL
| 53>
| 54> %scf
| 55> MaxIter 1000
| 56> end
| 57>
| 58> * xyz 0 1
| 59>   C                    : -2.546638            1.902959             -2.605679
| 60>   O                    : -2.598122            0.758630             -3.458367
| 61>   H                    : -3.379653            0.987957             -4.003683
| 62>   H                    : -2.358352            2.803489             -3.201803
| 63>   H                    : -3.498359            2.075437             -2.061589
| 64>   H                    : -1.772985            1.821890             -1.845222
| 65>   C                      -0.476332            5.228080             -3.863871
| 66>   O                      0.558869             4.308490             -3.545075
| 67>   H                      0.259840             3.888630             -2.740243
| 68>   H                      -0.393640            5.740900             -4.847753
| 69>   H                      -1.548750            4.885884             -3.895985
| 70>   H                      -0.448631            6.086702             -3.136892
| 71> *
| 72>
| 73>                          ****END OF INPUT****
 Total Charge           Charge          ....    0
 Multiplicity           Mult            ....    1
 Number of Electrons    NEL             ....   36
Dispersion correction           -0.001564460
FINAL SINGLE POINT ENERGY      -231.464650805155
Dispersion correction           -0.000228209
FINAL SINGLE POINT ENERGY      -115.734203316469

CARTESIAN COORDINATES (ANGSTROEM)
---------------------------------
  C     -2.546638    1.902959   -2.605679
  O     -2.598122    0.758630   -3.458367
  H     -3.379653    0.987957   -4.003683
  H     -2.358352    2.803489   -3.201803
  H     -3.498359    2.075437   -2.061589
  H     -1.772985    1.821890   -1.845222
  C     -0.476332    5.228080   -3.863871
  O      0.558869    4.308490   -3.545075
  H      0.259840    3.888630   -2.740243
  H     -0.393640    5.740900   -4.847753
  H     -1.548750    4.885884   -3.895985
  H     -0.448631    6.086702   -3.136892

 Multiplicity           Mult            ....    1
 Number of Electrons    NEL             ....   18
 Basis Dimension        Dim             ....  172

ORBITAL ENERGIES
----------------

  NO   OCC          E(Eh)            E(eV)
   0   2.0000     -19.239054      -523.5213
   1   2.0000     -10.323056      -280.9046
   2   2.0000      -1.141621       -31.0651
   3   2.0000      -0.792243       -21.5580
   4   2.0000      -0.611887       -16.6503
   5   2.0000      -0.535789       -14.5796
   6   2.0000      -0.525895       -14.3103
   7   2.0000      -0.435319       -11.8456
   8   2.0000      -0.376634       -10.2487
   9   0.0000       0.077526         2.1096
  10   0.0000       0.125188         3.4065
  11   0.0000       0.141385         3.8473
  12   0.0000       0.171046         4.6544
  13   0.0000       0.190088         5.1725

MULLIKEN ATOMIC CHARGES
-----------------------
   0 C :   -0.003958
   1 O :    0.000135
   2 H :    0.000004
   3 H :    0.004390
   4 H :    0.000139
   5 H :   -0.000111
   6 C :   -0.193698
   7 O :   -0.456521
   8 H :    0.319278
   9 H :    0.124382
  10 H :    0.099272
  11 H :    0.106689
Sum of atomic charges:   -0.0000000

LOEWDIN ATOMIC CHARGES
----------------------
   0 C :   -0.002910
   1 O :   -0.000016
   2 H :   -0.000002
   3 H :   -0.004694
   4 H :   -0.000038
   5 H :   -0.000470
   6 C :   -0.403379
   7 O :   -0.070206
   8 H :    0.170345
   9 H :    0.111454
  10 H :    0.100885
  11 H :    0.099031

  Mayer bond orders larger than 0.1
B(  6-C ,  7-O ) :   1.0063 B(  6-C ,  9-H ) :   0.9729 B(  6-C , 10-H ) :   0.9634
B(  6-C , 11-H ) :   0.9838 B(  7-O ,  8-H ) :   0.8991

Dispersion correction           -0.000272320
FINAL SINGLE POINT ENERGY      -115.730263936082

DIPOLE MOMENT
-------------
                                X             Y             Z
Electronic contribution:      1.54067      -1.37127       0.27512
Nuclear contribution   :     -2.11719       1.46204       0.08910
                        -----------------------------------------
Total Dipole Moment    :     -0.57652       0.09077       0.36422
                        -----------------------------------------
Magnitude (a.u.)       :      0.68795
Magnitude (Debye)      :      1.74863

Rotational constants in cm-1:     4.339773     0.803215     0.778991
Rotational constants in MHz : 130103.124568 24079.771208 23353.570006

                             ****ORCA TERMINATED NORMALLY****
TOTAL RUN TIME: 0 days 0 hours 1 minutes 0 seconds 673 msec
