                         Program Version 4.1.2  - RELEASE  -
|  1> #Run DFT-D3 single point of the dimer
|  2> ! wB97X-D3 def2-TZVP TIGHTSCF CHELPG PMODEL PAL8
|  3>
|  4> %base "20-207_DFT_AB"
|  5>
|  6> %scf
|  7> MaxIter 1000
|  8> end
|  9>
| 10> * xyz 0 1
| 11>   C                      -2.096116            1.362651             -3.714069
| 12>   O                      -1.653000            2.524179             -4.317174
| 13>   H                      -1.444100            3.157896             -3.600803
| 14>   H                      -1.388523            0.806716             -3.030014
| 15>   H                      -3.077310            1.420086             -3.206591
| 16>   H                      -2.228905            0.632296             -4.545522
| 17>   C                      1.020687             2.972538             -0.782984
| 18>   O                      0.345693             2.531546             -1.988019
| 19>   H                      -0.473600            3.038289             -2.076340
| 20>   H                      1.187707             2.209235             -0.070315
| 21>   H                      2.030811             3.457052             -0.969221
| 22>   H                      0.326062             3.697414             -0.317371
| 23> *
| 24>
| 25> #Run DFT-D3 single point of the molecule with dimer basis set
| 26> $new_job
| 27> %base "20-207_DFT_A"
| 28> ! wB97X-D3 def2-TZVP TIGHTSCF CHELPG PMODEL
| 29>
| 30> %scf
| 31> MaxIter 1000
| 32> end
| 33>
| 34> * xyz 0 1
| 35>   C                      -2.096116            1.362651             -3.714069
| 36>   O                      -1.653000            2.524179             -4.317174
| 37>   H                      -1.444100            3.157896             -3.600803
| 38>   H                      -1.388523            0.806716             -3.030014
| 39>   H                      -3.077310            1.420086             -3.206591
| 40>   H                      -2.228905            0.632296             -4.545522
| 41>   C                    : 1.020687             2.972538             -0.782984
| 42>   O                    : 0.345693             2.531546             -1.988019
| 43>   H                    : -0.473600            3.038289             -2.076340
| 44>   H                    : 1.187707             2.209235             -0.070315
| 45>   H                    : 2.030811             3.457052             -0.969221
| 46>   H                    : 0.326062             3.697414             -0.317371
| 47> *
| 48>
| 49> #Run DFT-D3 single point of the particle with dimer basis set
| 50> $new_job
| 51> %base "20-207_DFT_B"
| 52> ! wB97X-D3 def2-TZVP TIGHTSCF CHELPG PMODEL
| 53>
| 54> %scf
| 55> MaxIter 1000
| 56> end
| 57>
| 58> * xyz 0 1
| 59>   C                    : -2.096116            1.362651             -3.714069
| 60>   O                    : -1.653000            2.524179             -4.317174
| 61>   H                    : -1.444100            3.157896             -3.600803
| 62>   H                    : -1.388523            0.806716             -3.030014
| 63>   H                    : -3.077310            1.420086             -3.206591
| 64>   H                    : -2.228905            0.632296             -4.545522
| 65>   C                      1.020687             2.972538             -0.782984
| 66>   O                      0.345693             2.531546             -1.988019
| 67>   H                      -0.473600            3.038289             -2.076340
| 68>   H                      1.187707             2.209235             -0.070315
| 69>   H                      2.030811             3.457052             -0.969221
| 70>   H                      0.326062             3.697414             -0.317371
| 71> *
| 72>
| 73>                          ****END OF INPUT****
 Total Charge           Charge          ....    0
 Multiplicity           Mult            ....    1
 Number of Electrons    NEL             ....   36
Dispersion correction           -0.001811740
FINAL SINGLE POINT ENERGY      -231.458989131365
Dispersion correction           -0.000262489
FINAL SINGLE POINT ENERGY      -115.733666444095

CARTESIAN COORDINATES (ANGSTROEM)
---------------------------------
  C     -2.096116    1.362651   -3.714069
  O     -1.653000    2.524179   -4.317174
  H     -1.444100    3.157896   -3.600803
  H     -1.388523    0.806716   -3.030014
  H     -3.077310    1.420086   -3.206591
  H     -2.228905    0.632296   -4.545522
  C      1.020687    2.972538   -0.782984
  O      0.345693    2.531546   -1.988019
  H     -0.473600    3.038289   -2.076340
  H      1.187707    2.209235   -0.070315
  H      2.030811    3.457052   -0.969221
  H      0.326062    3.697414   -0.317371

 Multiplicity           Mult            ....    1
 Number of Electrons    NEL             ....   18
 Basis Dimension        Dim             ....  172

ORBITAL ENERGIES
----------------

  NO   OCC          E(Eh)            E(eV)
   0   2.0000     -19.231941      -523.3277
   1   2.0000     -10.319978      -280.8209
   2   2.0000      -1.125316       -30.6214
   3   2.0000      -0.796298       -21.6684
   4   2.0000      -0.604048       -16.4370
   5   2.0000      -0.537467       -14.6252
   6   2.0000      -0.530591       -14.4381
   7   2.0000      -0.429230       -11.6799
   8   2.0000      -0.376680       -10.2500
   9   0.0000       0.084346         2.2952
  10   0.0000       0.126467         3.4414
  11   0.0000       0.150445         4.0938
  12   0.0000       0.184582         5.0227
  13   0.0000       0.193404         5.2628

MULLIKEN ATOMIC CHARGES
-----------------------
   0 C :   -0.002131
   1 O :    0.000536
   2 H :   -0.003056
   3 H :   -0.007041
   4 H :    0.000590
   5 H :   -0.000542
   6 C :   -0.179308
   7 O :   -0.465050
   8 H :    0.320654
   9 H :    0.121726
  10 H :    0.109751
  11 H :    0.103870
Sum of atomic charges:    0.0000000

LOEWDIN ATOMIC CHARGES
----------------------
   0 C :   -0.010858
   1 O :   -0.002538
   2 H :   -0.010727
   3 H :   -0.008217
   4 H :   -0.000124
   5 H :   -0.000103
   6 C :   -0.358566
   7 O :   -0.088969
   8 H :    0.179275
   9 H :    0.091227
  10 H :    0.108095
  11 H :    0.101505

  Mayer bond orders larger than 0.1
B(  6-C ,  7-O ) :   1.0119 B(  6-C ,  9-H ) :   0.9714 B(  6-C , 10-H ) :   0.9688
B(  6-C , 11-H ) :   0.9932 B(  7-O ,  8-H ) :   0.8956

Dispersion correction           -0.000263145
FINAL SINGLE POINT ENERGY      -115.730583445663

DIPOLE MOMENT
-------------
                                X             Y             Z
Electronic contribution:     -0.67742      -0.73781      -1.52898
Nuclear contribution   :      0.43049       1.24259       2.00207
                        -----------------------------------------
Total Dipole Moment    :     -0.24693       0.50478       0.47309
                        -----------------------------------------
Magnitude (a.u.)       :      0.73457
Magnitude (Debye)      :      1.86714

Rotational constants in cm-1:     4.285485     0.795643     0.765353
Rotational constants in MHz : 128475.600388 23852.768008 22944.707253

                             ****ORCA TERMINATED NORMALLY****
TOTAL RUN TIME: 0 days 0 hours 1 minutes 0 seconds 398 msec
