                         Program Version 4.1.2  - RELEASE  -
|  1> #Run DFT-D3 single point of the dimer
|  2> ! wB97X-D3 def2-TZVP TIGHTSCF CHELPG PMODEL PAL8
|  3>
|  4> %base "13-22_DFT_AB"
|  5>
|  6> %scf
|  7> MaxIter 1000
|  8> end
|  9>
| 10> * xyz 0 1
| 11>   C                      8.730308             3.899226             2.149717
| 12>   O                      8.727510             4.515731             3.391171
| 13>   H                      8.971102             3.845364             4.096785
| 14>   H                      7.977863             3.093714             1.981061
| 15>   H                      8.611493             4.563490             1.375801
| 16>   H                      9.723099             3.443428             1.923112
| 17>   C                      7.836181             7.529676             0.058781
| 18>   O                      7.949878             8.883040             0.619364
| 19>   H                      7.217825             9.387910             0.332448
| 20>   H                      7.332988             7.589105             -0.945049
| 21>   H                      8.811352             6.978332             0.054858
| 22>   H                      7.241459             6.823541             0.671581
| 23> *
| 24>
| 25> #Run DFT-D3 single point of the molecule with dimer basis set
| 26> $new_job
| 27> %base "13-22_DFT_A"
| 28> ! wB97X-D3 def2-TZVP TIGHTSCF CHELPG PMODEL
| 29>
| 30> %scf
| 31> MaxIter 1000
| 32> end
| 33>
| 34> * xyz 0 1
| 35>   C                      8.730308             3.899226             2.149717
| 36>   O                      8.727510             4.515731             3.391171
| 37>   H                      8.971102             3.845364             4.096785
| 38>   H                      7.977863             3.093714             1.981061
| 39>   H                      8.611493             4.563490             1.375801
| 40>   H                      9.723099             3.443428             1.923112
| 41>   C                    : 7.836181             7.529676             0.058781
| 42>   O                    : 7.949878             8.883040             0.619364
| 43>   H                    : 7.217825             9.387910             0.332448
| 44>   H                    : 7.332988             7.589105             -0.945049
| 45>   H                    : 8.811352             6.978332             0.054858
| 46>   H                    : 7.241459             6.823541             0.671581
| 47> *
| 48>
| 49> #Run DFT-D3 single point of the particle with dimer basis set
| 50> $new_job
| 51> %base "13-22_DFT_B"
| 52> ! wB97X-D3 def2-TZVP TIGHTSCF CHELPG PMODEL
| 53>
| 54> %scf
| 55> MaxIter 1000
| 56> end
| 57>
| 58> * xyz 0 1
| 59>   C                    : 8.730308             3.899226             2.149717
| 60>   O                    : 8.727510             4.515731             3.391171
| 61>   H                    : 8.971102             3.845364             4.096785
| 62>   H                    : 7.977863             3.093714             1.981061
| 63>   H                    : 8.611493             4.563490             1.375801
| 64>   H                    : 9.723099             3.443428             1.923112
| 65>   C                      7.836181             7.529676             0.058781
| 66>   O                      7.949878             8.883040             0.619364
| 67>   H                      7.217825             9.387910             0.332448
| 68>   H                      7.332988             7.589105             -0.945049
| 69>   H                      8.811352             6.978332             0.054858
| 70>   H                      7.241459             6.823541             0.671581
| 71> *
| 72>
| 73>                          ****END OF INPUT****
 Total Charge           Charge          ....    0
 Multiplicity           Mult            ....    1
 Number of Electrons    NEL             ....   36
Dispersion correction           -0.001266394
FINAL SINGLE POINT ENERGY      -231.459158271566
Dispersion correction           -0.000250196
FINAL SINGLE POINT ENERGY      -115.730092179375

CARTESIAN COORDINATES (ANGSTROEM)
---------------------------------
  C      8.730308    3.899226    2.149717
  O      8.727510    4.515731    3.391171
  H      8.971102    3.845364    4.096785
  H      7.977863    3.093714    1.981061
  H      8.611493    4.563490    1.375801
  H      9.723099    3.443428    1.923112
  C      7.836181    7.529676    0.058781
  O      7.949878    8.883040    0.619364
  H      7.217825    9.387910    0.332448
  H      7.332988    7.589105   -0.945049
  H      8.811352    6.978332    0.054858
  H      7.241459    6.823541    0.671581

 Multiplicity           Mult            ....    1
 Number of Electrons    NEL             ....   18
 Basis Dimension        Dim             ....  172

ORBITAL ENERGIES
----------------

  NO   OCC          E(Eh)            E(eV)
   0   2.0000     -19.229713      -523.2671
   1   2.0000     -10.327341      -281.0212
   2   2.0000      -1.126360       -30.6498
   3   2.0000      -0.796271       -21.6676
   4   2.0000      -0.604434       -16.4475
   5   2.0000      -0.537943       -14.6382
   6   2.0000      -0.514966       -14.0129
   7   2.0000      -0.437558       -11.9066
   8   2.0000      -0.374272       -10.1845
   9   0.0000       0.084649         2.3034
  10   0.0000       0.116528         3.1709
  11   0.0000       0.142936         3.8895
  12   0.0000       0.172355         4.6900
  13   0.0000       0.182047         4.9537

MULLIKEN ATOMIC CHARGES
-----------------------
   0 C :    0.002156
   1 O :    0.000004
   2 H :    0.000008
   3 H :   -0.000130
   4 H :   -0.003543
   5 H :   -0.000082
   6 C :   -0.180521
   7 O :   -0.473275
   8 H :    0.310679
   9 H :    0.110280
  10 H :    0.127388
  11 H :    0.107036
Sum of atomic charges:    0.0000000

LOEWDIN ATOMIC CHARGES
----------------------
   0 C :   -0.001290
   1 O :   -0.000014
   2 H :   -0.000001
   3 H :   -0.000016
   4 H :   -0.002200
   5 H :   -0.000011
   6 C :   -0.356331
   7 O :   -0.101785
   8 H :    0.147387
   9 H :    0.103708
  10 H :    0.113915
  11 H :    0.096638

  Mayer bond orders larger than 0.1
B(  6-C ,  7-O ) :   0.9977 B(  6-C ,  9-H ) :   0.9751 B(  6-C , 10-H ) :   0.9725
B(  6-C , 11-H ) :   0.9670 B(  7-O ,  8-H ) :   0.9055

Dispersion correction           -0.000284559
FINAL SINGLE POINT ENERGY      -115.728964159091

DIPOLE MOMENT
-------------
                                X             Y             Z
Electronic contribution:      0.29903       1.73115       0.72996
Nuclear contribution   :     -0.81965      -1.98476      -1.14567
                        -----------------------------------------
Total Dipole Moment    :     -0.52062      -0.25360      -0.41571
                        -----------------------------------------
Magnitude (a.u.)       :      0.71286
Magnitude (Debye)      :      1.81195

Rotational constants in cm-1:     4.274301     0.775488     0.739842
Rotational constants in MHz : 128140.312142 23248.539532 22179.912393

                             ****ORCA TERMINATED NORMALLY****
TOTAL RUN TIME: 0 days 0 hours 1 minutes 8 seconds 548 msec
