                         Program Version 4.1.2  - RELEASE  -
|  1> #Run DFT-D3 single point of the dimer
|  2> ! wB97X-D3 def2-TZVP TIGHTSCF CHELPG PMODEL PAL8
|  3>
|  4> %base "2-129_DFT_AB"
|  5>
|  6> %scf
|  7> MaxIter 1000
|  8> end
|  9>
| 10> * xyz 0 1
| 11>   C                      0.388477             4.100360             7.695616
| 12>   O                      -0.947411            4.692757             7.944071
| 13>   H                      -1.091817            5.388982             7.292805
| 14>   H                      1.164795             4.910124             7.802517
| 15>   H                      0.723529             3.246645             8.329768
| 16>   H                      0.383064             3.620852             6.668489
| 17>   C                      2.491307             5.850724             10.084084
| 18>   O                      3.225745             4.813369             9.407061
| 19>   H                      2.985207             3.936808             9.698479
| 20>   H                      2.166318             6.630033             9.377900
| 21>   H                      1.538631             5.439613             10.436970
| 22>   H                      3.058017             6.190104             10.986952
| 23> *
| 24>
| 25> #Run DFT-D3 single point of the molecule with dimer basis set
| 26> $new_job
| 27> %base "2-129_DFT_A"
| 28> ! wB97X-D3 def2-TZVP TIGHTSCF CHELPG PMODEL
| 29>
| 30> %scf
| 31> MaxIter 1000
| 32> end
| 33>
| 34> * xyz 0 1
| 35>   C                      0.388477             4.100360             7.695616
| 36>   O                      -0.947411            4.692757             7.944071
| 37>   H                      -1.091817            5.388982             7.292805
| 38>   H                      1.164795             4.910124             7.802517
| 39>   H                      0.723529             3.246645             8.329768
| 40>   H                      0.383064             3.620852             6.668489
| 41>   C                    : 2.491307             5.850724             10.084084
| 42>   O                    : 3.225745             4.813369             9.407061
| 43>   H                    : 2.985207             3.936808             9.698479
| 44>   H                    : 2.166318             6.630033             9.377900
| 45>   H                    : 1.538631             5.439613             10.436970
| 46>   H                    : 3.058017             6.190104             10.986952
| 47> *
| 48>
| 49> #Run DFT-D3 single point of the particle with dimer basis set
| 50> $new_job
| 51> %base "2-129_DFT_B"
| 52> ! wB97X-D3 def2-TZVP TIGHTSCF CHELPG PMODEL
| 53>
| 54> %scf
| 55> MaxIter 1000
| 56> end
| 57>
| 58> * xyz 0 1
| 59>   C                    : 0.388477             4.100360             7.695616
| 60>   O                    : -0.947411            4.692757             7.944071
| 61>   H                    : -1.091817            5.388982             7.292805
| 62>   H                    : 1.164795             4.910124             7.802517
| 63>   H                    : 0.723529             3.246645             8.329768
| 64>   H                    : 0.383064             3.620852             6.668489
| 65>   C                      2.491307             5.850724             10.084084
| 66>   O                      3.225745             4.813369             9.407061
| 67>   H                      2.985207             3.936808             9.698479
| 68>   H                      2.166318             6.630033             9.377900
| 69>   H                      1.538631             5.439613             10.436970
| 70>   H                      3.058017             6.190104             10.986952
| 71> *
| 72>
| 73>                          ****END OF INPUT****
 Total Charge           Charge          ....    0
 Multiplicity           Mult            ....    1
 Number of Electrons    NEL             ....   36
Dispersion correction           -0.002140847
FINAL SINGLE POINT ENERGY      -231.461322239644
Dispersion correction           -0.000286752
FINAL SINGLE POINT ENERGY      -115.726801726765

CARTESIAN COORDINATES (ANGSTROEM)
---------------------------------
  C      0.388477    4.100360    7.695616
  O     -0.947411    4.692757    7.944071
  H     -1.091817    5.388982    7.292805
  H      1.164795    4.910124    7.802517
  H      0.723529    3.246645    8.329768
  H      0.383064    3.620852    6.668489
  C      2.491307    5.850724   10.084084
  O      3.225745    4.813369    9.407061
  H      2.985207    3.936808    9.698479
  H      2.166318    6.630033    9.377900
  H      1.538631    5.439613   10.436970
  H      3.058017    6.190104   10.986952

 Multiplicity           Mult            ....    1
 Number of Electrons    NEL             ....   18
 Basis Dimension        Dim             ....  172

ORBITAL ENERGIES
----------------

  NO   OCC          E(Eh)            E(eV)
   0   2.0000     -19.226669      -523.1843
   1   2.0000     -10.320220      -280.8275
   2   2.0000      -1.125889       -30.6370
   3   2.0000      -0.796241       -21.6668
   4   2.0000      -0.607260       -16.5244
   5   2.0000      -0.545910       -14.8550
   6   2.0000      -0.518356       -14.1052
   7   2.0000      -0.424084       -11.5399
   8   2.0000      -0.375690       -10.2230
   9   0.0000       0.082774         2.2524
  10   0.0000       0.125349         3.4109
  11   0.0000       0.147068         4.0019
  12   0.0000       0.178599         4.8599
  13   0.0000       0.184166         5.0114

MULLIKEN ATOMIC CHARGES
-----------------------
   0 C :   -0.002351
   1 O :   -0.000209
   2 H :   -0.000023
   3 H :    0.000050
   4 H :   -0.004335
   5 H :   -0.000501
   6 C :   -0.171950
   7 O :   -0.493897
   8 H :    0.319039
   9 H :    0.127317
  10 H :    0.106531
  11 H :    0.120331
Sum of atomic charges:    0.0000000

LOEWDIN ATOMIC CHARGES
----------------------
   0 C :   -0.010188
   1 O :   -0.000124
   2 H :   -0.000014
   3 H :   -0.008335
   4 H :   -0.002462
   5 H :   -0.000084
   6 C :   -0.364677
   7 O :   -0.088516
   8 H :    0.161847
   9 H :    0.110445
  10 H :    0.097177
  11 H :    0.104931

  Mayer bond orders larger than 0.1
B(  6-C ,  7-O ) :   0.9751 B(  6-C ,  9-H ) :   0.9734 B(  6-C , 10-H ) :   0.9855
B(  6-C , 11-H ) :   0.9709 B(  7-O ,  8-H ) :   0.8967

Dispersion correction           -0.000261717
FINAL SINGLE POINT ENERGY      -115.732735173533

DIPOLE MOMENT
-------------
                                X             Y             Z
Electronic contribution:      1.05028      -1.09289      -0.91561
Nuclear contribution   :     -1.54864       0.94731       1.39797
                        -----------------------------------------
Total Dipole Moment    :     -0.49836      -0.14558       0.48236
                        -----------------------------------------
Magnitude (a.u.)       :      0.70868
Magnitude (Debye)      :      1.80133

Rotational constants in cm-1:     4.246972     0.796137     0.781414
Rotational constants in MHz : 127321.005586 23867.600693 23426.200065

                             ****ORCA TERMINATED NORMALLY****
TOTAL RUN TIME: 0 days 0 hours 6 minutes 19 seconds 451 msec
