                         Program Version 4.1.2  - RELEASE  -
|  1> #Run DFT-D3 single point of the dimer
|  2> ! wB97X-D3 def2-TZVP TIGHTSCF CHELPG PMODEL PAL8
|  3>
|  4> %base "7-167_DFT_AB"
|  5>
|  6> %scf
|  7> MaxIter 1000
|  8> end
|  9>
| 10> * xyz 0 1
| 11>   C                      0.571452             5.757147             -9.310984
| 12>   O                      0.521628             4.402486             -9.201155
| 13>   H                      0.086074             4.339337             -8.344764
| 14>   H                      0.854972             6.019808             -10.346947
| 15>   H                      -0.502939            6.082742             -9.134544
| 16>   H                      1.119985             6.190823             -8.585950
| 17>   C                      -1.555646            5.231252             -6.405208
| 18>   O                      -0.346762            4.541400             -6.399865
| 19>   H                      0.267018             4.970165             -5.812395
| 20>   H                      -1.461585            6.358154             -6.598062
| 21>   H                      -2.193016            4.839029             -7.166690
| 22>   H                      -2.062145            5.051455             -5.484070
| 23> *
| 24>
| 25> #Run DFT-D3 single point of the molecule with dimer basis set
| 26> $new_job
| 27> %base "7-167_DFT_A"
| 28> ! wB97X-D3 def2-TZVP TIGHTSCF CHELPG PMODEL
| 29>
| 30> %scf
| 31> MaxIter 1000
| 32> end
| 33>
| 34> * xyz 0 1
| 35>   C                      0.571452             5.757147             -9.310984
| 36>   O                      0.521628             4.402486             -9.201155
| 37>   H                      0.086074             4.339337             -8.344764
| 38>   H                      0.854972             6.019808             -10.346947
| 39>   H                      -0.502939            6.082742             -9.134544
| 40>   H                      1.119985             6.190823             -8.585950
| 41>   C                    : -1.555646            5.231252             -6.405208
| 42>   O                    : -0.346762            4.541400             -6.399865
| 43>   H                    : 0.267018             4.970165             -5.812395
| 44>   H                    : -1.461585            6.358154             -6.598062
| 45>   H                    : -2.193016            4.839029             -7.166690
| 46>   H                    : -2.062145            5.051455             -5.484070
| 47> *
| 48>
| 49> #Run DFT-D3 single point of the particle with dimer basis set
| 50> $new_job
| 51> %base "7-167_DFT_B"
| 52> ! wB97X-D3 def2-TZVP TIGHTSCF CHELPG PMODEL
| 53>
| 54> %scf
| 55> MaxIter 1000
| 56> end
| 57>
| 58> * xyz 0 1
| 59>   C                    : 0.571452             5.757147             -9.310984
| 60>   O                    : 0.521628             4.402486             -9.201155
| 61>   H                    : 0.086074             4.339337             -8.344764
| 62>   H                    : 0.854972             6.019808             -10.346947
| 63>   H                    : -0.502939            6.082742             -9.134544
| 64>   H                    : 1.119985             6.190823             -8.585950
| 65>   C                      -1.555646            5.231252             -6.405208
| 66>   O                      -0.346762            4.541400             -6.399865
| 67>   H                      0.267018             4.970165             -5.812395
| 68>   H                      -1.461585            6.358154             -6.598062
| 69>   H                      -2.193016            4.839029             -7.166690
| 70>   H                      -2.062145            5.051455             -5.484070
| 71> *
| 72>
| 73>                          ****END OF INPUT****
 Total Charge           Charge          ....    0
 Multiplicity           Mult            ....    1
 Number of Electrons    NEL             ....   36
Dispersion correction           -0.002343093
FINAL SINGLE POINT ENERGY      -231.464343568642
Dispersion correction           -0.000171135
FINAL SINGLE POINT ENERGY      -115.721245308944

CARTESIAN COORDINATES (ANGSTROEM)
---------------------------------
  C      0.571452    5.757147   -9.310984
  O      0.521628    4.402486   -9.201155
  H      0.086074    4.339337   -8.344764
  H      0.854972    6.019808  -10.346947
  H     -0.502939    6.082742   -9.134544
  H      1.119985    6.190823   -8.585950
  C     -1.555646    5.231252   -6.405208
  O     -0.346762    4.541400   -6.399865
  H      0.267018    4.970165   -5.812395
  H     -1.461585    6.358154   -6.598062
  H     -2.193016    4.839029   -7.166690
  H     -2.062145    5.051455   -5.484070

 Multiplicity           Mult            ....    1
 Number of Electrons    NEL             ....   18
 Basis Dimension        Dim             ....  172

ORBITAL ENERGIES
----------------

  NO   OCC          E(Eh)            E(eV)
   0   2.0000     -19.229936      -523.2732
   1   2.0000     -10.310807      -280.5713
   2   2.0000      -1.144469       -31.1426
   3   2.0000      -0.798077       -21.7168
   4   2.0000      -0.613912       -16.7054
   5   2.0000      -0.546197       -14.8628
   6   2.0000      -0.533324       -14.5125
   7   2.0000      -0.430028       -11.7016
   8   2.0000      -0.373708       -10.1691
   9   0.0000       0.094017         2.5583
  10   0.0000       0.133492         3.6325
  11   0.0000       0.152394         4.1469
  12   0.0000       0.179018         4.8713
  13   0.0000       0.201636         5.4868

MULLIKEN ATOMIC CHARGES
-----------------------
   0 C :    0.002507
   1 O :   -0.001663
   2 H :   -0.000745
   3 H :   -0.000264
   4 H :   -0.000223
   5 H :   -0.006545
   6 C :   -0.167704
   7 O :   -0.474866
   8 H :    0.315412
   9 H :    0.098893
  10 H :    0.121706
  11 H :    0.113491
Sum of atomic charges:   -0.0000000

LOEWDIN ATOMIC CHARGES
----------------------
   0 C :   -0.008839
   1 O :   -0.004542
   2 H :   -0.034311
   3 H :   -0.000126
   4 H :   -0.002127
   5 H :   -0.002325
   6 C :   -0.395305
   7 O :   -0.018805
   8 H :    0.165596
   9 H :    0.104182
  10 H :    0.105252
  11 H :    0.091350

  Mayer bond orders larger than 0.1
B(  6-C ,  7-O ) :   0.9819 B(  6-C ,  9-H ) :   0.9741 B(  6-C , 10-H ) :   0.9770
B(  6-C , 11-H ) :   0.9755 B(  7-O ,  8-H ) :   0.8971

Dispersion correction           -0.000237677
FINAL SINGLE POINT ENERGY      -115.734677275030

DIPOLE MOMENT
-------------
                                X             Y             Z
Electronic contribution:      1.52632      -1.01884      -0.06913
Nuclear contribution   :     -1.62275       1.52833       0.44872
                        -----------------------------------------
Total Dipole Moment    :     -0.09643       0.50949       0.37959
                        -----------------------------------------
Magnitude (a.u.)       :      0.64263
Magnitude (Debye)      :      1.63343

Rotational constants in cm-1:     4.351750     0.848086     0.821047
Rotational constants in MHz : 130462.177985 25424.990898 24614.378657

                             ****ORCA TERMINATED NORMALLY****
TOTAL RUN TIME: 0 days 0 hours 1 minutes 4 seconds 977 msec
