                         Program Version 4.1.2  - RELEASE  -
|  1> #Run DFT-D3 single point of the dimer
|  2> ! wB97X-D3 def2-TZVP TIGHTSCF CHELPG PMODEL PAL8
|  3>
|  4> %base "16-84_DFT_AB"
|  5>
|  6> %scf
|  7> MaxIter 1000
|  8> end
|  9>
| 10> * xyz 0 1
| 11>   C                      1.485028             2.866668             11.191932
| 12>   O                      1.771618             3.996363             10.331948
| 13>   H                      2.698560             4.135901             10.339584
| 14>   H                      1.582231             2.996211             12.246738
| 15>   H                      0.440987             2.521089             11.096234
| 16>   H                      2.100099             1.998036             10.935745
| 17>   C                      5.110090             6.030878             9.552916
| 18>   O                      4.462541             4.833311             9.976876
| 19>   H                      5.022148             4.085320             9.689814
| 20>   H                      6.186430             6.054454             9.802716
| 21>   H                      4.988280             6.220196             8.565189
| 22>   H                      4.597550             6.913125             9.944467
| 23> *
| 24>
| 25> #Run DFT-D3 single point of the molecule with dimer basis set
| 26> $new_job
| 27> %base "16-84_DFT_A"
| 28> ! wB97X-D3 def2-TZVP TIGHTSCF CHELPG PMODEL
| 29>
| 30> %scf
| 31> MaxIter 1000
| 32> end
| 33>
| 34> * xyz 0 1
| 35>   C                      1.485028             2.866668             11.191932
| 36>   O                      1.771618             3.996363             10.331948
| 37>   H                      2.698560             4.135901             10.339584
| 38>   H                      1.582231             2.996211             12.246738
| 39>   H                      0.440987             2.521089             11.096234
| 40>   H                      2.100099             1.998036             10.935745
| 41>   C                    : 5.110090             6.030878             9.552916
| 42>   O                    : 4.462541             4.833311             9.976876
| 43>   H                    : 5.022148             4.085320             9.689814
| 44>   H                    : 6.186430             6.054454             9.802716
| 45>   H                    : 4.988280             6.220196             8.565189
| 46>   H                    : 4.597550             6.913125             9.944467
| 47> *
| 48>
| 49> #Run DFT-D3 single point of the particle with dimer basis set
| 50> $new_job
| 51> %base "16-84_DFT_B"
| 52> ! wB97X-D3 def2-TZVP TIGHTSCF CHELPG PMODEL
| 53>
| 54> %scf
| 55> MaxIter 1000
| 56> end
| 57>
| 58> * xyz 0 1
| 59>   C                    : 1.485028             2.866668             11.191932
| 60>   O                    : 1.771618             3.996363             10.331948
| 61>   H                    : 2.698560             4.135901             10.339584
| 62>   H                    : 1.582231             2.996211             12.246738
| 63>   H                    : 0.440987             2.521089             11.096234
| 64>   H                    : 2.100099             1.998036             10.935745
| 65>   C                      5.110090             6.030878             9.552916
| 66>   O                      4.462541             4.833311             9.976876
| 67>   H                      5.022148             4.085320             9.689814
| 68>   H                      6.186430             6.054454             9.802716
| 69>   H                      4.988280             6.220196             8.565189
| 70>   H                      4.597550             6.913125             9.944467
| 71> *
| 72>
| 73>                          ****END OF INPUT****
 Total Charge           Charge          ....    0
 Multiplicity           Mult            ....    1
 Number of Electrons    NEL             ....   36
Dispersion correction           -0.001459305
FINAL SINGLE POINT ENERGY      -231.468239219702
Dispersion correction           -0.000271295
FINAL SINGLE POINT ENERGY      -115.732575417412

CARTESIAN COORDINATES (ANGSTROEM)
---------------------------------
  C      1.485028    2.866668   11.191932
  O      1.771618    3.996363   10.331948
  H      2.698560    4.135901   10.339584
  H      1.582231    2.996211   12.246738
  H      0.440987    2.521089   11.096234
  H      2.100099    1.998036   10.935745
  C      5.110090    6.030878    9.552916
  O      4.462541    4.833311    9.976876
  H      5.022148    4.085320    9.689814
  H      6.186430    6.054454    9.802716
  H      4.988280    6.220196    8.565189
  H      4.597550    6.913125    9.944467

 Multiplicity           Mult            ....    1
 Number of Electrons    NEL             ....   18
 Basis Dimension        Dim             ....  172

ORBITAL ENERGIES
----------------

  NO   OCC          E(Eh)            E(eV)
   0   2.0000     -19.233280      -523.3641
   1   2.0000     -10.305505      -280.4270
   2   2.0000      -1.129849       -30.7448
   3   2.0000      -0.803430       -21.8625
   4   2.0000      -0.607560       -16.5326
   5   2.0000      -0.549505       -14.9528
   6   2.0000      -0.522832       -14.2270
   7   2.0000      -0.434844       -11.8327
   8   2.0000      -0.375466       -10.2169
   9   0.0000       0.097214         2.6453
  10   0.0000       0.121512         3.3065
  11   0.0000       0.152365         4.1461
  12   0.0000       0.189988         5.1698
  13   0.0000       0.206238         5.6120

MULLIKEN ATOMIC CHARGES
-----------------------
   0 C :    0.001069
   1 O :    0.000301
   2 H :   -0.012395
   3 H :   -0.000150
   4 H :   -0.000044
   5 H :   -0.000376
   6 C :   -0.162942
   7 O :   -0.470532
   8 H :    0.315690
   9 H :    0.102622
  10 H :    0.112840
  11 H :    0.113917
Sum of atomic charges:   -0.0000000

LOEWDIN ATOMIC CHARGES
----------------------
   0 C :   -0.001322
   1 O :   -0.006777
   2 H :   -0.043878
   3 H :   -0.000043
   4 H :   -0.000021
   5 H :   -0.000080
   6 C :   -0.371256
   7 O :   -0.047310
   8 H :    0.180366
   9 H :    0.101260
  10 H :    0.077326
  11 H :    0.111735

  Mayer bond orders larger than 0.1
B(  6-C ,  7-O ) :   0.9963 B(  6-C ,  9-H ) :   0.9754 B(  6-C , 10-H ) :   0.9745
B(  6-C , 11-H ) :   0.9795 B(  7-O ,  8-H ) :   0.8950

Dispersion correction           -0.000243486
FINAL SINGLE POINT ENERGY      -115.729154185706

DIPOLE MOMENT
-------------
                                X             Y             Z
Electronic contribution:     -0.89427      -1.49669       0.57995
Nuclear contribution   :      1.49876       1.53806      -0.96297
                        -----------------------------------------
Total Dipole Moment    :      0.60449       0.04137      -0.38302
                        -----------------------------------------
Magnitude (a.u.)       :      0.71682
Magnitude (Debye)      :      1.82200

Rotational constants in cm-1:     4.485194     0.823147     0.784319
Rotational constants in MHz : 134462.733762 24677.338217 23513.306575

                             ****ORCA TERMINATED NORMALLY****
TOTAL RUN TIME: 0 days 0 hours 0 minutes 54 seconds 826 msec
