                         Program Version 4.1.2  - RELEASE  -
|  1> #Run DFT-D3 single point of the dimer
|  2> ! wB97X-D3 def2-TZVP TIGHTSCF CHELPG PMODEL PAL8
|  3>
|  4> %base "13-136_DFT_AB"
|  5>
|  6> %scf
|  7> MaxIter 1000
|  8> end
|  9>
| 10> * xyz 0 1
| 11>   C                      -6.083136            5.885562             7.272078
| 12>   O                      -5.275935            6.974609             7.448054
| 13>   H                      -4.771461            7.052453             6.604360
| 14>   H                      -6.995972            5.890797             7.959285
| 15>   H                      -6.525911            5.758707             6.203153
| 16>   H                      -5.455596            4.991916             7.471403
| 17>   C                      -2.669499            7.020750             9.637858
| 18>   O                      -1.999993            6.537438             10.806009
| 19>   H                      -1.723550            7.340090             11.326019
| 20>   H                      -3.078650            6.164774             9.039499
| 21>   H                      -3.561585            7.594151             9.931221
| 22>   H                      -2.019952            7.725249             9.114997
| 23> *
| 24>
| 25> #Run DFT-D3 single point of the molecule with dimer basis set
| 26> $new_job
| 27> %base "13-136_DFT_A"
| 28> ! wB97X-D3 def2-TZVP TIGHTSCF CHELPG PMODEL
| 29>
| 30> %scf
| 31> MaxIter 1000
| 32> end
| 33>
| 34> * xyz 0 1
| 35>   C                      -6.083136            5.885562             7.272078
| 36>   O                      -5.275935            6.974609             7.448054
| 37>   H                      -4.771461            7.052453             6.604360
| 38>   H                      -6.995972            5.890797             7.959285
| 39>   H                      -6.525911            5.758707             6.203153
| 40>   H                      -5.455596            4.991916             7.471403
| 41>   C                    : -2.669499            7.020750             9.637858
| 42>   O                    : -1.999993            6.537438             10.806009
| 43>   H                    : -1.723550            7.340090             11.326019
| 44>   H                    : -3.078650            6.164774             9.039499
| 45>   H                    : -3.561585            7.594151             9.931221
| 46>   H                    : -2.019952            7.725249             9.114997
| 47> *
| 48>
| 49> #Run DFT-D3 single point of the particle with dimer basis set
| 50> $new_job
| 51> %base "13-136_DFT_B"
| 52> ! wB97X-D3 def2-TZVP TIGHTSCF CHELPG PMODEL
| 53>
| 54> %scf
| 55> MaxIter 1000
| 56> end
| 57>
| 58> * xyz 0 1
| 59>   C                    : -6.083136            5.885562             7.272078
| 60>   O                    : -5.275935            6.974609             7.448054
| 61>   H                    : -4.771461            7.052453             6.604360
| 62>   H                    : -6.995972            5.890797             7.959285
| 63>   H                    : -6.525911            5.758707             6.203153
| 64>   H                    : -5.455596            4.991916             7.471403
| 65>   C                      -2.669499            7.020750             9.637858
| 66>   O                      -1.999993            6.537438             10.806009
| 67>   H                      -1.723550            7.340090             11.326019
| 68>   H                      -3.078650            6.164774             9.039499
| 69>   H                      -3.561585            7.594151             9.931221
| 70>   H                      -2.019952            7.725249             9.114997
| 71> *
| 72>
| 73>                          ****END OF INPUT****
 Total Charge           Charge          ....    0
 Multiplicity           Mult            ....    1
 Number of Electrons    NEL             ....   36
Dispersion correction           -0.001553808
FINAL SINGLE POINT ENERGY      -231.462740896173
Dispersion correction           -0.000234275
FINAL SINGLE POINT ENERGY      -115.728534449205

CARTESIAN COORDINATES (ANGSTROEM)
---------------------------------
  C     -6.083136    5.885562    7.272078
  O     -5.275935    6.974609    7.448054
  H     -4.771461    7.052453    6.604360
  H     -6.995972    5.890797    7.959285
  H     -6.525911    5.758707    6.203153
  H     -5.455596    4.991916    7.471403
  C     -2.669499    7.020750    9.637858
  O     -1.999993    6.537438   10.806009
  H     -1.723550    7.340090   11.326019
  H     -3.078650    6.164774    9.039499
  H     -3.561585    7.594151    9.931221
  H     -2.019952    7.725249    9.114997

 Multiplicity           Mult            ....    1
 Number of Electrons    NEL             ....   18
 Basis Dimension        Dim             ....  172

ORBITAL ENERGIES
----------------

  NO   OCC          E(Eh)            E(eV)
   0   2.0000     -19.231711      -523.3215
   1   2.0000     -10.317665      -280.7579
   2   2.0000      -1.124976       -30.6121
   3   2.0000      -0.789078       -21.4719
   4   2.0000      -0.603923       -16.4336
   5   2.0000      -0.541743       -14.7416
   6   2.0000      -0.519151       -14.1268
   7   2.0000      -0.435576       -11.8526
   8   2.0000      -0.369912       -10.0658
   9   0.0000       0.081720         2.2237
  10   0.0000       0.110393         3.0039
  11   0.0000       0.147488         4.0133
  12   0.0000       0.170460         4.6385
  13   0.0000       0.178654         4.8614

MULLIKEN ATOMIC CHARGES
-----------------------
   0 C :   -0.000181
   1 O :   -0.000386
   2 H :   -0.000009
   3 H :    0.000012
   4 H :   -0.000002
   5 H :   -0.000272
   6 C :   -0.174601
   7 O :   -0.477561
   8 H :    0.315649
   9 H :    0.127744
  10 H :    0.102717
  11 H :    0.106891
Sum of atomic charges:   -0.0000000

LOEWDIN ATOMIC CHARGES
----------------------
   0 C :   -0.001268
   1 O :   -0.002304
   2 H :   -0.000412
   3 H :   -0.000022
   4 H :   -0.000009
   5 H :   -0.000497
   6 C :   -0.381909
   7 O :   -0.108127
   8 H :    0.188042
   9 H :    0.117228
  10 H :    0.094821
  11 H :    0.094457

  Mayer bond orders larger than 0.1
B(  6-C ,  7-O ) :   0.9961 B(  6-C ,  9-H ) :   0.9693 B(  6-C , 10-H ) :   0.9764
B(  6-C , 11-H ) :   0.9744 B(  7-O ,  8-H ) :   0.8945

Dispersion correction           -0.000235708
FINAL SINGLE POINT ENERGY      -115.732575831916

DIPOLE MOMENT
-------------
                                X             Y             Z
Electronic contribution:      0.89525      -0.81879       1.33561
Nuclear contribution   :     -1.00836       1.50962      -1.47505
                        -----------------------------------------
Total Dipole Moment    :     -0.11311       0.69083      -0.13944
                        -----------------------------------------
Magnitude (a.u.)       :      0.71379
Magnitude (Debye)      :      1.81430

Rotational constants in cm-1:     4.114206     0.822520     0.782573
Rotational constants in MHz : 123340.792184 24658.525348 23460.951098

                             ****ORCA TERMINATED NORMALLY****
TOTAL RUN TIME: 0 days 0 hours 1 minutes 10 seconds 224 msec
