                         Program Version 4.1.2  - RELEASE  -
|  1> #Run DFT-D3 single point of the dimer
|  2> ! wB97X-D3 def2-TZVP TIGHTSCF CHELPG PMODEL PAL8
|  3>
|  4> %base "2-9_DFT_AB"
|  5>
|  6> %scf
|  7> MaxIter 1000
|  8> end
|  9>
| 10> * xyz 0 1
| 11>   C                      3.632446             -6.994954            3.184119
| 12>   O                      4.407674             -7.329784            1.949356
| 13>   H                      4.084722             -6.757850            1.277197
| 14>   H                      3.654814             -7.907382            3.783212
| 15>   H                      4.085916             -6.202538            3.691906
| 16>   H                      2.536765             -6.837212            2.963092
| 17>   C                      2.216168             -10.583670           6.792271
| 18>   O                      1.676542             -10.073466           5.612727
| 19>   H                      2.289929             -10.296612           4.873086
| 20>   H                      1.920652             -11.635590           6.979439
| 21>   H                      3.230282             -10.410300           6.926087
| 22>   H                      1.813010             -10.092693           7.607417
| 23> *
| 24>
| 25> #Run DFT-D3 single point of the molecule with dimer basis set
| 26> $new_job
| 27> %base "2-9_DFT_A"
| 28> ! wB97X-D3 def2-TZVP TIGHTSCF CHELPG PMODEL
| 29>
| 30> %scf
| 31> MaxIter 1000
| 32> end
| 33>
| 34> * xyz 0 1
| 35>   C                      3.632446             -6.994954            3.184119
| 36>   O                      4.407674             -7.329784            1.949356
| 37>   H                      4.084722             -6.757850            1.277197
| 38>   H                      3.654814             -7.907382            3.783212
| 39>   H                      4.085916             -6.202538            3.691906
| 40>   H                      2.536765             -6.837212            2.963092
| 41>   C                    : 2.216168             -10.583670           6.792271
| 42>   O                    : 1.676542             -10.073466           5.612727
| 43>   H                    : 2.289929             -10.296612           4.873086
| 44>   H                    : 1.920652             -11.635590           6.979439
| 45>   H                    : 3.230282             -10.410300           6.926087
| 46>   H                    : 1.813010             -10.092693           7.607417
| 47> *
| 48>
| 49> #Run DFT-D3 single point of the particle with dimer basis set
| 50> $new_job
| 51> %base "2-9_DFT_B"
| 52> ! wB97X-D3 def2-TZVP TIGHTSCF CHELPG PMODEL
| 53>
| 54> %scf
| 55> MaxIter 1000
| 56> end
| 57>
| 58> * xyz 0 1
| 59>   C                    : 3.632446             -6.994954            3.184119
| 60>   O                    : 4.407674             -7.329784            1.949356
| 61>   H                    : 4.084722             -6.757850            1.277197
| 62>   H                    : 3.654814             -7.907382            3.783212
| 63>   H                    : 4.085916             -6.202538            3.691906
| 64>   H                    : 2.536765             -6.837212            2.963092
| 65>   C                      2.216168             -10.583670           6.792271
| 66>   O                      1.676542             -10.073466           5.612727
| 67>   H                      2.289929             -10.296612           4.873086
| 68>   H                      1.920652             -11.635590           6.979439
| 69>   H                      3.230282             -10.410300           6.926087
| 70>   H                      1.813010             -10.092693           7.607417
| 71> *
| 72>
| 73>                          ****END OF INPUT****
 Total Charge           Charge          ....    0
 Multiplicity           Mult            ....    1
 Number of Electrons    NEL             ....   36
Dispersion correction           -0.000985898
FINAL SINGLE POINT ENERGY      -231.460518115621
Dispersion correction           -0.000266601
FINAL SINGLE POINT ENERGY      -115.730304194063

CARTESIAN COORDINATES (ANGSTROEM)
---------------------------------
  C      3.632446   -6.994954    3.184119
  O      4.407674   -7.329784    1.949356
  H      4.084722   -6.757850    1.277197
  H      3.654814   -7.907382    3.783212
  H      4.085916   -6.202538    3.691906
  H      2.536765   -6.837212    2.963092
  C      2.216168  -10.583670    6.792271
  O      1.676542  -10.073466    5.612727
  H      2.289929  -10.296612    4.873086
  H      1.920652  -11.635590    6.979439
  H      3.230282  -10.410300    6.926087
  H      1.813010  -10.092693    7.607417

 Multiplicity           Mult            ....    1
 Number of Electrons    NEL             ....   18
 Basis Dimension        Dim             ....  172

ORBITAL ENERGIES
----------------

  NO   OCC          E(Eh)            E(eV)
   0   2.0000     -19.233928      -523.3818
   1   2.0000     -10.298171      -280.2275
   2   2.0000      -1.137683       -30.9579
   3   2.0000      -0.804119       -21.8812
   4   2.0000      -0.613492       -16.6940
   5   2.0000      -0.547459       -14.8971
   6   2.0000      -0.533195       -14.5090
   7   2.0000      -0.431266       -11.7353
   8   2.0000      -0.374680       -10.1955
   9   0.0000       0.084157         2.2900
  10   0.0000       0.117720         3.2033
  11   0.0000       0.153818         4.1856
  12   0.0000       0.174171         4.7394
  13   0.0000       0.198630         5.4050

MULLIKEN ATOMIC CHARGES
-----------------------
   0 C :    0.003785
   1 O :   -0.000065
   2 H :   -0.000005
   3 H :   -0.007600
   4 H :   -0.000244
   5 H :   -0.000341
   6 C :   -0.160406
   7 O :   -0.470156
   8 H :    0.319334
   9 H :    0.093420
  10 H :    0.108234
  11 H :    0.114043
Sum of atomic charges:    0.0000000

LOEWDIN ATOMIC CHARGES
----------------------
   0 C :   -0.000782
   1 O :   -0.000015
   2 H :   -0.000001
   3 H :   -0.002419
   4 H :   -0.000005
   5 H :   -0.000084
   6 C :   -0.396861
   7 O :   -0.067669
   8 H :    0.186705
   9 H :    0.099427
  10 H :    0.085411
  11 H :    0.096294

  Mayer bond orders larger than 0.1
B(  6-C ,  7-O ) :   1.0166 B(  6-C ,  9-H ) :   0.9816 B(  6-C , 10-H ) :   0.9777
B(  6-C , 11-H ) :   0.9753 B(  7-O ,  8-H ) :   0.8940

Dispersion correction           -0.000238871
FINAL SINGLE POINT ENERGY      -115.729175944848

DIPOLE MOMENT
-------------
                                X             Y             Z
Electronic contribution:     -0.72928       0.73490      -1.52683
Nuclear contribution   :      1.32615      -1.03462       1.55963
                        -----------------------------------------
Total Dipole Moment    :      0.59688      -0.29972       0.03280
                        -----------------------------------------
Magnitude (a.u.)       :      0.66871
Magnitude (Debye)      :      1.69972

Rotational constants in cm-1:     4.571656     0.843285     0.823579
Rotational constants in MHz : 137054.794903 25281.037012 24690.282585

                             ****ORCA TERMINATED NORMALLY****
TOTAL RUN TIME: 0 days 0 hours 6 minutes 23 seconds 656 msec
