                         Program Version 4.1.2  - RELEASE  -
|  1> #Run DFT-D3 single point of the dimer
|  2> ! wB97X-D3 def2-TZVP TIGHTSCF CHELPG PMODEL PAL8
|  3>
|  4> %base "8-44_DFT_AB"
|  5>
|  6> %scf
|  7> MaxIter 1000
|  8> end
|  9>
| 10> * xyz 0 1
| 11>   C                      8.552612             -7.935893            10.071047
| 12>   O                      7.574977             -7.005132            9.555671
| 13>   H                      7.250363             -7.410425            8.741800
| 14>   H                      8.886957             -7.615184            11.078115
| 15>   H                      8.107898             -8.926959            10.312213
| 16>   H                      9.505592             -8.028052            9.544466
| 17>   C                      6.764283             -9.797262            4.796798
| 18>   O                      7.854235             -9.253086            5.558836
| 19>   H                      8.440373             -8.669675            5.044567
| 20>   H                      6.126712             -10.337744           5.499328
| 21>   H                      6.264568             -8.981207            4.208230
| 22>   H                      7.082795             -10.555114           4.057515
| 23> *
| 24>
| 25> #Run DFT-D3 single point of the molecule with dimer basis set
| 26> $new_job
| 27> %base "8-44_DFT_A"
| 28> ! wB97X-D3 def2-TZVP TIGHTSCF CHELPG PMODEL
| 29>
| 30> %scf
| 31> MaxIter 1000
| 32> end
| 33>
| 34> * xyz 0 1
| 35>   C                      8.552612             -7.935893            10.071047
| 36>   O                      7.574977             -7.005132            9.555671
| 37>   H                      7.250363             -7.410425            8.741800
| 38>   H                      8.886957             -7.615184            11.078115
| 39>   H                      8.107898             -8.926959            10.312213
| 40>   H                      9.505592             -8.028052            9.544466
| 41>   C                    : 6.764283             -9.797262            4.796798
| 42>   O                    : 7.854235             -9.253086            5.558836
| 43>   H                    : 8.440373             -8.669675            5.044567
| 44>   H                    : 6.126712             -10.337744           5.499328
| 45>   H                    : 6.264568             -8.981207            4.208230
| 46>   H                    : 7.082795             -10.555114           4.057515
| 47> *
| 48>
| 49> #Run DFT-D3 single point of the particle with dimer basis set
| 50> $new_job
| 51> %base "8-44_DFT_B"
| 52> ! wB97X-D3 def2-TZVP TIGHTSCF CHELPG PMODEL
| 53>
| 54> %scf
| 55> MaxIter 1000
| 56> end
| 57>
| 58> * xyz 0 1
| 59>   C                    : 8.552612             -7.935893            10.071047
| 60>   O                    : 7.574977             -7.005132            9.555671
| 61>   H                    : 7.250363             -7.410425            8.741800
| 62>   H                    : 8.886957             -7.615184            11.078115
| 63>   H                    : 8.107898             -8.926959            10.312213
| 64>   H                    : 9.505592             -8.028052            9.544466
| 65>   C                      6.764283             -9.797262            4.796798
| 66>   O                      7.854235             -9.253086            5.558836
| 67>   H                      8.440373             -8.669675            5.044567
| 68>   H                      6.126712             -10.337744           5.499328
| 69>   H                      6.264568             -8.981207            4.208230
| 70>   H                      7.082795             -10.555114           4.057515
| 71> *
| 72>
| 73>                          ****END OF INPUT****
 Total Charge           Charge          ....    0
 Multiplicity           Mult            ....    1
 Number of Electrons    NEL             ....   36
Dispersion correction           -0.000852277
FINAL SINGLE POINT ENERGY      -231.468139673092
Dispersion correction           -0.000277159
FINAL SINGLE POINT ENERGY      -115.732233502753

CARTESIAN COORDINATES (ANGSTROEM)
---------------------------------
  C      8.552612   -7.935893   10.071047
  O      7.574977   -7.005132    9.555671
  H      7.250363   -7.410425    8.741800
  H      8.886957   -7.615184   11.078115
  H      8.107898   -8.926959   10.312213
  H      9.505592   -8.028052    9.544466
  C      6.764283   -9.797262    4.796798
  O      7.854235   -9.253086    5.558836
  H      8.440373   -8.669675    5.044567
  H      6.126712  -10.337744    5.499328
  H      6.264568   -8.981207    4.208230
  H      7.082795  -10.555114    4.057515

 Multiplicity           Mult            ....    1
 Number of Electrons    NEL             ....   18
 Basis Dimension        Dim             ....  172

ORBITAL ENERGIES
----------------

  NO   OCC          E(Eh)            E(eV)
   0   2.0000     -19.228645      -523.2380
   1   2.0000     -10.320355      -280.8311
   2   2.0000      -1.122743       -30.5514
   3   2.0000      -0.794598       -21.6221
   4   2.0000      -0.606165       -16.4946
   5   2.0000      -0.537051       -14.6139
   6   2.0000      -0.521275       -14.1846
   7   2.0000      -0.430740       -11.7210
   8   2.0000      -0.370798       -10.0899
   9   0.0000       0.094115         2.5610
  10   0.0000       0.115634         3.1466
  11   0.0000       0.151410         4.1201
  12   0.0000       0.174801         4.7566
  13   0.0000       0.198587         5.4038

MULLIKEN ATOMIC CHARGES
-----------------------
   0 C :   -0.000129
   1 O :    0.000302
   2 H :   -0.002089
   3 H :   -0.000034
   4 H :    0.000003
   5 H :   -0.000133
   6 C :   -0.154837
   7 O :   -0.491710
   8 H :    0.316423
   9 H :    0.125894
  10 H :    0.103989
  11 H :    0.102320
Sum of atomic charges:    0.0000000

LOEWDIN ATOMIC CHARGES
----------------------
   0 C :   -0.000297
   1 O :   -0.000035
   2 H :   -0.001327
   3 H :   -0.000009
   4 H :   -0.000009
   5 H :   -0.000053
   6 C :   -0.370792
   7 O :   -0.104358
   8 H :    0.171581
   9 H :    0.109586
  10 H :    0.100954
  11 H :    0.094759

  Mayer bond orders larger than 0.1
B(  6-C ,  7-O ) :   0.9900 B(  6-C ,  9-H ) :   0.9732 B(  6-C , 10-H ) :   0.9774
B(  6-C , 11-H ) :   0.9683 B(  7-O ,  8-H ) :   0.8935

Dispersion correction           -0.000268595
FINAL SINGLE POINT ENERGY      -115.733984994792

DIPOLE MOMENT
-------------
                                X             Y             Z
Electronic contribution:      1.25801       0.61896       1.07843
Nuclear contribution   :     -1.33155      -0.48670      -1.73171
                        -----------------------------------------
Total Dipole Moment    :     -0.07354       0.13225      -0.65328
                        -----------------------------------------
Magnitude (a.u.)       :      0.67058
Magnitude (Debye)      :      1.70448

Rotational constants in cm-1:     4.222107     0.805905     0.771815
Rotational constants in MHz : 126575.598386 24160.418772 23138.432615

                             ****ORCA TERMINATED NORMALLY****
TOTAL RUN TIME: 0 days 0 hours 0 minutes 43 seconds 240 msec
