                         Program Version 4.1.2  - RELEASE  -
|  1> #Run DFT-D3 single point of the dimer
|  2> ! wB97X-D3 def2-TZVP TIGHTSCF CHELPG PMODEL PAL8
|  3>
|  4> %base "19-188_DFT_AB"
|  5>
|  6> %scf
|  7> MaxIter 1000
|  8> end
|  9>
| 10> * xyz 0 1
| 11>   C                      -0.662530            5.587864             -1.390040
| 12>   O                      -2.030832            5.697666             -1.408838
| 13>   H                      -2.366358            4.785537             -1.711224
| 14>   H                      -0.245533            6.622933             -1.406248
| 15>   H                      -0.230073            5.120611             -0.446615
| 16>   H                      -0.321573            5.166850             -2.353661
| 17>   C                      -3.991973            7.682110             0.307530
| 18>   O                      -4.418876            6.312322             0.390519
| 19>   H                      -3.885738            5.778613             -0.162751
| 20>   H                      -2.957614            7.755466             0.729680
| 21>   H                      -3.795129            7.844099             -0.789331
| 22>   H                      -4.612794            8.412655             0.832491
| 23> *
| 24>
| 25> #Run DFT-D3 single point of the molecule with dimer basis set
| 26> $new_job
| 27> %base "19-188_DFT_A"
| 28> ! wB97X-D3 def2-TZVP TIGHTSCF CHELPG PMODEL
| 29>
| 30> %scf
| 31> MaxIter 1000
| 32> end
| 33>
| 34> * xyz 0 1
| 35>   C                      -0.662530            5.587864             -1.390040
| 36>   O                      -2.030832            5.697666             -1.408838
| 37>   H                      -2.366358            4.785537             -1.711224
| 38>   H                      -0.245533            6.622933             -1.406248
| 39>   H                      -0.230073            5.120611             -0.446615
| 40>   H                      -0.321573            5.166850             -2.353661
| 41>   C                    : -3.991973            7.682110             0.307530
| 42>   O                    : -4.418876            6.312322             0.390519
| 43>   H                    : -3.885738            5.778613             -0.162751
| 44>   H                    : -2.957614            7.755466             0.729680
| 45>   H                    : -3.795129            7.844099             -0.789331
| 46>   H                    : -4.612794            8.412655             0.832491
| 47> *
| 48>
| 49> #Run DFT-D3 single point of the particle with dimer basis set
| 50> $new_job
| 51> %base "19-188_DFT_B"
| 52> ! wB97X-D3 def2-TZVP TIGHTSCF CHELPG PMODEL
| 53>
| 54> %scf
| 55> MaxIter 1000
| 56> end
| 57>
| 58> * xyz 0 1
| 59>   C                    : -0.662530            5.587864             -1.390040
| 60>   O                    : -2.030832            5.697666             -1.408838
| 61>   H                    : -2.366358            4.785537             -1.711224
| 62>   H                    : -0.245533            6.622933             -1.406248
| 63>   H                    : -0.230073            5.120611             -0.446615
| 64>   H                    : -0.321573            5.166850             -2.353661
| 65>   C                      -3.991973            7.682110             0.307530
| 66>   O                      -4.418876            6.312322             0.390519
| 67>   H                      -3.885738            5.778613             -0.162751
| 68>   H                      -2.957614            7.755466             0.729680
| 69>   H                      -3.795129            7.844099             -0.789331
| 70>   H                      -4.612794            8.412655             0.832491
| 71> *
| 72>
| 73>                          ****END OF INPUT****
 Total Charge           Charge          ....    0
 Multiplicity           Mult            ....    1
 Number of Electrons    NEL             ....   36
Dispersion correction           -0.001895376
FINAL SINGLE POINT ENERGY      -231.462007899863
Dispersion correction           -0.000237882
FINAL SINGLE POINT ENERGY      -115.729075743343

CARTESIAN COORDINATES (ANGSTROEM)
---------------------------------
  C     -0.662530    5.587864   -1.390040
  O     -2.030832    5.697666   -1.408838
  H     -2.366358    4.785537   -1.711224
  H     -0.245533    6.622933   -1.406248
  H     -0.230073    5.120611   -0.446615
  H     -0.321573    5.166850   -2.353661
  C     -3.991973    7.682110    0.307530
  O     -4.418876    6.312322    0.390519
  H     -3.885738    5.778613   -0.162751
  H     -2.957614    7.755466    0.729680
  H     -3.795129    7.844099   -0.789331
  H     -4.612794    8.412655    0.832491

 Multiplicity           Mult            ....    1
 Number of Electrons    NEL             ....   18
 Basis Dimension        Dim             ....  172

ORBITAL ENERGIES
----------------

  NO   OCC          E(Eh)            E(eV)
   0   2.0000     -19.224758      -523.1323
   1   2.0000     -10.323485      -280.9163
   2   2.0000      -1.132729       -30.8231
   3   2.0000      -0.794667       -21.6240
   4   2.0000      -0.608499       -16.5581
   5   2.0000      -0.542982       -14.7753
   6   2.0000      -0.524493       -14.2722
   7   2.0000      -0.433488       -11.7958
   8   2.0000      -0.366404        -9.9704
   9   0.0000       0.068636         1.8677
  10   0.0000       0.127289         3.4637
  11   0.0000       0.140954         3.8356
  12   0.0000       0.172755         4.7009
  13   0.0000       0.189457         5.1554

MULLIKEN ATOMIC CHARGES
-----------------------
   0 C :   -0.000337
   1 O :   -0.002954
   2 H :   -0.000530
   3 H :   -0.000275
   4 H :   -0.000078
   5 H :    0.000011
   6 C :   -0.175911
   7 O :   -0.478394
   8 H :    0.312113
   9 H :    0.102203
  10 H :    0.106305
  11 H :    0.137847
Sum of atomic charges:   -0.0000000

LOEWDIN ATOMIC CHARGES
----------------------
   0 C :   -0.001159
   1 O :   -0.010376
   2 H :   -0.002073
   3 H :   -0.000110
   4 H :   -0.000046
   5 H :   -0.000018
   6 C :   -0.367444
   7 O :   -0.082167
   8 H :    0.151315
   9 H :    0.099081
  10 H :    0.104119
  11 H :    0.108878

  Mayer bond orders larger than 0.1
B(  6-C ,  7-O ) :   0.9769 B(  6-C ,  9-H ) :   0.9769 B(  6-C , 10-H ) :   0.9880
B(  6-C , 11-H ) :   0.9658 B(  7-O ,  8-H ) :   0.9101

Dispersion correction           -0.000235935
FINAL SINGLE POINT ENERGY      -115.727973288403

DIPOLE MOMENT
-------------
                                X             Y             Z
Electronic contribution:     -0.85779      -1.55998       0.28388
Nuclear contribution   :      1.38414       1.78802      -0.66310
                        -----------------------------------------
Total Dipole Moment    :      0.52635       0.22804      -0.37922
                        -----------------------------------------
Magnitude (a.u.)       :      0.68765
Magnitude (Debye)      :      1.74786

Rotational constants in cm-1:     4.206148     0.815792     0.776674
Rotational constants in MHz : 126097.155513 24456.842954 23284.091742

                             ****ORCA TERMINATED NORMALLY****
TOTAL RUN TIME: 0 days 0 hours 1 minutes 43 seconds 92 msec
