                         Program Version 4.1.2  - RELEASE  -
|  1> #Run DFT-D3 single point of the dimer
|  2> ! wB97X-D3 def2-TZVP TIGHTSCF CHELPG PMODEL PAL8
|  3>
|  4> %base "11-186_DFT_AB"
|  5>
|  6> %scf
|  7> MaxIter 1000
|  8> end
|  9>
| 10> * xyz 0 1
| 11>   C                      1.787189             8.141923             -6.209273
| 12>   O                      1.225959             9.057737             -7.130875
| 13>   H                      1.591158             9.924854             -6.877070
| 14>   H                      2.930828             8.116669             -6.320015
| 15>   H                      1.425929             8.176816             -5.223951
| 16>   H                      1.494492             7.116921             -6.583028
| 17>   C                      -1.382315            7.656714             -9.403064
| 18>   O                      -1.535504            8.361773             -8.223620
| 19>   H                      -0.695986            8.256072             -7.674836
| 20>   H                      -2.134105            7.942589             -10.050594
| 21>   H                      -0.437840            7.947072             -9.867377
| 22>   H                      -1.315396            6.559061             -9.387917
| 23> *
| 24>
| 25> #Run DFT-D3 single point of the molecule with dimer basis set
| 26> $new_job
| 27> %base "11-186_DFT_A"
| 28> ! wB97X-D3 def2-TZVP TIGHTSCF CHELPG PMODEL
| 29>
| 30> %scf
| 31> MaxIter 1000
| 32> end
| 33>
| 34> * xyz 0 1
| 35>   C                      1.787189             8.141923             -6.209273
| 36>   O                      1.225959             9.057737             -7.130875
| 37>   H                      1.591158             9.924854             -6.877070
| 38>   H                      2.930828             8.116669             -6.320015
| 39>   H                      1.425929             8.176816             -5.223951
| 40>   H                      1.494492             7.116921             -6.583028
| 41>   C                    : -1.382315            7.656714             -9.403064
| 42>   O                    : -1.535504            8.361773             -8.223620
| 43>   H                    : -0.695986            8.256072             -7.674836
| 44>   H                    : -2.134105            7.942589             -10.050594
| 45>   H                    : -0.437840            7.947072             -9.867377
| 46>   H                    : -1.315396            6.559061             -9.387917
| 47> *
| 48>
| 49> #Run DFT-D3 single point of the particle with dimer basis set
| 50> $new_job
| 51> %base "11-186_DFT_B"
| 52> ! wB97X-D3 def2-TZVP TIGHTSCF CHELPG PMODEL
| 53>
| 54> %scf
| 55> MaxIter 1000
| 56> end
| 57>
| 58> * xyz 0 1
| 59>   C                    : 1.787189             8.141923             -6.209273
| 60>   O                    : 1.225959             9.057737             -7.130875
| 61>   H                    : 1.591158             9.924854             -6.877070
| 62>   H                    : 2.930828             8.116669             -6.320015
| 63>   H                    : 1.425929             8.176816             -5.223951
| 64>   H                    : 1.494492             7.116921             -6.583028
| 65>   C                      -1.382315            7.656714             -9.403064
| 66>   O                      -1.535504            8.361773             -8.223620
| 67>   H                      -0.695986            8.256072             -7.674836
| 68>   H                      -2.134105            7.942589             -10.050594
| 69>   H                      -0.437840            7.947072             -9.867377
| 70>   H                      -1.315396            6.559061             -9.387917
| 71> *
| 72>
| 73>                          ****END OF INPUT****
 Total Charge           Charge          ....    0
 Multiplicity           Mult            ....    1
 Number of Electrons    NEL             ....   36
Dispersion correction           -0.001672562
FINAL SINGLE POINT ENERGY      -231.466614585934
Dispersion correction           -0.000249347
FINAL SINGLE POINT ENERGY      -115.730792707160

CARTESIAN COORDINATES (ANGSTROEM)
---------------------------------
  C      1.787189    8.141923   -6.209273
  O      1.225959    9.057737   -7.130875
  H      1.591158    9.924854   -6.877070
  H      2.930828    8.116669   -6.320015
  H      1.425929    8.176816   -5.223951
  H      1.494492    7.116921   -6.583028
  C     -1.382315    7.656714   -9.403064
  O     -1.535504    8.361773   -8.223620
  H     -0.695986    8.256072   -7.674836
  H     -2.134105    7.942589  -10.050594
  H     -0.437840    7.947072   -9.867377
  H     -1.315396    6.559061   -9.387917

 Multiplicity           Mult            ....    1
 Number of Electrons    NEL             ....   18
 Basis Dimension        Dim             ....  172

ORBITAL ENERGIES
----------------

  NO   OCC          E(Eh)            E(eV)
   0   2.0000     -19.236411      -523.4494
   1   2.0000     -10.303443      -280.3709
   2   2.0000      -1.138801       -30.9883
   3   2.0000      -0.796620       -21.6771
   4   2.0000      -0.616567       -16.7776
   5   2.0000      -0.537744       -14.6328
   6   2.0000      -0.536276       -14.5928
   7   2.0000      -0.435417       -11.8483
   8   2.0000      -0.369879       -10.0649
   9   0.0000       0.065324         1.7776
  10   0.0000       0.130997         3.5646
  11   0.0000       0.152084         4.1384
  12   0.0000       0.158907         4.3241
  13   0.0000       0.188153         5.1199

MULLIKEN ATOMIC CHARGES
-----------------------
   0 C :   -0.001668
   1 O :   -0.002520
   2 H :   -0.000318
   3 H :   -0.000042
   4 H :    0.000082
   5 H :   -0.000794
   6 C :   -0.157476
   7 O :   -0.468419
   8 H :    0.317620
   9 H :    0.125514
  10 H :    0.093515
  11 H :    0.094507
Sum of atomic charges:    0.0000000

LOEWDIN ATOMIC CHARGES
----------------------
   0 C :   -0.004472
   1 O :   -0.012024
   2 H :   -0.000669
   3 H :   -0.000071
   4 H :   -0.000121
   5 H :   -0.000990
   6 C :   -0.409073
   7 O :   -0.061032
   8 H :    0.205033
   9 H :    0.095686
  10 H :    0.094363
  11 H :    0.093372

  Mayer bond orders larger than 0.1
B(  6-C ,  7-O ) :   1.0016 B(  6-C ,  9-H ) :   0.9757 B(  6-C , 10-H ) :   0.9852
B(  6-C , 11-H ) :   0.9675 B(  7-O ,  8-H ) :   0.8973

Dispersion correction           -0.000236293
FINAL SINGLE POINT ENERGY      -115.729804780514

DIPOLE MOMENT
-------------
                                X             Y             Z
Electronic contribution:     -0.49284       0.94214       1.56060
Nuclear contribution   :      1.06125      -1.25202      -1.68364
                        -----------------------------------------
Total Dipole Moment    :      0.56840      -0.30988      -0.12304
                        -----------------------------------------
Magnitude (a.u.)       :      0.65897
Magnitude (Debye)      :      1.67498

Rotational constants in cm-1:     4.432397     0.859187     0.822802
Rotational constants in MHz : 132879.910341 25757.778843 24666.991102

                             ****ORCA TERMINATED NORMALLY****
TOTAL RUN TIME: 0 days 0 hours 1 minutes 15 seconds 435 msec
