                         Program Version 4.1.2  - RELEASE  -
|  1> #Run DFT-D3 single point of the dimer
|  2> ! wB97X-D3 def2-TZVP TIGHTSCF CHELPG PMODEL PAL8
|  3>
|  4> %base "18-154_DFT_AB"
|  5>
|  6> %scf
|  7> MaxIter 1000
|  8> end
|  9>
| 10> * xyz 0 1
| 11>   C                      3.597850             6.703226             -5.244786
| 12>   O                      2.615310             6.600177             -6.234061
| 13>   H                      2.499694             5.656015             -6.206154
| 14>   H                      4.143364             7.589967             -5.452045
| 15>   H                      3.049037             6.789531             -4.301434
| 16>   H                      4.181735             5.813878             -5.175378
| 17>   C                      3.844604             7.891275             -9.190874
| 18>   O                      3.891841             8.428578             -7.932664
| 19>   H                      3.375586             7.949125             -7.310194
| 20>   H                      3.866787             6.794202             -9.148046
| 21>   H                      2.883099             8.128601             -9.731773
| 22>   H                      4.656236             8.212625             -9.847624
| 23> *
| 24>
| 25> #Run DFT-D3 single point of the molecule with dimer basis set
| 26> $new_job
| 27> %base "18-154_DFT_A"
| 28> ! wB97X-D3 def2-TZVP TIGHTSCF CHELPG PMODEL
| 29>
| 30> %scf
| 31> MaxIter 1000
| 32> end
| 33>
| 34> * xyz 0 1
| 35>   C                      3.597850             6.703226             -5.244786
| 36>   O                      2.615310             6.600177             -6.234061
| 37>   H                      2.499694             5.656015             -6.206154
| 38>   H                      4.143364             7.589967             -5.452045
| 39>   H                      3.049037             6.789531             -4.301434
| 40>   H                      4.181735             5.813878             -5.175378
| 41>   C                    : 3.844604             7.891275             -9.190874
| 42>   O                    : 3.891841             8.428578             -7.932664
| 43>   H                    : 3.375586             7.949125             -7.310194
| 44>   H                    : 3.866787             6.794202             -9.148046
| 45>   H                    : 2.883099             8.128601             -9.731773
| 46>   H                    : 4.656236             8.212625             -9.847624
| 47> *
| 48>
| 49> #Run DFT-D3 single point of the particle with dimer basis set
| 50> $new_job
| 51> %base "18-154_DFT_B"
| 52> ! wB97X-D3 def2-TZVP TIGHTSCF CHELPG PMODEL
| 53>
| 54> %scf
| 55> MaxIter 1000
| 56> end
| 57>
| 58> * xyz 0 1
| 59>   C                    : 3.597850             6.703226             -5.244786
| 60>   O                    : 2.615310             6.600177             -6.234061
| 61>   H                    : 2.499694             5.656015             -6.206154
| 62>   H                    : 4.143364             7.589967             -5.452045
| 63>   H                    : 3.049037             6.789531             -4.301434
| 64>   H                    : 4.181735             5.813878             -5.175378
| 65>   C                      3.844604             7.891275             -9.190874
| 66>   O                      3.891841             8.428578             -7.932664
| 67>   H                      3.375586             7.949125             -7.310194
| 68>   H                      3.866787             6.794202             -9.148046
| 69>   H                      2.883099             8.128601             -9.731773
| 70>   H                      4.656236             8.212625             -9.847624
| 71> *
| 72>
| 73>                          ****END OF INPUT****
 Total Charge           Charge          ....    0
 Multiplicity           Mult            ....    1
 Number of Electrons    NEL             ....   36
Dispersion correction           -0.001869867
FINAL SINGLE POINT ENERGY      -231.469680393934
Dispersion correction           -0.000183756
FINAL SINGLE POINT ENERGY      -115.729140733513

CARTESIAN COORDINATES (ANGSTROEM)
---------------------------------
  C      3.597850    6.703226   -5.244786
  O      2.615310    6.600177   -6.234061
  H      2.499694    5.656015   -6.206154
  H      4.143364    7.589967   -5.452045
  H      3.049037    6.789531   -4.301434
  H      4.181735    5.813878   -5.175378
  C      3.844604    7.891275   -9.190874
  O      3.891841    8.428578   -7.932664
  H      3.375586    7.949125   -7.310194
  H      3.866787    6.794202   -9.148046
  H      2.883099    8.128601   -9.731773
  H      4.656236    8.212625   -9.847624

 Multiplicity           Mult            ....    1
 Number of Electrons    NEL             ....   18
 Basis Dimension        Dim             ....  172

ORBITAL ENERGIES
----------------

  NO   OCC          E(Eh)            E(eV)
   0   2.0000     -19.230235      -523.2813
   1   2.0000     -10.314661      -280.6762
   2   2.0000      -1.153555       -31.3898
   3   2.0000      -0.797323       -21.6963
   4   2.0000      -0.625573       -17.0227
   5   2.0000      -0.540688       -14.7129
   6   2.0000      -0.538681       -14.6583
   7   2.0000      -0.427444       -11.6313
   8   2.0000      -0.370228       -10.0744
   9   0.0000       0.072766         1.9801
  10   0.0000       0.135635         3.6908
  11   0.0000       0.159619         4.3435
  12   0.0000       0.171316         4.6617
  13   0.0000       0.188436         5.1276

MULLIKEN ATOMIC CHARGES
-----------------------
   0 C :   -0.005439
   1 O :   -0.004355
   2 H :   -0.000105
   3 H :   -0.004903
   4 H :   -0.000210
   5 H :    0.001053
   6 C :   -0.166597
   7 O :   -0.456301
   8 H :    0.319917
   9 H :    0.099109
  10 H :    0.093983
  11 H :    0.123848
Sum of atomic charges:    0.0000000

LOEWDIN ATOMIC CHARGES
----------------------
   0 C :   -0.013461
   1 O :   -0.020448
   2 H :   -0.000851
   3 H :   -0.006760
   4 H :   -0.000210
   5 H :   -0.000167
   6 C :   -0.419450
   7 O :   -0.011804
   8 H :    0.173950
   9 H :    0.094013
  10 H :    0.097362
  11 H :    0.107827

  Mayer bond orders larger than 0.1
B(  6-C ,  7-O ) :   0.9973 B(  6-C ,  9-H ) :   0.9791 B(  6-C , 10-H ) :   0.9785
B(  6-C , 11-H ) :   0.9701 B(  7-O ,  8-H ) :   0.9000

Dispersion correction           -0.000239087
FINAL SINGLE POINT ENERGY      -115.734187541075

DIPOLE MOMENT
-------------
                                X             Y             Z
Electronic contribution:      0.24663       0.87406       1.68345
Nuclear contribution   :     -0.57726      -1.39669      -1.75333
                        -----------------------------------------
Total Dipole Moment    :     -0.33063      -0.52263      -0.06988
                        -----------------------------------------
Magnitude (a.u.)       :      0.62237
Magnitude (Debye)      :      1.58194

Rotational constants in cm-1:     4.399256     0.861302     0.831599
Rotational constants in MHz : 131886.382048 25821.179540 24930.708128

                             ****ORCA TERMINATED NORMALLY****
TOTAL RUN TIME: 0 days 0 hours 1 minutes 2 seconds 498 msec
