                         Program Version 4.1.2  - RELEASE  -
|  1> #Run DFT-D3 single point of the dimer
|  2> ! wB97X-D3 def2-TZVP TIGHTSCF CHELPG PMODEL PAL8
|  3>
|  4> %base "13-32_DFT_AB"
|  5>
|  6> %scf
|  7> MaxIter 1000
|  8> end
|  9>
| 10> * xyz 0 1
| 11>   C                      0.693580             10.738664            9.003647
| 12>   O                      -0.631449            10.218537            8.833525
| 13>   H                      -0.875626            10.477739            7.931465
| 14>   H                      0.926423             11.509323            8.158757
| 15>   H                      0.794173             11.306749            9.896924
| 16>   H                      1.519966             9.978133             8.991568
| 17>   C                      0.335127             6.368528             7.383852
| 18>   O                      0.494388             7.192351             6.270742
| 19>   H                      0.338019             6.570554             5.491384
| 20>   H                      -0.092078            6.845019             8.282586
| 21>   H                      -0.326130            5.576746             7.050708
| 22>   H                      1.301061             6.010898             7.747708
| 23> *
| 24>
| 25> #Run DFT-D3 single point of the molecule with dimer basis set
| 26> $new_job
| 27> %base "13-32_DFT_A"
| 28> ! wB97X-D3 def2-TZVP TIGHTSCF CHELPG PMODEL
| 29>
| 30> %scf
| 31> MaxIter 1000
| 32> end
| 33>
| 34> * xyz 0 1
| 35>   C                      0.693580             10.738664            9.003647
| 36>   O                      -0.631449            10.218537            8.833525
| 37>   H                      -0.875626            10.477739            7.931465
| 38>   H                      0.926423             11.509323            8.158757
| 39>   H                      0.794173             11.306749            9.896924
| 40>   H                      1.519966             9.978133             8.991568
| 41>   C                    : 0.335127             6.368528             7.383852
| 42>   O                    : 0.494388             7.192351             6.270742
| 43>   H                    : 0.338019             6.570554             5.491384
| 44>   H                    : -0.092078            6.845019             8.282586
| 45>   H                    : -0.326130            5.576746             7.050708
| 46>   H                    : 1.301061             6.010898             7.747708
| 47> *
| 48>
| 49> #Run DFT-D3 single point of the particle with dimer basis set
| 50> $new_job
| 51> %base "13-32_DFT_B"
| 52> ! wB97X-D3 def2-TZVP TIGHTSCF CHELPG PMODEL
| 53>
| 54> %scf
| 55> MaxIter 1000
| 56> end
| 57>
| 58> * xyz 0 1
| 59>   C                    : 0.693580             10.738664            9.003647
| 60>   O                    : -0.631449            10.218537            8.833525
| 61>   H                    : -0.875626            10.477739            7.931465
| 62>   H                    : 0.926423             11.509323            8.158757
| 63>   H                    : 0.794173             11.306749            9.896924
| 64>   H                    : 1.519966             9.978133             8.991568
| 65>   C                      0.335127             6.368528             7.383852
| 66>   O                      0.494388             7.192351             6.270742
| 67>   H                      0.338019             6.570554             5.491384
| 68>   H                      -0.092078            6.845019             8.282586
| 69>   H                      -0.326130            5.576746             7.050708
| 70>   H                      1.301061             6.010898             7.747708
| 71> *
| 72>
| 73>                          ****END OF INPUT****
 Total Charge           Charge          ....    0
 Multiplicity           Mult            ....    1
 Number of Electrons    NEL             ....   36
Dispersion correction           -0.001191623
FINAL SINGLE POINT ENERGY      -231.459966415232
Dispersion correction           -0.000268285
FINAL SINGLE POINT ENERGY      -115.730083867504

CARTESIAN COORDINATES (ANGSTROEM)
---------------------------------
  C      0.693580   10.738664    9.003647
  O     -0.631449   10.218537    8.833525
  H     -0.875626   10.477739    7.931465
  H      0.926423   11.509323    8.158757
  H      0.794173   11.306749    9.896924
  H      1.519966    9.978133    8.991568
  C      0.335127    6.368528    7.383852
  O      0.494388    7.192351    6.270742
  H      0.338019    6.570554    5.491384
  H     -0.092078    6.845019    8.282586
  H     -0.326130    5.576746    7.050708
  H      1.301061    6.010898    7.747708

 Multiplicity           Mult            ....    1
 Number of Electrons    NEL             ....   18
 Basis Dimension        Dim             ....  172

ORBITAL ENERGIES
----------------

  NO   OCC          E(Eh)            E(eV)
   0   2.0000     -19.233678      -523.3750
   1   2.0000     -10.310912      -280.5742
   2   2.0000      -1.137230       -30.9456
   3   2.0000      -0.787411       -21.4265
   4   2.0000      -0.608392       -16.5552
   5   2.0000      -0.547474       -14.8975
   6   2.0000      -0.532354       -14.4861
   7   2.0000      -0.429097       -11.6763
   8   2.0000      -0.369495       -10.0545
   9   0.0000       0.089533         2.4363
  10   0.0000       0.109175         2.9708
  11   0.0000       0.152592         4.1522
  12   0.0000       0.171165         4.6576
  13   0.0000       0.195599         5.3225

MULLIKEN ATOMIC CHARGES
-----------------------
   0 C :   -0.000340
   1 O :    0.000048
   2 H :   -0.000341
   3 H :    0.000046
   4 H :    0.000002
   5 H :    0.000014
   6 C :   -0.158425
   7 O :   -0.463712
   8 H :    0.319657
   9 H :    0.110461
  10 H :    0.099558
  11 H :    0.093033
Sum of atomic charges:   -0.0000000

LOEWDIN ATOMIC CHARGES
----------------------
   0 C :   -0.000356
   1 O :   -0.000182
   2 H :   -0.000252
   3 H :   -0.000007
   4 H :   -0.000007
   5 H :   -0.000096
   6 C :   -0.408297
   7 O :   -0.085966
   8 H :    0.202942
   9 H :    0.104141
  10 H :    0.095349
  11 H :    0.092731

  Mayer bond orders larger than 0.1
B(  6-C ,  7-O ) :   1.0087 B(  6-C ,  9-H ) :   0.9724 B(  6-C , 10-H ) :   0.9970
B(  6-C , 11-H ) :   0.9755 B(  7-O ,  8-H ) :   0.8945

Dispersion correction           -0.000225266
FINAL SINGLE POINT ENERGY      -115.728204017322

DIPOLE MOMENT
-------------
                                X             Y             Z
Electronic contribution:      0.22449       1.23054      -1.34812
Nuclear contribution   :     -0.39530      -1.92353       1.28813
                        -----------------------------------------
Total Dipole Moment    :     -0.17081      -0.69299      -0.05999
                        -----------------------------------------
Magnitude (a.u.)       :      0.71625
Magnitude (Debye)      :      1.82056

Rotational constants in cm-1:     4.207665     0.857880     0.818657
Rotational constants in MHz : 126142.630759 25718.601015 24542.727690

                             ****ORCA TERMINATED NORMALLY****
TOTAL RUN TIME: 0 days 0 hours 1 minutes 11 seconds 279 msec
