                         Program Version 4.1.2  - RELEASE  -
|  1> #Run DFT-D3 single point of the dimer
|  2> ! wB97X-D3 def2-TZVP TIGHTSCF CHELPG PMODEL PAL8
|  3>
|  4> %base "1-63_DFT_AB"
|  5>
|  6> %scf
|  7> MaxIter 1000
|  8> end
|  9>
| 10> * xyz 0 1
| 11>   C                      -2.795325            9.217840             5.555766
| 12>   O                      -3.946272            9.686863             6.213946
| 13>   H                      -3.969267            9.351075             7.120477
| 14>   H                      -2.991524            9.209093             4.464861
| 15>   H                      -1.885058            9.769403             5.855998
| 16>   H                      -2.593840            8.207868             5.831886
| 17>   C                      -8.141431            10.120982            5.609422
| 18>   O                      -6.883457            9.926488             5.013537
| 19>   H                      -6.746002            9.087086             4.583543
| 20>   H                      -8.833033            10.492227            4.872045
| 21>   H                      -8.543352            9.177834             6.082713
| 22>   H                      -8.084201            10.899987            6.355994
| 23> *
| 24>
| 25> #Run DFT-D3 single point of the molecule with dimer basis set
| 26> $new_job
| 27> %base "1-63_DFT_A"
| 28> ! wB97X-D3 def2-TZVP TIGHTSCF CHELPG PMODEL
| 29>
| 30> %scf
| 31> MaxIter 1000
| 32> end
| 33>
| 34> * xyz 0 1
| 35>   C                      -2.795325            9.217840             5.555766
| 36>   O                      -3.946272            9.686863             6.213946
| 37>   H                      -3.969267            9.351075             7.120477
| 38>   H                      -2.991524            9.209093             4.464861
| 39>   H                      -1.885058            9.769403             5.855998
| 40>   H                      -2.593840            8.207868             5.831886
| 41>   C                    : -8.141431            10.120982            5.609422
| 42>   O                    : -6.883457            9.926488             5.013537
| 43>   H                    : -6.746002            9.087086             4.583543
| 44>   H                    : -8.833033            10.492227            4.872045
| 45>   H                    : -8.543352            9.177834             6.082713
| 46>   H                    : -8.084201            10.899987            6.355994
| 47> *
| 48>
| 49> #Run DFT-D3 single point of the particle with dimer basis set
| 50> $new_job
| 51> %base "1-63_DFT_B"
| 52> ! wB97X-D3 def2-TZVP TIGHTSCF CHELPG PMODEL
| 53>
| 54> %scf
| 55> MaxIter 1000
| 56> end
| 57>
| 58> * xyz 0 1
| 59>   C                    : -2.795325            9.217840             5.555766
| 60>   O                    : -3.946272            9.686863             6.213946
| 61>   H                    : -3.969267            9.351075             7.120477
| 62>   H                    : -2.991524            9.209093             4.464861
| 63>   H                    : -1.885058            9.769403             5.855998
| 64>   H                    : -2.593840            8.207868             5.831886
| 65>   C                      -8.141431            10.120982            5.609422
| 66>   O                      -6.883457            9.926488             5.013537
| 67>   H                      -6.746002            9.087086             4.583543
| 68>   H                      -8.833033            10.492227            4.872045
| 69>   H                      -8.543352            9.177834             6.082713
| 70>   H                      -8.084201            10.899987            6.355994
| 71> *
| 72>
| 73>                          ****END OF INPUT****
 Total Charge           Charge          ....    0
 Multiplicity           Mult            ....    1
 Number of Electrons    NEL             ....   36
Dispersion correction           -0.001216303
FINAL SINGLE POINT ENERGY      -231.465834380362
Dispersion correction           -0.000237326
FINAL SINGLE POINT ENERGY      -115.734783700304

CARTESIAN COORDINATES (ANGSTROEM)
---------------------------------
  C     -2.795325    9.217840    5.555766
  O     -3.946272    9.686863    6.213946
  H     -3.969267    9.351075    7.120477
  H     -2.991524    9.209093    4.464861
  H     -1.885058    9.769403    5.855998
  H     -2.593840    8.207868    5.831886
  C     -8.141431   10.120982    5.609422
  O     -6.883457    9.926488    5.013537
  H     -6.746002    9.087086    4.583543
  H     -8.833033   10.492227    4.872045
  H     -8.543352    9.177834    6.082713
  H     -8.084201   10.899987    6.355994

 Multiplicity           Mult            ....    1
 Number of Electrons    NEL             ....   18
 Basis Dimension        Dim             ....  172

ORBITAL ENERGIES
----------------

  NO   OCC          E(Eh)            E(eV)
   0   2.0000     -19.225551      -523.1538
   1   2.0000     -10.313997      -280.6581
   2   2.0000      -1.134254       -30.8646
   3   2.0000      -0.799939       -21.7675
   4   2.0000      -0.611725       -16.6459
   5   2.0000      -0.541632       -14.7386
   6   2.0000      -0.533348       -14.5131
   7   2.0000      -0.423145       -11.5144
   8   2.0000      -0.371258       -10.1025
   9   0.0000       0.089858         2.4452
  10   0.0000       0.122237         3.3262
  11   0.0000       0.152853         4.1594
  12   0.0000       0.173654         4.7254
  13   0.0000       0.199234         5.4214

MULLIKEN ATOMIC CHARGES
-----------------------
   0 C :   -0.001999
   1 O :   -0.000810
   2 H :   -0.000765
   3 H :    0.000110
   4 H :   -0.000053
   5 H :    0.000082
   6 C :   -0.140883
   7 O :   -0.492371
   8 H :    0.320203
   9 H :    0.103521
  10 H :    0.095645
  11 H :    0.117319
Sum of atomic charges:    0.0000000

LOEWDIN ATOMIC CHARGES
----------------------
   0 C :   -0.001132
   1 O :   -0.005500
   2 H :   -0.000991
   3 H :   -0.000130
   4 H :   -0.000032
   5 H :   -0.000017
   6 C :   -0.384967
   7 O :   -0.067605
   8 H :    0.162829
   9 H :    0.092108
  10 H :    0.101231
  11 H :    0.104207

  Mayer bond orders larger than 0.1
B(  6-C ,  7-O ) :   0.9931 B(  6-C ,  9-H ) :   0.9767 B(  6-C , 10-H ) :   0.9791
B(  6-C , 11-H ) :   0.9738 B(  7-O ,  8-H ) :   0.8919

Dispersion correction           -0.000256456
FINAL SINGLE POINT ENERGY      -115.734213004434

DIPOLE MOMENT
-------------
                                X             Y             Z
Electronic contribution:      1.62032      -0.14884      -0.70872
Nuclear contribution   :     -2.05348      -0.31469       0.66675
                        -----------------------------------------
Total Dipole Moment    :     -0.43316      -0.46353      -0.04197
                        -----------------------------------------
Magnitude (a.u.)       :      0.63581
Magnitude (Debye)      :      1.61609

Rotational constants in cm-1:     4.394329     0.830920     0.801482
Rotational constants in MHz : 131738.680493 24910.348748 24027.823450

                             ****ORCA TERMINATED NORMALLY****
TOTAL RUN TIME: 0 days 0 hours 6 minutes 12 seconds 100 msec
