                         Program Version 4.1.2  - RELEASE  -
|  1> #Run DFT-D3 single point of the dimer
|  2> ! wB97X-D3 def2-TZVP TIGHTSCF CHELPG PMODEL PAL8
|  3>
|  4> %base "12-151_DFT_AB"
|  5>
|  6> %scf
|  7> MaxIter 1000
|  8> end
|  9>
| 10> * xyz 0 1
| 11>   C                      0.661193             3.421647             2.670552
| 12>   O                      2.005955             3.170968             2.578442
| 13>   H                      2.290748             2.485866             3.173461
| 14>   H                      0.335738             4.235484             1.992829
| 15>   H                      -0.008043            2.596136             2.424679
| 16>   H                      0.402929             3.729779             3.674865
| 17>   C                      5.018682             3.647154             2.266529
| 18>   O                      4.344760             3.389571             1.100863
| 19>   H                      3.404297             3.200617             1.319677
| 20>   H                      5.043372             2.728457             2.908457
| 21>   H                      6.070344             3.937796             2.139085
| 22>   H                      4.514807             4.440137             2.832299
| 23> *
| 24>
| 25> #Run DFT-D3 single point of the molecule with dimer basis set
| 26> $new_job
| 27> %base "12-151_DFT_A"
| 28> ! wB97X-D3 def2-TZVP TIGHTSCF CHELPG PMODEL
| 29>
| 30> %scf
| 31> MaxIter 1000
| 32> end
| 33>
| 34> * xyz 0 1
| 35>   C                      0.661193             3.421647             2.670552
| 36>   O                      2.005955             3.170968             2.578442
| 37>   H                      2.290748             2.485866             3.173461
| 38>   H                      0.335738             4.235484             1.992829
| 39>   H                      -0.008043            2.596136             2.424679
| 40>   H                      0.402929             3.729779             3.674865
| 41>   C                    : 5.018682             3.647154             2.266529
| 42>   O                    : 4.344760             3.389571             1.100863
| 43>   H                    : 3.404297             3.200617             1.319677
| 44>   H                    : 5.043372             2.728457             2.908457
| 45>   H                    : 6.070344             3.937796             2.139085
| 46>   H                    : 4.514807             4.440137             2.832299
| 47> *
| 48>
| 49> #Run DFT-D3 single point of the particle with dimer basis set
| 50> $new_job
| 51> %base "12-151_DFT_B"
| 52> ! wB97X-D3 def2-TZVP TIGHTSCF CHELPG PMODEL
| 53>
| 54> %scf
| 55> MaxIter 1000
| 56> end
| 57>
| 58> * xyz 0 1
| 59>   C                    : 0.661193             3.421647             2.670552
| 60>   O                    : 2.005955             3.170968             2.578442
| 61>   H                    : 2.290748             2.485866             3.173461
| 62>   H                    : 0.335738             4.235484             1.992829
| 63>   H                    : -0.008043            2.596136             2.424679
| 64>   H                    : 0.402929             3.729779             3.674865
| 65>   C                      5.018682             3.647154             2.266529
| 66>   O                      4.344760             3.389571             1.100863
| 67>   H                      3.404297             3.200617             1.319677
| 68>   H                      5.043372             2.728457             2.908457
| 69>   H                      6.070344             3.937796             2.139085
| 70>   H                      4.514807             4.440137             2.832299
| 71> *
| 72>
| 73>                          ****END OF INPUT****
 Total Charge           Charge          ....    0
 Multiplicity           Mult            ....    1
 Number of Electrons    NEL             ....   36
Dispersion correction           -0.001890339
FINAL SINGLE POINT ENERGY      -231.476275782573
Dispersion correction           -0.000239162
FINAL SINGLE POINT ENERGY      -115.734966921667

CARTESIAN COORDINATES (ANGSTROEM)
---------------------------------
  C      0.661193    3.421647    2.670552
  O      2.005955    3.170968    2.578442
  H      2.290748    2.485866    3.173461
  H      0.335738    4.235484    1.992829
  H     -0.008043    2.596136    2.424679
  H      0.402929    3.729779    3.674865
  C      5.018682    3.647154    2.266529
  O      4.344760    3.389571    1.100863
  H      3.404297    3.200617    1.319677
  H      5.043372    2.728457    2.908457
  H      6.070344    3.937796    2.139085
  H      4.514807    4.440137    2.832299

 Multiplicity           Mult            ....    1
 Number of Electrons    NEL             ....   18
 Basis Dimension        Dim             ....  172

ORBITAL ENERGIES
----------------

  NO   OCC          E(Eh)            E(eV)
   0   2.0000     -19.232632      -523.3465
   1   2.0000     -10.313059      -280.6326
   2   2.0000      -1.146550       -31.1992
   3   2.0000      -0.789277       -21.4773
   4   2.0000      -0.615267       -16.7423
   5   2.0000      -0.544701       -14.8221
   6   2.0000      -0.536397       -14.5961
   7   2.0000      -0.426943       -11.6177
   8   2.0000      -0.368733       -10.0337
   9   0.0000       0.067007         1.8233
  10   0.0000       0.129463         3.5229
  11   0.0000       0.148880         4.0512
  12   0.0000       0.169540         4.6134
  13   0.0000       0.188916         5.1407

MULLIKEN ATOMIC CHARGES
-----------------------
   0 C :   -0.002219
   1 O :   -0.006677
   2 H :    0.000095
   3 H :   -0.000088
   4 H :    0.000060
   5 H :    0.000007
   6 C :   -0.164673
   7 O :   -0.469254
   8 H :    0.326433
   9 H :    0.094462
  10 H :    0.123597
  11 H :    0.098256
Sum of atomic charges:    0.0000000

LOEWDIN ATOMIC CHARGES
----------------------
   0 C :   -0.002376
   1 O :   -0.025202
   2 H :   -0.003329
   3 H :   -0.000140
   4 H :   -0.000049
   5 H :   -0.000060
   6 C :   -0.422747
   7 O :   -0.044790
   8 H :    0.199253
   9 H :    0.096851
  10 H :    0.108860
  11 H :    0.093729

  Mayer bond orders larger than 0.1
B(  6-C ,  7-O ) :   0.9912 B(  6-C ,  9-H ) :   0.9835 B(  6-C , 10-H ) :   0.9686
B(  6-C , 11-H ) :   0.9821 B(  7-O ,  8-H ) :   0.8944

Dispersion correction           -0.000223990
FINAL SINGLE POINT ENERGY      -115.733806922090

DIPOLE MOMENT
-------------
                                X             Y             Z
Electronic contribution:     -0.73290      -0.26109      -1.73193
Nuclear contribution   :      0.40378       0.24992       2.28491
                        -----------------------------------------
Total Dipole Moment    :     -0.32911      -0.01117       0.55297
                        -----------------------------------------
Magnitude (a.u.)       :      0.64360
Magnitude (Debye)      :      1.63590

Rotational constants in cm-1:     4.245507     0.865911     0.834439
Rotational constants in MHz : 127277.083443 25959.347673 25015.852202

                             ****ORCA TERMINATED NORMALLY****
TOTAL RUN TIME: 0 days 0 hours 1 minutes 16 seconds 248 msec
