                         Program Version 4.1.2  - RELEASE  -
|  1> #Run DFT-D3 single point of the dimer
|  2> ! wB97X-D3 def2-TZVP TIGHTSCF CHELPG PMODEL PAL8
|  3>
|  4> %base "18-163_DFT_AB"
|  5>
|  6> %scf
|  7> MaxIter 1000
|  8> end
|  9>
| 10> * xyz 0 1
| 11>   C                      2.543895             -7.348491            7.449240
| 12>   O                      2.114794             -6.008798            7.767195
| 13>   H                      1.167584             -5.999289            7.725169
| 14>   H                      1.824056             -7.871212            6.835740
| 15>   H                      3.470852             -7.412637            6.832547
| 16>   H                      2.527036             -8.011973            8.287322
| 17>   C                      -1.585481            -5.417352            8.139002
| 18>   O                      -0.400419            -4.728151            8.321004
| 19>   H                      -0.305728            -4.570493            9.263091
| 20>   H                      -2.411787            -4.838300            8.517041
| 21>   H                      -1.681065            -5.646437            7.021647
| 22>   H                      -1.719806            -6.426538            8.682570
| 23> *
| 24>
| 25> #Run DFT-D3 single point of the molecule with dimer basis set
| 26> $new_job
| 27> %base "18-163_DFT_A"
| 28> ! wB97X-D3 def2-TZVP TIGHTSCF CHELPG PMODEL
| 29>
| 30> %scf
| 31> MaxIter 1000
| 32> end
| 33>
| 34> * xyz 0 1
| 35>   C                      2.543895             -7.348491            7.449240
| 36>   O                      2.114794             -6.008798            7.767195
| 37>   H                      1.167584             -5.999289            7.725169
| 38>   H                      1.824056             -7.871212            6.835740
| 39>   H                      3.470852             -7.412637            6.832547
| 40>   H                      2.527036             -8.011973            8.287322
| 41>   C                    : -1.585481            -5.417352            8.139002
| 42>   O                    : -0.400419            -4.728151            8.321004
| 43>   H                    : -0.305728            -4.570493            9.263091
| 44>   H                    : -2.411787            -4.838300            8.517041
| 45>   H                    : -1.681065            -5.646437            7.021647
| 46>   H                    : -1.719806            -6.426538            8.682570
| 47> *
| 48>
| 49> #Run DFT-D3 single point of the particle with dimer basis set
| 50> $new_job
| 51> %base "18-163_DFT_B"
| 52> ! wB97X-D3 def2-TZVP TIGHTSCF CHELPG PMODEL
| 53>
| 54> %scf
| 55> MaxIter 1000
| 56> end
| 57>
| 58> * xyz 0 1
| 59>   C                    : 2.543895             -7.348491            7.449240
| 60>   O                    : 2.114794             -6.008798            7.767195
| 61>   H                    : 1.167584             -5.999289            7.725169
| 62>   H                    : 1.824056             -7.871212            6.835740
| 63>   H                    : 3.470852             -7.412637            6.832547
| 64>   H                    : 2.527036             -8.011973            8.287322
| 65>   C                      -1.585481            -5.417352            8.139002
| 66>   O                      -0.400419            -4.728151            8.321004
| 67>   H                      -0.305728            -4.570493            9.263091
| 68>   H                      -2.411787            -4.838300            8.517041
| 69>   H                      -1.681065            -5.646437            7.021647
| 70>   H                      -1.719806            -6.426538            8.682570
| 71> *
| 72>
| 73>                          ****END OF INPUT****
 Total Charge           Charge          ....    0
 Multiplicity           Mult            ....    1
 Number of Electrons    NEL             ....   36
Dispersion correction           -0.001594411
FINAL SINGLE POINT ENERGY      -231.465345948343
Dispersion correction           -0.000258499
FINAL SINGLE POINT ENERGY      -115.729139991689

CARTESIAN COORDINATES (ANGSTROEM)
---------------------------------
  C      2.543895   -7.348491    7.449240
  O      2.114794   -6.008798    7.767195
  H      1.167584   -5.999289    7.725169
  H      1.824056   -7.871212    6.835740
  H      3.470852   -7.412637    6.832547
  H      2.527036   -8.011973    8.287322
  C     -1.585481   -5.417352    8.139002
  O     -0.400419   -4.728151    8.321004
  H     -0.305728   -4.570493    9.263091
  H     -2.411787   -4.838300    8.517041
  H     -1.681065   -5.646437    7.021647
  H     -1.719806   -6.426538    8.682570

 Multiplicity           Mult            ....    1
 Number of Electrons    NEL             ....   18
 Basis Dimension        Dim             ....  172

ORBITAL ENERGIES
----------------

  NO   OCC          E(Eh)            E(eV)
   0   2.0000     -19.235255      -523.4179
   1   2.0000     -10.320213      -280.8273
   2   2.0000      -1.150101       -31.2958
   3   2.0000      -0.788020       -21.4431
   4   2.0000      -0.621890       -16.9225
   5   2.0000      -0.540645       -14.7117
   6   2.0000      -0.522695       -14.2232
   7   2.0000      -0.435369       -11.8470
   8   2.0000      -0.371484       -10.1086
   9   0.0000       0.092981         2.5301
  10   0.0000       0.120253         3.2722
  11   0.0000       0.150235         4.0881
  12   0.0000       0.185411         5.0453
  13   0.0000       0.196968         5.3598

MULLIKEN ATOMIC CHARGES
-----------------------
   0 C :    0.000300
   1 O :    0.000547
   2 H :   -0.010513
   3 H :    0.000113
   4 H :   -0.000036
   5 H :    0.000030
   6 C :   -0.162004
   7 O :   -0.459230
   8 H :    0.315348
   9 H :    0.106679
  10 H :    0.120439
  11 H :    0.088328
Sum of atomic charges:    0.0000000

LOEWDIN ATOMIC CHARGES
----------------------
   0 C :   -0.000662
   1 O :   -0.008200
   2 H :   -0.030269
   3 H :   -0.000017
   4 H :   -0.000020
   5 H :   -0.000019
   6 C :   -0.422772
   7 O :   -0.019649
   8 H :    0.173120
   9 H :    0.090055
  10 H :    0.119973
  11 H :    0.098460

  Mayer bond orders larger than 0.1
B(  6-C ,  7-O ) :   0.9873 B(  6-C ,  9-H ) :   0.9733 B(  6-C , 10-H ) :   0.9755
B(  6-C , 11-H ) :   0.9661 B(  7-O ,  8-H ) :   0.8961

Dispersion correction           -0.000244943
FINAL SINGLE POINT ENERGY      -115.731636651410

DIPOLE MOMENT
-------------
                                X             Y             Z
Electronic contribution:      1.64354       1.00991       0.11240
Nuclear contribution   :     -2.02854      -1.13250       0.42124
                        -----------------------------------------
Total Dipole Moment    :     -0.38500      -0.12260       0.53363
                        -----------------------------------------
Magnitude (a.u.)       :      0.66934
Magnitude (Debye)      :      1.70133

Rotational constants in cm-1:     4.156998     0.857528     0.814601
Rotational constants in MHz : 124623.663155 25708.035114 24421.125153

                             ****ORCA TERMINATED NORMALLY****
TOTAL RUN TIME: 0 days 0 hours 1 minutes 6 seconds 665 msec
