                         Program Version 4.1.2  - RELEASE  -
|  1> #Run DFT-D3 single point of the dimer
|  2> ! wB97X-D3 def2-TZVP TIGHTSCF CHELPG PMODEL PAL8
|  3>
|  4> %base "20-101_DFT_AB"
|  5>
|  6> %scf
|  7> MaxIter 1000
|  8> end
|  9>
| 10> * xyz 0 1
| 11>   C                      5.267570             -1.081642            8.103618
| 12>   O                      4.867190             -2.109481            8.947615
| 13>   H                      3.963623             -1.847875            9.170114
| 14>   H                      5.623439             -0.273538            8.761835
| 15>   H                      6.051549             -1.305107            7.366669
| 16>   H                      4.404855             -0.674548            7.564045
| 17>   C                      5.534605             2.185884             8.156706
| 18>   O                      5.318715             1.865475             6.790076
| 19>   H                      4.667424             2.424962             6.448115
| 20>   H                      6.493913             1.733654             8.537385
| 21>   H                      5.628464             3.268883             8.368282
| 22>   H                      4.732055             1.903321             8.799930
| 23> *
| 24>
| 25> #Run DFT-D3 single point of the molecule with dimer basis set
| 26> $new_job
| 27> %base "20-101_DFT_A"
| 28> ! wB97X-D3 def2-TZVP TIGHTSCF CHELPG PMODEL
| 29>
| 30> %scf
| 31> MaxIter 1000
| 32> end
| 33>
| 34> * xyz 0 1
| 35>   C                      5.267570             -1.081642            8.103618
| 36>   O                      4.867190             -2.109481            8.947615
| 37>   H                      3.963623             -1.847875            9.170114
| 38>   H                      5.623439             -0.273538            8.761835
| 39>   H                      6.051549             -1.305107            7.366669
| 40>   H                      4.404855             -0.674548            7.564045
| 41>   C                    : 5.534605             2.185884             8.156706
| 42>   O                    : 5.318715             1.865475             6.790076
| 43>   H                    : 4.667424             2.424962             6.448115
| 44>   H                    : 6.493913             1.733654             8.537385
| 45>   H                    : 5.628464             3.268883             8.368282
| 46>   H                    : 4.732055             1.903321             8.799930
| 47> *
| 48>
| 49> #Run DFT-D3 single point of the particle with dimer basis set
| 50> $new_job
| 51> %base "20-101_DFT_B"
| 52> ! wB97X-D3 def2-TZVP TIGHTSCF CHELPG PMODEL
| 53>
| 54> %scf
| 55> MaxIter 1000
| 56> end
| 57>
| 58> * xyz 0 1
| 59>   C                    : 5.267570             -1.081642            8.103618
| 60>   O                    : 4.867190             -2.109481            8.947615
| 61>   H                    : 3.963623             -1.847875            9.170114
| 62>   H                    : 5.623439             -0.273538            8.761835
| 63>   H                    : 6.051549             -1.305107            7.366669
| 64>   H                    : 4.404855             -0.674548            7.564045
| 65>   C                      5.534605             2.185884             8.156706
| 66>   O                      5.318715             1.865475             6.790076
| 67>   H                      4.667424             2.424962             6.448115
| 68>   H                      6.493913             1.733654             8.537385
| 69>   H                      5.628464             3.268883             8.368282
| 70>   H                      4.732055             1.903321             8.799930
| 71> *
| 72>
| 73>                          ****END OF INPUT****
 Total Charge           Charge          ....    0
 Multiplicity           Mult            ....    1
 Number of Electrons    NEL             ....   36
Dispersion correction           -0.002094799
FINAL SINGLE POINT ENERGY      -231.463986137565
Dispersion correction           -0.000211190
FINAL SINGLE POINT ENERGY      -115.730978320034

CARTESIAN COORDINATES (ANGSTROEM)
---------------------------------
  C      5.267570   -1.081642    8.103618
  O      4.867190   -2.109481    8.947615
  H      3.963623   -1.847875    9.170114
  H      5.623439   -0.273538    8.761835
  H      6.051549   -1.305107    7.366669
  H      4.404855   -0.674548    7.564045
  C      5.534605    2.185884    8.156706
  O      5.318715    1.865475    6.790076
  H      4.667424    2.424962    6.448115
  H      6.493913    1.733654    8.537385
  H      5.628464    3.268883    8.368282
  H      4.732055    1.903321    8.799930

 Multiplicity           Mult            ....    1
 Number of Electrons    NEL             ....   18
 Basis Dimension        Dim             ....  172

ORBITAL ENERGIES
----------------

  NO   OCC          E(Eh)            E(eV)
   0   2.0000     -19.230583      -523.2908
   1   2.0000     -10.316374      -280.7228
   2   2.0000      -1.142810       -31.0974
   3   2.0000      -0.800213       -21.7749
   4   2.0000      -0.620291       -16.8790
   5   2.0000      -0.537825       -14.6349
   6   2.0000      -0.523791       -14.2531
   7   2.0000      -0.436621       -11.8811
   8   2.0000      -0.376506       -10.2452
   9   0.0000       0.094599         2.5742
  10   0.0000       0.129230         3.5165
  11   0.0000       0.152185         4.1412
  12   0.0000       0.171506         4.6669
  13   0.0000       0.197896         5.3850

MULLIKEN ATOMIC CHARGES
-----------------------
   0 C :    0.018215
   1 O :   -0.000120
   2 H :   -0.000123
   3 H :   -0.007043
   4 H :   -0.002214
   5 H :   -0.010702
   6 C :   -0.184671
   7 O :   -0.463863
   8 H :    0.307878
   9 H :    0.120901
  10 H :    0.109897
  11 H :    0.111846
Sum of atomic charges:    0.0000000

LOEWDIN ATOMIC CHARGES
----------------------
   0 C :   -0.014209
   1 O :   -0.000056
   2 H :   -0.000032
   3 H :   -0.011199
   4 H :   -0.000782
   5 H :   -0.005500
   6 C :   -0.375093
   7 O :   -0.048106
   8 H :    0.145109
   9 H :    0.120384
  10 H :    0.097732
  11 H :    0.091752

  Mayer bond orders larger than 0.1
B(  6-C ,  7-O ) :   1.0010 B(  6-C ,  9-H ) :   0.9749 B(  6-C , 10-H ) :   0.9686
B(  6-C , 11-H ) :   0.9731 B(  7-O ,  8-H ) :   0.9061

Dispersion correction           -0.000256129
FINAL SINGLE POINT ENERGY      -115.733136276775

DIPOLE MOMENT
-------------
                                X             Y             Z
Electronic contribution:     -0.23741      -0.56481      -1.83568
Nuclear contribution   :     -0.10244       1.07937       2.16285
                        -----------------------------------------
Total Dipole Moment    :     -0.33985       0.51456       0.32717
                        -----------------------------------------
Magnitude (a.u.)       :      0.69807
Magnitude (Debye)      :      1.77436

Rotational constants in cm-1:     4.446190     0.817670     0.784200
Rotational constants in MHz : 133293.432876 24513.115332 23509.739155

                             ****ORCA TERMINATED NORMALLY****
TOTAL RUN TIME: 0 days 0 hours 1 minutes 8 seconds 59 msec
