                         Program Version 4.1.2  - RELEASE  -
|  1> #Run DFT-D3 single point of the dimer
|  2> ! wB97X-D3 def2-TZVP TIGHTSCF CHELPG PMODEL PAL8
|  3>
|  4> %base "1-33_DFT_AB"
|  5>
|  6> %scf
|  7> MaxIter 1000
|  8> end
|  9>
| 10> * xyz 0 1
| 11>   C                      -2.354992            4.220558             -11.114118
| 12>   O                      -3.266662            5.290288             -11.142796
| 13>   H                      -4.137291            4.981376             -11.457363
| 14>   H                      -1.583191            4.453698             -10.358504
| 15>   H                      -2.862234            3.277000             -10.825924
| 16>   H                      -1.849931            4.156217             -12.122973
| 17>   C                      -2.921939            2.194643             -6.480863
| 18>   O                      -2.454339            3.360789             -5.795631
| 19>   H                      -1.573401            3.488461             -6.159957
| 20>   H                      -3.965933            2.337422             -6.827205
| 21>   H                      -2.310556            1.997838             -7.373862
| 22>   H                      -2.955804            1.298871             -5.886231
| 23> *
| 24>
| 25> #Run DFT-D3 single point of the molecule with dimer basis set
| 26> $new_job
| 27> %base "1-33_DFT_A"
| 28> ! wB97X-D3 def2-TZVP TIGHTSCF CHELPG PMODEL
| 29>
| 30> %scf
| 31> MaxIter 1000
| 32> end
| 33>
| 34> * xyz 0 1
| 35>   C                      -2.354992            4.220558             -11.114118
| 36>   O                      -3.266662            5.290288             -11.142796
| 37>   H                      -4.137291            4.981376             -11.457363
| 38>   H                      -1.583191            4.453698             -10.358504
| 39>   H                      -2.862234            3.277000             -10.825924
| 40>   H                      -1.849931            4.156217             -12.122973
| 41>   C                    : -2.921939            2.194643             -6.480863
| 42>   O                    : -2.454339            3.360789             -5.795631
| 43>   H                    : -1.573401            3.488461             -6.159957
| 44>   H                    : -3.965933            2.337422             -6.827205
| 45>   H                    : -2.310556            1.997838             -7.373862
| 46>   H                    : -2.955804            1.298871             -5.886231
| 47> *
| 48>
| 49> #Run DFT-D3 single point of the particle with dimer basis set
| 50> $new_job
| 51> %base "1-33_DFT_B"
| 52> ! wB97X-D3 def2-TZVP TIGHTSCF CHELPG PMODEL
| 53>
| 54> %scf
| 55> MaxIter 1000
| 56> end
| 57>
| 58> * xyz 0 1
| 59>   C                    : -2.354992            4.220558             -11.114118
| 60>   O                    : -3.266662            5.290288             -11.142796
| 61>   H                    : -4.137291            4.981376             -11.457363
| 62>   H                    : -1.583191            4.453698             -10.358504
| 63>   H                    : -2.862234            3.277000             -10.825924
| 64>   H                    : -1.849931            4.156217             -12.122973
| 65>   C                      -2.921939            2.194643             -6.480863
| 66>   O                      -2.454339            3.360789             -5.795631
| 67>   H                      -1.573401            3.488461             -6.159957
| 68>   H                      -3.965933            2.337422             -6.827205
| 69>   H                      -2.310556            1.997838             -7.373862
| 70>   H                      -2.955804            1.298871             -5.886231
| 71> *
| 72>
| 73>                          ****END OF INPUT****
 Total Charge           Charge          ....    0
 Multiplicity           Mult            ....    1
 Number of Electrons    NEL             ....   36
Dispersion correction           -0.000826171
FINAL SINGLE POINT ENERGY      -231.468690498691
Dispersion correction           -0.000244943
FINAL SINGLE POINT ENERGY      -115.734840709469

CARTESIAN COORDINATES (ANGSTROEM)
---------------------------------
  C     -2.354992    4.220558  -11.114118
  O     -3.266662    5.290288  -11.142796
  H     -4.137291    4.981376  -11.457363
  H     -1.583191    4.453698  -10.358504
  H     -2.862234    3.277000  -10.825924
  H     -1.849931    4.156217  -12.122973
  C     -2.921939    2.194643   -6.480863
  O     -2.454339    3.360789   -5.795631
  H     -1.573401    3.488461   -6.159957
  H     -3.965933    2.337422   -6.827205
  H     -2.310556    1.997838   -7.373862
  H     -2.955804    1.298871   -5.886231

 Multiplicity           Mult            ....    1
 Number of Electrons    NEL             ....   18
 Basis Dimension        Dim             ....  172

ORBITAL ENERGIES
----------------

  NO   OCC          E(Eh)            E(eV)
   0   2.0000     -19.233210      -523.3622
   1   2.0000     -10.314817      -280.6804
   2   2.0000      -1.134615       -30.8744
   3   2.0000      -0.794617       -21.6226
   4   2.0000      -0.608744       -16.5648
   5   2.0000      -0.539095       -14.6695
   6   2.0000      -0.525531       -14.3004
   7   2.0000      -0.439447       -11.9580
   8   2.0000      -0.375461       -10.2168
   9   0.0000       0.080155         2.1811
  10   0.0000       0.112778         3.0688
  11   0.0000       0.149130         4.0580
  12   0.0000       0.163798         4.4572
  13   0.0000       0.189974         5.1695

MULLIKEN ATOMIC CHARGES
-----------------------
   0 C :    0.000226
   1 O :   -0.000011
   2 H :   -0.000005
   3 H :   -0.000074
   4 H :   -0.000267
   5 H :    0.000008
   6 C :   -0.173319
   7 O :   -0.466740
   8 H :    0.316892
   9 H :    0.110727
  10 H :    0.102998
  11 H :    0.109565
Sum of atomic charges:    0.0000000

LOEWDIN ATOMIC CHARGES
----------------------
   0 C :   -0.000092
   1 O :   -0.000003
   2 H :   -0.000001
   3 H :   -0.000049
   4 H :   -0.000136
   5 H :   -0.000001
   6 C :   -0.378327
   7 O :   -0.089347
   8 H :    0.172075
   9 H :    0.105769
  10 H :    0.097826
  11 H :    0.092287

  Mayer bond orders larger than 0.1
B(  6-C ,  7-O ) :   1.0122 B(  6-C ,  9-H ) :   0.9778 B(  6-C , 10-H ) :   0.9871
B(  6-C , 11-H ) :   0.9706 B(  7-O ,  8-H ) :   0.9023

Dispersion correction           -0.000251027
FINAL SINGLE POINT ENERGY      -115.733817457439

DIPOLE MOMENT
-------------
                                X             Y             Z
Electronic contribution:      0.52384       1.51225       1.03224
Nuclear contribution   :     -0.14973      -1.89448      -1.54430
                        -----------------------------------------
Total Dipole Moment    :      0.37411      -0.38223      -0.51207
                        -----------------------------------------
Magnitude (a.u.)       :      0.74046
Magnitude (Debye)      :      1.88209

Rotational constants in cm-1:     4.303062     0.817658     0.783210
Rotational constants in MHz : 129002.563570 24512.767542 23480.035480

                             ****ORCA TERMINATED NORMALLY****
TOTAL RUN TIME: 0 days 0 hours 6 minutes 5 seconds 757 msec
