                         Program Version 4.1.2  - RELEASE  -
|  1> #Run DFT-D3 single point of the dimer
|  2> ! wB97X-D3 def2-TZVP TIGHTSCF CHELPG PMODEL PAL8
|  3>
|  4> %base "20-66_DFT_AB"
|  5>
|  6> %scf
|  7> MaxIter 1000
|  8> end
|  9>
| 10> * xyz 0 1
| 11>   C                      0.659082             8.615269             -3.643497
| 12>   O                      0.571755             9.841283             -3.042450
| 13>   H                      0.633439             10.539445            -3.712564
| 14>   H                      1.490287             8.549697             -4.355124
| 15>   H                      0.762765             7.880298             -2.852222
| 16>   H                      -0.254403            8.351689             -4.285406
| 17>   C                      3.758785             10.546904            -2.137907
| 18>   O                      5.099470             10.796899            -2.136132
| 19>   H                      5.331231             10.154781            -1.497702
| 20>   H                      3.252694             10.653529            -1.203456
| 21>   H                      3.261126             11.286407            -2.828045
| 22>   H                      3.551247             9.573934             -2.549523
| 23> *
| 24>
| 25> #Run DFT-D3 single point of the molecule with dimer basis set
| 26> $new_job
| 27> %base "20-66_DFT_A"
| 28> ! wB97X-D3 def2-TZVP TIGHTSCF CHELPG PMODEL
| 29>
| 30> %scf
| 31> MaxIter 1000
| 32> end
| 33>
| 34> * xyz 0 1
| 35>   C                      0.659082             8.615269             -3.643497
| 36>   O                      0.571755             9.841283             -3.042450
| 37>   H                      0.633439             10.539445            -3.712564
| 38>   H                      1.490287             8.549697             -4.355124
| 39>   H                      0.762765             7.880298             -2.852222
| 40>   H                      -0.254403            8.351689             -4.285406
| 41>   C                    : 3.758785             10.546904            -2.137907
| 42>   O                    : 5.099470             10.796899            -2.136132
| 43>   H                    : 5.331231             10.154781            -1.497702
| 44>   H                    : 3.252694             10.653529            -1.203456
| 45>   H                    : 3.261126             11.286407            -2.828045
| 46>   H                    : 3.551247             9.573934             -2.549523
| 47> *
| 48>
| 49> #Run DFT-D3 single point of the particle with dimer basis set
| 50> $new_job
| 51> %base "20-66_DFT_B"
| 52> ! wB97X-D3 def2-TZVP TIGHTSCF CHELPG PMODEL
| 53>
| 54> %scf
| 55> MaxIter 1000
| 56> end
| 57>
| 58> * xyz 0 1
| 59>   C                    : 0.659082             8.615269             -3.643497
| 60>   O                    : 0.571755             9.841283             -3.042450
| 61>   H                    : 0.633439             10.539445            -3.712564
| 62>   H                    : 1.490287             8.549697             -4.355124
| 63>   H                    : 0.762765             7.880298             -2.852222
| 64>   H                    : -0.254403            8.351689             -4.285406
| 65>   C                      3.758785             10.546904            -2.137907
| 66>   O                      5.099470             10.796899            -2.136132
| 67>   H                      5.331231             10.154781            -1.497702
| 68>   H                      3.252694             10.653529            -1.203456
| 69>   H                      3.261126             11.286407            -2.828045
| 70>   H                      3.551247             9.573934             -2.549523
| 71> *
| 72>
| 73>                          ****END OF INPUT****
 Total Charge           Charge          ....    0
 Multiplicity           Mult            ....    1
 Number of Electrons    NEL             ....   36
Dispersion correction           -0.001792310
FINAL SINGLE POINT ENERGY      -231.464578176529
Dispersion correction           -0.000234560
FINAL SINGLE POINT ENERGY      -115.734681153346

CARTESIAN COORDINATES (ANGSTROEM)
---------------------------------
  C      0.659082    8.615269   -3.643497
  O      0.571755    9.841283   -3.042450
  H      0.633439   10.539445   -3.712564
  H      1.490287    8.549697   -4.355124
  H      0.762765    7.880298   -2.852222
  H     -0.254403    8.351689   -4.285406
  C      3.758785   10.546904   -2.137907
  O      5.099470   10.796899   -2.136132
  H      5.331231   10.154781   -1.497702
  H      3.252694   10.653529   -1.203456
  H      3.261126   11.286407   -2.828045
  H      3.551247    9.573934   -2.549523

 Multiplicity           Mult            ....    1
 Number of Electrons    NEL             ....   18
 Basis Dimension        Dim             ....  172

ORBITAL ENERGIES
----------------

  NO   OCC          E(Eh)            E(eV)
   0   2.0000     -19.232143      -523.3332
   1   2.0000     -10.307483      -280.4809
   2   2.0000      -1.167986       -31.7825
   3   2.0000      -0.791370       -21.5343
   4   2.0000      -0.624994       -17.0069
   5   2.0000      -0.556674       -15.1479
   6   2.0000      -0.529527       -14.4092
   7   2.0000      -0.437434       -11.9032
   8   2.0000      -0.376015       -10.2319
   9   0.0000       0.082027         2.2321
  10   0.0000       0.119050         3.2395
  11   0.0000       0.151249         4.1157
  12   0.0000       0.169686         4.6174
  13   0.0000       0.183723         4.9994

MULLIKEN ATOMIC CHARGES
-----------------------
   0 C :   -0.000677
   1 O :    0.000032
   2 H :   -0.000524
   3 H :   -0.000338
   4 H :    0.000030
   5 H :   -0.000083
   6 C :   -0.178798
   7 O :   -0.437509
   8 H :    0.309795
   9 H :    0.102107
  10 H :    0.108642
  11 H :    0.097323
Sum of atomic charges:    0.0000000

LOEWDIN ATOMIC CHARGES
----------------------
   0 C :   -0.003807
   1 O :   -0.001383
   2 H :   -0.001264
   3 H :   -0.000984
   4 H :   -0.000285
   5 H :   -0.000046
   6 C :   -0.432472
   7 O :   -0.019967
   8 H :    0.164295
   9 H :    0.088223
  10 H :    0.115947
  11 H :    0.091744

  Mayer bond orders larger than 0.1
B(  6-C ,  7-O ) :   1.0081 B(  6-C ,  9-H ) :   0.9705 B(  6-C , 10-H ) :   0.9740
B(  6-C , 11-H ) :   0.9832 B(  7-O ,  8-H ) :   0.9098

Dispersion correction           -0.000192609
FINAL SINGLE POINT ENERGY      -115.728038282250

DIPOLE MOMENT
-------------
                                X             Y             Z
Electronic contribution:      1.88423       0.41251       0.01432
Nuclear contribution   :     -2.20619      -0.89196       0.38430
                        -----------------------------------------
Total Dipole Moment    :     -0.32196      -0.47944       0.39863
                        -----------------------------------------
Magnitude (a.u.)       :      0.70173
Magnitude (Debye)      :      1.78366

Rotational constants in cm-1:     4.325940     0.895300     0.858475
Rotational constants in MHz : 129688.413039 26840.416216 25736.432615

                             ****ORCA TERMINATED NORMALLY****
TOTAL RUN TIME: 0 days 0 hours 1 minutes 6 seconds 425 msec
