                         Program Version 4.1.2  - RELEASE  -
|  1> #Run DFT-D3 single point of the dimer
|  2> ! wB97X-D3 def2-TZVP TIGHTSCF CHELPG PMODEL PAL8
|  3>
|  4> %base "16-59_DFT_AB"
|  5>
|  6> %scf
|  7> MaxIter 1000
|  8> end
|  9>
| 10> * xyz 0 1
| 11>   C                      8.058946             -9.033042            0.461038
| 12>   O                      8.872390             -8.090761            1.090432
| 13>   H                      8.823240             -8.265778            1.999192
| 14>   H                      7.747471             -8.809037            -0.550858
| 15>   H                      8.601848             -9.949009            0.269711
| 16>   H                      7.118040             -9.192842            0.968932
| 17>   C                      9.332024             -7.825781            -3.804788
| 18>   O                      8.953421             -7.722838            -5.139420
| 19>   H                      8.371526             -8.481379            -5.322820
| 20>   H                      10.157458            -8.605935            -3.657025
| 21>   H                      9.700460             -6.873416            -3.434979
| 22>   H                      8.503247             -8.036935            -3.181149
| 23> *
| 24>
| 25> #Run DFT-D3 single point of the molecule with dimer basis set
| 26> $new_job
| 27> %base "16-59_DFT_A"
| 28> ! wB97X-D3 def2-TZVP TIGHTSCF CHELPG PMODEL
| 29>
| 30> %scf
| 31> MaxIter 1000
| 32> end
| 33>
| 34> * xyz 0 1
| 35>   C                      8.058946             -9.033042            0.461038
| 36>   O                      8.872390             -8.090761            1.090432
| 37>   H                      8.823240             -8.265778            1.999192
| 38>   H                      7.747471             -8.809037            -0.550858
| 39>   H                      8.601848             -9.949009            0.269711
| 40>   H                      7.118040             -9.192842            0.968932
| 41>   C                    : 9.332024             -7.825781            -3.804788
| 42>   O                    : 8.953421             -7.722838            -5.139420
| 43>   H                    : 8.371526             -8.481379            -5.322820
| 44>   H                    : 10.157458            -8.605935            -3.657025
| 45>   H                    : 9.700460             -6.873416            -3.434979
| 46>   H                    : 8.503247             -8.036935            -3.181149
| 47> *
| 48>
| 49> #Run DFT-D3 single point of the particle with dimer basis set
| 50> $new_job
| 51> %base "16-59_DFT_B"
| 52> ! wB97X-D3 def2-TZVP TIGHTSCF CHELPG PMODEL
| 53>
| 54> %scf
| 55> MaxIter 1000
| 56> end
| 57>
| 58> * xyz 0 1
| 59>   C                    : 8.058946             -9.033042            0.461038
| 60>   O                    : 8.872390             -8.090761            1.090432
| 61>   H                    : 8.823240             -8.265778            1.999192
| 62>   H                    : 7.747471             -8.809037            -0.550858
| 63>   H                    : 8.601848             -9.949009            0.269711
| 64>   H                    : 7.118040             -9.192842            0.968932
| 65>   C                      9.332024             -7.825781            -3.804788
| 66>   O                      8.953421             -7.722838            -5.139420
| 67>   H                      8.371526             -8.481379            -5.322820
| 68>   H                      10.157458            -8.605935            -3.657025
| 69>   H                      9.700460             -6.873416            -3.434979
| 70>   H                      8.503247             -8.036935            -3.181149
| 71> *
| 72>
| 73>                          ****END OF INPUT****
 Total Charge           Charge          ....    0
 Multiplicity           Mult            ....    1
 Number of Electrons    NEL             ....   36
Dispersion correction           -0.000983047
FINAL SINGLE POINT ENERGY      -231.464955642006
Dispersion correction           -0.000234318
FINAL SINGLE POINT ENERGY      -115.730646252834

CARTESIAN COORDINATES (ANGSTROEM)
---------------------------------
  C      8.058946   -9.033042    0.461038
  O      8.872390   -8.090761    1.090432
  H      8.823240   -8.265778    1.999192
  H      7.747471   -8.809037   -0.550858
  H      8.601848   -9.949009    0.269711
  H      7.118040   -9.192842    0.968932
  C      9.332024   -7.825781   -3.804788
  O      8.953421   -7.722838   -5.139420
  H      8.371526   -8.481379   -5.322820
  H     10.157458   -8.605935   -3.657025
  H      9.700460   -6.873416   -3.434979
  H      8.503247   -8.036935   -3.181149

 Multiplicity           Mult            ....    1
 Number of Electrons    NEL             ....   18
 Basis Dimension        Dim             ....  172

ORBITAL ENERGIES
----------------

  NO   OCC          E(Eh)            E(eV)
   0   2.0000     -19.232025      -523.3300
   1   2.0000     -10.311528      -280.5909
   2   2.0000      -1.142372       -31.0855
   3   2.0000      -0.793003       -21.5787
   4   2.0000      -0.613882       -16.7046
   5   2.0000      -0.543598       -14.7920
   6   2.0000      -0.530570       -14.4375
   7   2.0000      -0.431485       -11.7413
   8   2.0000      -0.372808       -10.1446
   9   0.0000       0.082818         2.2536
  10   0.0000       0.114589         3.1181
  11   0.0000       0.146154         3.9770
  12   0.0000       0.167836         4.5671
  13   0.0000       0.188234         5.1221

MULLIKEN ATOMIC CHARGES
-----------------------
   0 C :    0.000890
   1 O :    0.000007
   2 H :    0.000003
   3 H :   -0.001838
   4 H :   -0.000074
   5 H :   -0.000053
   6 C :   -0.154216
   7 O :   -0.468796
   8 H :    0.317078
   9 H :    0.090342
  10 H :    0.111490
  11 H :    0.105170
Sum of atomic charges:    0.0000000

LOEWDIN ATOMIC CHARGES
----------------------
   0 C :   -0.000564
   1 O :   -0.000006
   2 H :   -0.000000
   3 H :   -0.001740
   4 H :   -0.000025
   5 H :   -0.000004
   6 C :   -0.406262
   7 O :   -0.065616
   8 H :    0.180132
   9 H :    0.101439
  10 H :    0.105293
  11 H :    0.087353

  Mayer bond orders larger than 0.1
B(  6-C ,  7-O ) :   1.0052 B(  6-C ,  9-H ) :   0.9748 B(  6-C , 10-H ) :   0.9726
B(  6-C , 11-H ) :   0.9832 B(  7-O ,  8-H ) :   0.8969

Dispersion correction           -0.000232792
FINAL SINGLE POINT ENERGY      -115.733833400358

DIPOLE MOMENT
-------------
                                X             Y             Z
Electronic contribution:     -0.47811       0.27756      -1.78275
Nuclear contribution   :      0.21859      -0.76141       2.18206
                        -----------------------------------------
Total Dipole Moment    :     -0.25953      -0.48386       0.39931
                        -----------------------------------------
Magnitude (a.u.)       :      0.67891
Magnitude (Debye)      :      1.72565

Rotational constants in cm-1:     4.264479     0.847730     0.824996
Rotational constants in MHz : 127845.867931 25414.310933 24732.751190

                             ****ORCA TERMINATED NORMALLY****
TOTAL RUN TIME: 0 days 0 hours 1 minutes 0 seconds 562 msec
