                         Program Version 4.1.2  - RELEASE  -
|  1> #Run DFT-D3 single point of the dimer
|  2> ! wB97X-D3 def2-TZVP TIGHTSCF CHELPG PMODEL PAL8
|  3>
|  4> %base "7-47_DFT_AB"
|  5>
|  6> %scf
|  7> MaxIter 1000
|  8> end
|  9>
| 10> * xyz 0 1
| 11>   C                      -9.811344            4.558187             10.207530
| 12>   O                      -8.653833            5.412163             9.985210
| 13>   H                      -8.166910            5.609681             10.804078
| 14>   H                      -10.766672           5.084000             10.437990
| 15>   H                      -10.064099           3.949902             9.357270
| 16>   H                      -9.652676            3.829172             10.959154
| 17>   C                      -10.666586           6.170004             7.379040
| 18>   O                      -9.388597            6.730115             7.666832
| 19>   H                      -9.030855            6.074726             8.273595
| 20>   H                      -10.579796           5.389328             6.632347
| 21>   H                      -11.206953           5.813961             8.258117
| 22>   H                      -11.338197           6.898254             6.829734
| 23> *
| 24>
| 25> #Run DFT-D3 single point of the molecule with dimer basis set
| 26> $new_job
| 27> %base "7-47_DFT_A"
| 28> ! wB97X-D3 def2-TZVP TIGHTSCF CHELPG PMODEL
| 29>
| 30> %scf
| 31> MaxIter 1000
| 32> end
| 33>
| 34> * xyz 0 1
| 35>   C                      -9.811344            4.558187             10.207530
| 36>   O                      -8.653833            5.412163             9.985210
| 37>   H                      -8.166910            5.609681             10.804078
| 38>   H                      -10.766672           5.084000             10.437990
| 39>   H                      -10.064099           3.949902             9.357270
| 40>   H                      -9.652676            3.829172             10.959154
| 41>   C                    : -10.666586           6.170004             7.379040
| 42>   O                    : -9.388597            6.730115             7.666832
| 43>   H                    : -9.030855            6.074726             8.273595
| 44>   H                    : -10.579796           5.389328             6.632347
| 45>   H                    : -11.206953           5.813961             8.258117
| 46>   H                    : -11.338197           6.898254             6.829734
| 47> *
| 48>
| 49> #Run DFT-D3 single point of the particle with dimer basis set
| 50> $new_job
| 51> %base "7-47_DFT_B"
| 52> ! wB97X-D3 def2-TZVP TIGHTSCF CHELPG PMODEL
| 53>
| 54> %scf
| 55> MaxIter 1000
| 56> end
| 57>
| 58> * xyz 0 1
| 59>   C                    : -9.811344            4.558187             10.207530
| 60>   O                    : -8.653833            5.412163             9.985210
| 61>   H                    : -8.166910            5.609681             10.804078
| 62>   H                    : -10.766672           5.084000             10.437990
| 63>   H                    : -10.064099           3.949902             9.357270
| 64>   H                    : -9.652676            3.829172             10.959154
| 65>   C                      -10.666586           6.170004             7.379040
| 66>   O                      -9.388597            6.730115             7.666832
| 67>   H                      -9.030855            6.074726             8.273595
| 68>   H                      -10.579796           5.389328             6.632347
| 69>   H                      -11.206953           5.813961             8.258117
| 70>   H                      -11.338197           6.898254             6.829734
| 71> *
| 72>
| 73>                          ****END OF INPUT****
 Total Charge           Charge          ....    0
 Multiplicity           Mult            ....    1
 Number of Electrons    NEL             ....   36
Dispersion correction           -0.002280257
FINAL SINGLE POINT ENERGY      -231.468192724864
Dispersion correction           -0.000289716
FINAL SINGLE POINT ENERGY      -115.730484268654

CARTESIAN COORDINATES (ANGSTROEM)
---------------------------------
  C     -9.811344    4.558187   10.207530
  O     -8.653833    5.412163    9.985210
  H     -8.166910    5.609681   10.804078
  H    -10.766672    5.084000   10.437990
  H    -10.064099    3.949902    9.357270
  H     -9.652676    3.829172   10.959154
  C    -10.666586    6.170004    7.379040
  O     -9.388597    6.730115    7.666832
  H     -9.030855    6.074726    8.273595
  H    -10.579796    5.389328    6.632347
  H    -11.206953    5.813961    8.258117
  H    -11.338197    6.898254    6.829734

 Multiplicity           Mult            ....    1
 Number of Electrons    NEL             ....   18
 Basis Dimension        Dim             ....  172

ORBITAL ENERGIES
----------------

  NO   OCC          E(Eh)            E(eV)
   0   2.0000     -19.235735      -523.4310
   1   2.0000     -10.316997      -280.7398
   2   2.0000      -1.138869       -30.9902
   3   2.0000      -0.792532       -21.5659
   4   2.0000      -0.607740       -16.5374
   5   2.0000      -0.545325       -14.8391
   6   2.0000      -0.522761       -14.2251
   7   2.0000      -0.439052       -11.9472
   8   2.0000      -0.376277       -10.2390
   9   0.0000       0.070415         1.9161
  10   0.0000       0.136645         3.7183
  11   0.0000       0.144903         3.9430
  12   0.0000       0.175732         4.7819
  13   0.0000       0.178741         4.8638

MULLIKEN ATOMIC CHARGES
-----------------------
   0 C :   -0.004691
   1 O :   -0.004604
   2 H :   -0.000485
   3 H :    0.000896
   4 H :    0.000725
   5 H :    0.000057
   6 C :   -0.189252
   7 O :   -0.451744
   8 H :    0.315658
   9 H :    0.107059
  10 H :    0.109028
  11 H :    0.117354
Sum of atomic charges:    0.0000000

LOEWDIN ATOMIC CHARGES
----------------------
   0 C :   -0.018227
   1 O :   -0.024209
   2 H :   -0.001078
   3 H :   -0.003120
   4 H :   -0.003023
   5 H :   -0.000151
   6 C :   -0.381087
   7 O :   -0.064529
   8 H :    0.184930
   9 H :    0.093513
  10 H :    0.102022
  11 H :    0.114960

  Mayer bond orders larger than 0.1
B(  6-C ,  7-O ) :   1.0027 B(  6-C ,  9-H ) :   0.9817 B(  6-C , 10-H ) :   0.9700
B(  6-C , 11-H ) :   0.9738 B(  7-O ,  8-H ) :   0.9058

Dispersion correction           -0.000239471
FINAL SINGLE POINT ENERGY      -115.733091731634

DIPOLE MOMENT
-------------
                                X             Y             Z
Electronic contribution:      1.68466       0.84466       0.39340
Nuclear contribution   :     -1.96673      -1.45827      -0.14563
                        -----------------------------------------
Total Dipole Moment    :     -0.28208      -0.61362       0.24777
                        -----------------------------------------
Magnitude (a.u.)       :      0.71936
Magnitude (Debye)      :      1.82848

Rotational constants in cm-1:     4.254822     0.822264     0.788882
Rotational constants in MHz : 127556.355975 24650.868821 23650.100709

                             ****ORCA TERMINATED NORMALLY****
TOTAL RUN TIME: 0 days 0 hours 1 minutes 6 seconds 102 msec
