                         Program Version 4.1.2  - RELEASE  -
|  1> #Run DFT-D3 single point of the dimer
|  2> ! wB97X-D3 def2-TZVP TIGHTSCF CHELPG PMODEL PAL8
|  3>
|  4> %base "20-29_DFT_AB"
|  5>
|  6> %scf
|  7> MaxIter 1000
|  8> end
|  9>
| 10> * xyz 0 1
| 11>   C                      -1.641794            5.307331             1.637861
| 12>   O                      -2.575965            4.229584             1.491744
| 13>   H                      -2.767324            3.875175             2.374490
| 14>   H                      -1.946451            5.984514             2.464272
| 15>   H                      -0.555480            5.066071             1.793109
| 16>   H                      -1.550788            5.846078             0.708489
| 17>   C                      -1.761067            5.722091             -2.002277
| 18>   O                      -1.949604            4.450320             -2.319201
| 19>   H                      -2.743328            3.992807             -2.075747
| 20>   H                      -2.692750            6.144057             -1.678658
| 21>   H                      -0.954174            5.871586             -1.341224
| 22>   H                      -1.561292            6.309232             -2.952997
| 23> *
| 24>
| 25> #Run DFT-D3 single point of the molecule with dimer basis set
| 26> $new_job
| 27> %base "20-29_DFT_A"
| 28> ! wB97X-D3 def2-TZVP TIGHTSCF CHELPG PMODEL
| 29>
| 30> %scf
| 31> MaxIter 1000
| 32> end
| 33>
| 34> * xyz 0 1
| 35>   C                      -1.641794            5.307331             1.637861
| 36>   O                      -2.575965            4.229584             1.491744
| 37>   H                      -2.767324            3.875175             2.374490
| 38>   H                      -1.946451            5.984514             2.464272
| 39>   H                      -0.555480            5.066071             1.793109
| 40>   H                      -1.550788            5.846078             0.708489
| 41>   C                    : -1.761067            5.722091             -2.002277
| 42>   O                    : -1.949604            4.450320             -2.319201
| 43>   H                    : -2.743328            3.992807             -2.075747
| 44>   H                    : -2.692750            6.144057             -1.678658
| 45>   H                    : -0.954174            5.871586             -1.341224
| 46>   H                    : -1.561292            6.309232             -2.952997
| 47> *
| 48>
| 49> #Run DFT-D3 single point of the particle with dimer basis set
| 50> $new_job
| 51> %base "20-29_DFT_B"
| 52> ! wB97X-D3 def2-TZVP TIGHTSCF CHELPG PMODEL
| 53>
| 54> %scf
| 55> MaxIter 1000
| 56> end
| 57>
| 58> * xyz 0 1
| 59>   C                    : -1.641794            5.307331             1.637861
| 60>   O                    : -2.575965            4.229584             1.491744
| 61>   H                    : -2.767324            3.875175             2.374490
| 62>   H                    : -1.946451            5.984514             2.464272
| 63>   H                    : -0.555480            5.066071             1.793109
| 64>   H                    : -1.550788            5.846078             0.708489
| 65>   C                      -1.761067            5.722091             -2.002277
| 66>   O                      -1.949604            4.450320             -2.319201
| 67>   H                      -2.743328            3.992807             -2.075747
| 68>   H                      -2.692750            6.144057             -1.678658
| 69>   H                      -0.954174            5.871586             -1.341224
| 70>   H                      -1.561292            6.309232             -2.952997
| 71> *
| 72>
| 73>                          ****END OF INPUT****
 Total Charge           Charge          ....    0
 Multiplicity           Mult            ....    1
 Number of Electrons    NEL             ....   36
Dispersion correction           -0.001803844
FINAL SINGLE POINT ENERGY      -231.456958613706
Dispersion correction           -0.000275766
FINAL SINGLE POINT ENERGY      -115.732459430134

CARTESIAN COORDINATES (ANGSTROEM)
---------------------------------
  C     -1.641794    5.307331    1.637861
  O     -2.575965    4.229584    1.491744
  H     -2.767324    3.875175    2.374490
  H     -1.946451    5.984514    2.464272
  H     -0.555480    5.066071    1.793109
  H     -1.550788    5.846078    0.708489
  C     -1.761067    5.722091   -2.002277
  O     -1.949604    4.450320   -2.319201
  H     -2.743328    3.992807   -2.075747
  H     -2.692750    6.144057   -1.678658
  H     -0.954174    5.871586   -1.341224
  H     -1.561292    6.309232   -2.952997

 Multiplicity           Mult            ....    1
 Number of Electrons    NEL             ....   18
 Basis Dimension        Dim             ....  172

ORBITAL ENERGIES
----------------

  NO   OCC          E(Eh)            E(eV)
   0   2.0000     -19.221278      -523.0376
   1   2.0000     -10.303325      -280.3677
   2   2.0000      -1.159633       -31.5552
   3   2.0000      -0.802068       -21.8254
   4   2.0000      -0.631157       -17.1747
   5   2.0000      -0.562117       -15.2960
   6   2.0000      -0.536249       -14.5921
   7   2.0000      -0.407709       -11.0943
   8   2.0000      -0.365687        -9.9508
   9   0.0000       0.084669         2.3040
  10   0.0000       0.120663         3.2834
  11   0.0000       0.151069         4.1108
  12   0.0000       0.177571         4.8319
  13   0.0000       0.186775         5.0824

MULLIKEN ATOMIC CHARGES
-----------------------
   0 C :    0.009296
   1 O :   -0.000235
   2 H :   -0.000006
   3 H :   -0.000083
   4 H :   -0.001088
   5 H :   -0.013954
   6 C :   -0.122744
   7 O :   -0.482503
   8 H :    0.327030
   9 H :    0.089143
  10 H :    0.105620
  11 H :    0.089525
Sum of atomic charges:   -0.0000000

LOEWDIN ATOMIC CHARGES
----------------------
   0 C :   -0.004548
   1 O :   -0.000582
   2 H :   -0.000022
   3 H :   -0.000015
   4 H :   -0.000152
   5 H :   -0.010297
   6 C :   -0.438974
   7 O :   -0.004650
   8 H :    0.166252
   9 H :    0.093017
  10 H :    0.093215
  11 H :    0.106757

  Mayer bond orders larger than 0.1
B(  6-C ,  7-O ) :   1.0162 B(  6-C ,  9-H ) :   0.9958 B(  6-C , 10-H ) :   0.9732
B(  6-C , 11-H ) :   0.9702 B(  7-O ,  8-H ) :   0.8864

Dispersion correction           -0.000226593
FINAL SINGLE POINT ENERGY      -115.723244336504

DIPOLE MOMENT
-------------
                                X             Y             Z
Electronic contribution:     -0.12380      -1.77128      -0.26594
Nuclear contribution   :     -0.39177       1.90583       0.55911
                        -----------------------------------------
Total Dipole Moment    :     -0.51558       0.13456       0.29316
                        -----------------------------------------
Magnitude (a.u.)       :      0.60817
Magnitude (Debye)      :      1.54585

Rotational constants in cm-1:     4.539101     0.908095     0.884886
Rotational constants in MHz : 136078.831873 27223.993243 26528.227337

                             ****ORCA TERMINATED NORMALLY****
TOTAL RUN TIME: 0 days 0 hours 1 minutes 4 seconds 258 msec
