                         Program Version 4.1.2  - RELEASE  -
|  1> #Run DFT-D3 single point of the dimer
|  2> ! wB97X-D3 def2-TZVP TIGHTSCF  CHELPG PAL8
|  3>
|  4> %base "137_charges"
|  5>
|  6> %scf
|  7> MaxIter 1000
|  8> end
|  9> %output
| 10>   Print[ P_Mayer ] 1
| 11>   Print[ P_NatPop ] 1
| 12>   Print[ P_Hirshfeld ] 1
| 13>   Print[ P_Mulliken ] 1
| 14>   Print [ P_Loewdin ] 1
| 15> end
| 16>
| 17> * xyz 0 1
| 18>   C                      -7.846786            9.980089             1.989364
| 19>   O                      -8.974696            10.901015            1.902426
| 20>   H                      -8.721651            11.620024            2.463232
| 21>   H                      -7.869643            9.324516             1.111412
| 22>   H                      -6.845733            10.507244            2.049421
| 23>   H                      -7.885856            9.390858             3.007655
| 24> *
| 25>
| 26>                          ****END OF INPUT****

CARTESIAN COORDINATES (ANGSTROEM)
---------------------------------
  C     -7.846786    9.980089    1.989364
  O     -8.974696   10.901015    1.902426
  H     -8.721651   11.620024    2.463232
  H     -7.869643    9.324516    1.111412
  H     -6.845733   10.507244    2.049421
  H     -7.885856    9.390858    3.007655

 Total Charge           Charge          ....    0
 Multiplicity           Mult            ....    1
 Number of Electrons    NEL             ....   18
 Basis Dimension        Dim             ....   86

ORBITAL ENERGIES
----------------

  NO   OCC          E(Eh)            E(eV)
   0   2.0000     -19.232114      -523.3324
   1   2.0000     -10.331024      -281.1215
   2   2.0000      -1.130098       -30.7515
   3   2.0000      -0.787723       -21.4350
   4   2.0000      -0.605081       -16.4651
   5   2.0000      -0.529441       -14.4068
   6   2.0000      -0.515264       -14.0211
   7   2.0000      -0.446403       -12.1472
   8   2.0000      -0.373059       -10.1514
   9   0.0000       0.113015         3.0753
  10   0.0000       0.149711         4.0738
  11   0.0000       0.187217         5.0944
  12   0.0000       0.199114         5.4182
  13   0.0000       0.226064         6.1515

MULLIKEN ATOMIC CHARGES
-----------------------
   0 C :   -0.191077
   1 O :   -0.462351
   2 H :    0.310120
   3 H :    0.132852
   4 H :    0.107928
   5 H :    0.102529
Sum of atomic charges:   -0.0000000

LOEWDIN ATOMIC CHARGES
----------------------
   0 C :   -0.370880
   1 O :   -0.101328
   2 H :    0.157123
   3 H :    0.107308
   4 H :    0.100527
   5 H :    0.107250

  Mayer bond orders larger than 0.1
B(  0-C ,  1-O ) :   0.9989 B(  0-C ,  3-H ) :   0.9715 B(  0-C ,  4-H ) :   0.9714
B(  0-C ,  5-H ) :   0.9680 B(  1-O ,  2-H ) :   0.9070

Dispersion correction           -0.000269264
FINAL SINGLE POINT ENERGY      -115.729744908205

DIPOLE MOMENT
-------------
                                X             Y             Z
Electronic contribution:     -1.53784       1.06471      -0.35234
Nuclear contribution   :      2.15777      -0.96283       0.71492
                        -----------------------------------------
Total Dipole Moment    :      0.61993       0.10187       0.36258
                        -----------------------------------------
Magnitude (a.u.)       :      0.72537
Magnitude (Debye)      :      1.84373

Rotational constants in cm-1:     4.002026     0.788842     0.759395
Rotational constants in MHz : 119977.724840 23648.883314 22766.078428

                             ****ORCA TERMINATED NORMALLY****
TOTAL RUN TIME: 0 days 0 hours 0 minutes 40 seconds 711 msec
