                         Program Version 4.1.2  - RELEASE  -
|  1> #Run DFT-D3 single point of the dimer
|  2> ! wB97X-D3 def2-TZVP TIGHTSCF CHELPG PMODEL PAL8
|  3>
|  4> %base "18-78_DFT_AB"
|  5>
|  6> %scf
|  7> MaxIter 1000
|  8> end
|  9>
| 10> * xyz 0 1
| 11>   C                      1.357016             -4.144993            -10.981236
| 12>   O                      0.027472             -4.230226            -11.449429
| 13>   H                      -0.609732            -4.116617            -10.744449
| 14>   H                      1.503885             -3.179850            -10.444601
| 15>   H                      1.556631             -4.875398            -10.229939
| 16>   H                      2.132881             -4.103547            -11.830028
| 17>   C                      -0.754769            -1.422631            -9.306047
| 18>   O                      -1.310124            -2.712683            -9.086233
| 19>   H                      -1.951903            -2.836514            -9.786444
| 20>   H                      -0.309444            -0.936969            -8.370109
| 21>   H                      0.081290             -1.454435            -10.056730
| 22>   H                      -1.496361            -0.747542            -9.587582
| 23> *
| 24>
| 25> #Run DFT-D3 single point of the molecule with dimer basis set
| 26> $new_job
| 27> %base "18-78_DFT_A"
| 28> ! wB97X-D3 def2-TZVP TIGHTSCF CHELPG PMODEL
| 29>
| 30> %scf
| 31> MaxIter 1000
| 32> end
| 33>
| 34> * xyz 0 1
| 35>   C                      1.357016             -4.144993            -10.981236
| 36>   O                      0.027472             -4.230226            -11.449429
| 37>   H                      -0.609732            -4.116617            -10.744449
| 38>   H                      1.503885             -3.179850            -10.444601
| 39>   H                      1.556631             -4.875398            -10.229939
| 40>   H                      2.132881             -4.103547            -11.830028
| 41>   C                    : -0.754769            -1.422631            -9.306047
| 42>   O                    : -1.310124            -2.712683            -9.086233
| 43>   H                    : -1.951903            -2.836514            -9.786444
| 44>   H                    : -0.309444            -0.936969            -8.370109
| 45>   H                    : 0.081290             -1.454435            -10.056730
| 46>   H                    : -1.496361            -0.747542            -9.587582
| 47> *
| 48>
| 49> #Run DFT-D3 single point of the particle with dimer basis set
| 50> $new_job
| 51> %base "18-78_DFT_B"
| 52> ! wB97X-D3 def2-TZVP TIGHTSCF CHELPG PMODEL
| 53>
| 54> %scf
| 55> MaxIter 1000
| 56> end
| 57>
| 58> * xyz 0 1
| 59>   C                    : 1.357016             -4.144993            -10.981236
| 60>   O                    : 0.027472             -4.230226            -11.449429
| 61>   H                    : -0.609732            -4.116617            -10.744449
| 62>   H                    : 1.503885             -3.179850            -10.444601
| 63>   H                    : 1.556631             -4.875398            -10.229939
| 64>   H                    : 2.132881             -4.103547            -11.830028
| 65>   C                      -0.754769            -1.422631            -9.306047
| 66>   O                      -1.310124            -2.712683            -9.086233
| 67>   H                      -1.951903            -2.836514            -9.786444
| 68>   H                      -0.309444            -0.936969            -8.370109
| 69>   H                      0.081290             -1.454435            -10.056730
| 70>   H                      -1.496361            -0.747542            -9.587582
| 71> *
| 72>
| 73>                          ****END OF INPUT****
 Total Charge           Charge          ....    0
 Multiplicity           Mult            ....    1
 Number of Electrons    NEL             ....   36
Dispersion correction           -0.002202638
FINAL SINGLE POINT ENERGY      -231.466879786298
Dispersion correction           -0.000247279
FINAL SINGLE POINT ENERGY      -115.731357652155

CARTESIAN COORDINATES (ANGSTROEM)
---------------------------------
  C      1.357016   -4.144993  -10.981236
  O      0.027472   -4.230226  -11.449429
  H     -0.609732   -4.116617  -10.744449
  H      1.503885   -3.179850  -10.444601
  H      1.556631   -4.875398  -10.229939
  H      2.132881   -4.103547  -11.830028
  C     -0.754769   -1.422631   -9.306047
  O     -1.310124   -2.712683   -9.086233
  H     -1.951903   -2.836514   -9.786444
  H     -0.309444   -0.936969   -8.370109
  H      0.081290   -1.454435  -10.056730
  H     -1.496361   -0.747542   -9.587582

 Multiplicity           Mult            ....    1
 Number of Electrons    NEL             ....   18
 Basis Dimension        Dim             ....  172

ORBITAL ENERGIES
----------------

  NO   OCC          E(Eh)            E(eV)
   0   2.0000     -19.233986      -523.3834
   1   2.0000     -10.317500      -280.7534
   2   2.0000      -1.138157       -30.9708
   3   2.0000      -0.794618       -21.6227
   4   2.0000      -0.612355       -16.6630
   5   2.0000      -0.544034       -14.8039
   6   2.0000      -0.524384       -14.2692
   7   2.0000      -0.433101       -11.7853
   8   2.0000      -0.376920       -10.2565
   9   0.0000       0.091556         2.4914
  10   0.0000       0.127514         3.4698
  11   0.0000       0.147604         4.0165
  12   0.0000       0.186445         5.0734
  13   0.0000       0.196344         5.3428

MULLIKEN ATOMIC CHARGES
-----------------------
   0 C :    0.003854
   1 O :    0.002281
   2 H :   -0.020056
   3 H :    0.002121
   4 H :   -0.000956
   5 H :    0.000059
   6 C :   -0.183126
   7 O :   -0.456670
   8 H :    0.318029
   9 H :    0.113162
  10 H :    0.099569
  11 H :    0.121732
Sum of atomic charges:   -0.0000000

LOEWDIN ATOMIC CHARGES
----------------------
   0 C :   -0.005690
   1 O :   -0.002914
   2 H :   -0.020932
   3 H :   -0.004341
   4 H :   -0.000255
   5 H :   -0.000042
   6 C :   -0.382690
   7 O :   -0.058916
   8 H :    0.171905
   9 H :    0.116932
  10 H :    0.102547
  11 H :    0.084397

  Mayer bond orders larger than 0.1
B(  6-C ,  7-O ) :   1.0061 B(  6-C ,  9-H ) :   0.9732 B(  6-C , 10-H ) :   0.9717
B(  6-C , 11-H ) :   0.9822 B(  7-O ,  8-H ) :   0.8974

Dispersion correction           -0.000247902
FINAL SINGLE POINT ENERGY      -115.731566346035

DIPOLE MOMENT
-------------
                                X             Y             Z
Electronic contribution:     -0.72106      -1.70914       0.37388
Nuclear contribution   :      0.49770       2.17417      -0.88293
                        -----------------------------------------
Total Dipole Moment    :     -0.22335       0.46502      -0.50905
                        -----------------------------------------
Magnitude (a.u.)       :      0.72475
Magnitude (Debye)      :      1.84217

Rotational constants in cm-1:     4.297112     0.815090     0.792929
Rotational constants in MHz : 128824.186725 24435.776324 23771.426682

                             ****ORCA TERMINATED NORMALLY****
TOTAL RUN TIME: 0 days 0 hours 1 minutes 5 seconds 574 msec
