                         Program Version 4.1.2  - RELEASE  -
|  1> #Run DFT-D3 single point of the dimer
|  2> ! wB97X-D3 def2-TZVP TIGHTSCF CHELPG PMODEL PAL8
|  3>
|  4> %base "14-10_DFT_AB"
|  5>
|  6> %scf
|  7> MaxIter 1000
|  8> end
|  9>
| 10> * xyz 0 1
| 11>   C                      2.263257             -4.148155            5.412082
| 12>   O                      2.954997             -4.750595            6.535683
| 13>   H                      3.854224             -4.751128            6.203519
| 14>   H                      2.189910             -3.055356            5.686844
| 15>   H                      2.686634             -4.323060            4.395248
| 16>   H                      1.297417             -4.690642            5.387383
| 17>   C                      2.433431             -7.892769            3.021983
| 18>   O                      3.262621             -8.993162            3.226220
| 19>   H                      3.720007             -8.989525            4.070696
| 20>   H                      3.113623             -6.992147            3.041975
| 21>   H                      2.056161             -7.820688            2.025780
| 22>   H                      1.661224             -7.817917            3.813661
| 23> *
| 24>
| 25> #Run DFT-D3 single point of the molecule with dimer basis set
| 26> $new_job
| 27> %base "14-10_DFT_A"
| 28> ! wB97X-D3 def2-TZVP TIGHTSCF CHELPG PMODEL
| 29>
| 30> %scf
| 31> MaxIter 1000
| 32> end
| 33>
| 34> * xyz 0 1
| 35>   C                      2.263257             -4.148155            5.412082
| 36>   O                      2.954997             -4.750595            6.535683
| 37>   H                      3.854224             -4.751128            6.203519
| 38>   H                      2.189910             -3.055356            5.686844
| 39>   H                      2.686634             -4.323060            4.395248
| 40>   H                      1.297417             -4.690642            5.387383
| 41>   C                    : 2.433431             -7.892769            3.021983
| 42>   O                    : 3.262621             -8.993162            3.226220
| 43>   H                    : 3.720007             -8.989525            4.070696
| 44>   H                    : 3.113623             -6.992147            3.041975
| 45>   H                    : 2.056161             -7.820688            2.025780
| 46>   H                    : 1.661224             -7.817917            3.813661
| 47> *
| 48>
| 49> #Run DFT-D3 single point of the particle with dimer basis set
| 50> $new_job
| 51> %base "14-10_DFT_B"
| 52> ! wB97X-D3 def2-TZVP TIGHTSCF CHELPG PMODEL
| 53>
| 54> %scf
| 55> MaxIter 1000
| 56> end
| 57>
| 58> * xyz 0 1
| 59>   C                    : 2.263257             -4.148155            5.412082
| 60>   O                    : 2.954997             -4.750595            6.535683
| 61>   H                    : 3.854224             -4.751128            6.203519
| 62>   H                    : 2.189910             -3.055356            5.686844
| 63>   H                    : 2.686634             -4.323060            4.395248
| 64>   H                    : 1.297417             -4.690642            5.387383
| 65>   C                      2.433431             -7.892769            3.021983
| 66>   O                      3.262621             -8.993162            3.226220
| 67>   H                      3.720007             -8.989525            4.070696
| 68>   H                      3.113623             -6.992147            3.041975
| 69>   H                      2.056161             -7.820688            2.025780
| 70>   H                      1.661224             -7.817917            3.813661
| 71> *
| 72>
| 73>                          ****END OF INPUT****
 Total Charge           Charge          ....    0
 Multiplicity           Mult            ....    1
 Number of Electrons    NEL             ....   36
Dispersion correction           -0.001174071
FINAL SINGLE POINT ENERGY      -231.459822233191
Dispersion correction           -0.000245725
FINAL SINGLE POINT ENERGY      -115.728454727044

CARTESIAN COORDINATES (ANGSTROEM)
---------------------------------
  C      2.263257   -4.148155    5.412082
  O      2.954997   -4.750595    6.535683
  H      3.854224   -4.751128    6.203519
  H      2.189910   -3.055356    5.686844
  H      2.686634   -4.323060    4.395248
  H      1.297417   -4.690642    5.387383
  C      2.433431   -7.892769    3.021983
  O      3.262621   -8.993162    3.226220
  H      3.720007   -8.989525    4.070696
  H      3.113623   -6.992147    3.041975
  H      2.056161   -7.820688    2.025780
  H      1.661224   -7.817917    3.813661

 Multiplicity           Mult            ....    1
 Number of Electrons    NEL             ....   18
 Basis Dimension        Dim             ....  172

ORBITAL ENERGIES
----------------

  NO   OCC          E(Eh)            E(eV)
   0   2.0000     -19.225459      -523.1513
   1   2.0000     -10.314864      -280.6817
   2   2.0000      -1.137961       -30.9655
   3   2.0000      -0.796270       -21.6676
   4   2.0000      -0.610582       -16.6148
   5   2.0000      -0.551049       -14.9948
   6   2.0000      -0.530819       -14.4443
   7   2.0000      -0.420622       -11.4457
   8   2.0000      -0.367783       -10.0079
   9   0.0000       0.080168         2.1815
  10   0.0000       0.117995         3.2108
  11   0.0000       0.149433         4.0663
  12   0.0000       0.166676         4.5355
  13   0.0000       0.177906         4.8411

MULLIKEN ATOMIC CHARGES
-----------------------
   0 C :    0.000648
   1 O :    0.000022
   2 H :   -0.000039
   3 H :   -0.000063
   4 H :   -0.001656
   5 H :   -0.000334
   6 C :   -0.143920
   7 O :   -0.486867
   8 H :    0.320255
   9 H :    0.090911
  10 H :    0.122810
  11 H :    0.098234
Sum of atomic charges:   -0.0000000

LOEWDIN ATOMIC CHARGES
----------------------
   0 C :   -0.001039
   1 O :   -0.000007
   2 H :   -0.000043
   3 H :   -0.000007
   4 H :   -0.001453
   5 H :   -0.000270
   6 C :   -0.398505
   7 O :   -0.068921
   8 H :    0.169285
   9 H :    0.100874
  10 H :    0.103362
  11 H :    0.096724

  Mayer bond orders larger than 0.1
B(  6-C ,  7-O ) :   0.9947 B(  6-C ,  9-H ) :   0.9902 B(  6-C , 10-H ) :   0.9659
B(  6-C , 11-H ) :   0.9754 B(  7-O ,  8-H ) :   0.8915

Dispersion correction           -0.000236457
FINAL SINGLE POINT ENERGY      -115.730509391954

DIPOLE MOMENT
-------------
                                X             Y             Z
Electronic contribution:      0.85432      -1.57837       0.11448
Nuclear contribution   :     -0.87768       2.01341       0.32715
                        -----------------------------------------
Total Dipole Moment    :     -0.02336       0.43504       0.44163
                        -----------------------------------------
Magnitude (a.u.)       :      0.62036
Magnitude (Debye)      :      1.57682

Rotational constants in cm-1:     4.301528     0.842277     0.820163
Rotational constants in MHz : 128956.559839 25250.840608 24587.879324

                             ****ORCA TERMINATED NORMALLY****
TOTAL RUN TIME: 0 days 0 hours 0 minutes 53 seconds 690 msec
