                         Program Version 4.1.2  - RELEASE  -
|  1> #Run DFT-D3 single point of the dimer
|  2> ! wB97X-D3 def2-TZVP TIGHTSCF CHELPG PMODEL PAL8
|  3>
|  4> %base "2-146_DFT_AB"
|  5>
|  6> %scf
|  7> MaxIter 1000
|  8> end
|  9>
| 10> * xyz 0 1
| 11>   C                      -7.182048            -8.914908            3.368324
| 12>   O                      -6.336244            -8.077755            4.031345
| 13>   H                      -5.764151            -7.687476            3.377439
| 14>   H                      -8.127755            -8.413409            3.198987
| 15>   H                      -6.764241            -9.326765            2.460549
| 16>   H                      -7.566545            -9.683697            3.982529
| 17>   C                      -7.148623            -4.404922            7.610721
| 18>   O                      -7.375907            -4.307510            6.230849
| 19>   H                      -6.488589            -4.245088            5.849165
| 20>   H                      -6.923351            -5.494273            7.993890
| 21>   H                      -6.294813            -3.768090            7.952278
| 22>   H                      -8.051423            -4.083976            8.151927
| 23> *
| 24>
| 25> #Run DFT-D3 single point of the molecule with dimer basis set
| 26> $new_job
| 27> %base "2-146_DFT_A"
| 28> ! wB97X-D3 def2-TZVP TIGHTSCF CHELPG PMODEL
| 29>
| 30> %scf
| 31> MaxIter 1000
| 32> end
| 33>
| 34> * xyz 0 1
| 35>   C                      -7.182048            -8.914908            3.368324
| 36>   O                      -6.336244            -8.077755            4.031345
| 37>   H                      -5.764151            -7.687476            3.377439
| 38>   H                      -8.127755            -8.413409            3.198987
| 39>   H                      -6.764241            -9.326765            2.460549
| 40>   H                      -7.566545            -9.683697            3.982529
| 41>   C                    : -7.148623            -4.404922            7.610721
| 42>   O                    : -7.375907            -4.307510            6.230849
| 43>   H                    : -6.488589            -4.245088            5.849165
| 44>   H                    : -6.923351            -5.494273            7.993890
| 45>   H                    : -6.294813            -3.768090            7.952278
| 46>   H                    : -8.051423            -4.083976            8.151927
| 47> *
| 48>
| 49> #Run DFT-D3 single point of the particle with dimer basis set
| 50> $new_job
| 51> %base "2-146_DFT_B"
| 52> ! wB97X-D3 def2-TZVP TIGHTSCF CHELPG PMODEL
| 53>
| 54> %scf
| 55> MaxIter 1000
| 56> end
| 57>
| 58> * xyz 0 1
| 59>   C                    : -7.182048            -8.914908            3.368324
| 60>   O                    : -6.336244            -8.077755            4.031345
| 61>   H                    : -5.764151            -7.687476            3.377439
| 62>   H                    : -8.127755            -8.413409            3.198987
| 63>   H                    : -6.764241            -9.326765            2.460549
| 64>   H                    : -7.566545            -9.683697            3.982529
| 65>   C                      -7.148623            -4.404922            7.610721
| 66>   O                      -7.375907            -4.307510            6.230849
| 67>   H                      -6.488589            -4.245088            5.849165
| 68>   H                      -6.923351            -5.494273            7.993890
| 69>   H                      -6.294813            -3.768090            7.952278
| 70>   H                      -8.051423            -4.083976            8.151927
| 71> *
| 72>
| 73>                          ****END OF INPUT****
 Total Charge           Charge          ....    0
 Multiplicity           Mult            ....    1
 Number of Electrons    NEL             ....   36
Dispersion correction           -0.000686464
FINAL SINGLE POINT ENERGY      -231.461414673176
Dispersion correction           -0.000217105
FINAL SINGLE POINT ENERGY      -115.729094987386

CARTESIAN COORDINATES (ANGSTROEM)
---------------------------------
  C     -7.182048   -8.914908    3.368324
  O     -6.336244   -8.077755    4.031345
  H     -5.764151   -7.687476    3.377439
  H     -8.127755   -8.413409    3.198987
  H     -6.764241   -9.326765    2.460549
  H     -7.566545   -9.683697    3.982529
  C     -7.148623   -4.404922    7.610721
  O     -7.375907   -4.307510    6.230849
  H     -6.488589   -4.245088    5.849165
  H     -6.923351   -5.494273    7.993890
  H     -6.294813   -3.768090    7.952278
  H     -8.051423   -4.083976    8.151927

 Multiplicity           Mult            ....    1
 Number of Electrons    NEL             ....   18
 Basis Dimension        Dim             ....  172

ORBITAL ENERGIES
----------------

  NO   OCC          E(Eh)            E(eV)
   0   2.0000     -19.236793      -523.4597
   1   2.0000     -10.324278      -280.9379
   2   2.0000      -1.144161       -31.1342
   3   2.0000      -0.785553       -21.3760
   4   2.0000      -0.613283       -16.6883
   5   2.0000      -0.530852       -14.4452
   6   2.0000      -0.529358       -14.4046
   7   2.0000      -0.438659       -11.9365
   8   2.0000      -0.372404       -10.1336
   9   0.0000       0.088881         2.4186
  10   0.0000       0.112112         3.0507
  11   0.0000       0.149252         4.0614
  12   0.0000       0.169731         4.6186
  13   0.0000       0.192344         5.2339

MULLIKEN ATOMIC CHARGES
-----------------------
   0 C :   -0.000136
   1 O :   -0.000044
   2 H :   -0.000056
   3 H :   -0.000011
   4 H :   -0.000000
   5 H :    0.000012
   6 C :   -0.180364
   7 O :   -0.453654
   8 H :    0.317781
   9 H :    0.089303
  10 H :    0.104537
  11 H :    0.122631
Sum of atomic charges:   -0.0000000

LOEWDIN ATOMIC CHARGES
----------------------
   0 C :   -0.000042
   1 O :   -0.000095
   2 H :   -0.000051
   3 H :   -0.000010
   4 H :   -0.000001
   5 H :   -0.000000
   6 C :   -0.415577
   7 O :   -0.068150
   8 H :    0.177981
   9 H :    0.102048
  10 H :    0.097274
  11 H :    0.106623

  Mayer bond orders larger than 0.1
B(  6-C ,  7-O ) :   1.0139 B(  6-C ,  9-H ) :   0.9652 B(  6-C , 10-H ) :   0.9776
B(  6-C , 11-H ) :   0.9742 B(  7-O ,  8-H ) :   0.8985

Dispersion correction           -0.000257914
FINAL SINGLE POINT ENERGY      -115.732486772940

DIPOLE MOMENT
-------------
                                X             Y             Z
Electronic contribution:     -0.48115       0.20650      -1.90785
Nuclear contribution   :      1.10969      -0.15864       2.16911
                        -----------------------------------------
Total Dipole Moment    :      0.62854       0.04786       0.26126
                        -----------------------------------------
Magnitude (a.u.)       :      0.68235
Magnitude (Debye)      :      1.73440

Rotational constants in cm-1:     4.079727     0.832613     0.803287
Rotational constants in MHz : 122307.130008 24961.118846 24081.924477

                             ****ORCA TERMINATED NORMALLY****
TOTAL RUN TIME: 0 days 0 hours 6 minutes 24 seconds 514 msec
