                         Program Version 4.1.2  - RELEASE  -
|  1> #Run DFT-D3 single point of the dimer
|  2> ! wB97X-D3 def2-TZVP TIGHTSCF CHELPG PMODEL PAL8
|  3>
|  4> %base "11-164_DFT_AB"
|  5>
|  6> %scf
|  7> MaxIter 1000
|  8> end
|  9>
| 10> * xyz 0 1
| 11>   C                      2.929683             7.565886             6.186065
| 12>   O                      1.994438             8.151976             5.350054
| 13>   H                      2.221781             9.017770             4.981318
| 14>   H                      3.621932             7.006439             5.536390
| 15>   H                      3.616853             8.303369             6.650891
| 16>   H                      2.525832             6.884103             6.957979
| 17>   C                      1.565606             4.818952             4.063144
| 18>   O                      0.685042             5.590373             4.790445
| 19>   H                      1.050737             6.522268             4.825861
| 20>   H                      1.151553             3.796714             3.883376
| 21>   H                      1.753708             5.189912             3.077792
| 22>   H                      2.481122             4.505478             4.613110
| 23> *
| 24>
| 25> #Run DFT-D3 single point of the molecule with dimer basis set
| 26> $new_job
| 27> %base "11-164_DFT_A"
| 28> ! wB97X-D3 def2-TZVP TIGHTSCF CHELPG PMODEL
| 29>
| 30> %scf
| 31> MaxIter 1000
| 32> end
| 33>
| 34> * xyz 0 1
| 35>   C                      2.929683             7.565886             6.186065
| 36>   O                      1.994438             8.151976             5.350054
| 37>   H                      2.221781             9.017770             4.981318
| 38>   H                      3.621932             7.006439             5.536390
| 39>   H                      3.616853             8.303369             6.650891
| 40>   H                      2.525832             6.884103             6.957979
| 41>   C                    : 1.565606             4.818952             4.063144
| 42>   O                    : 0.685042             5.590373             4.790445
| 43>   H                    : 1.050737             6.522268             4.825861
| 44>   H                    : 1.151553             3.796714             3.883376
| 45>   H                    : 1.753708             5.189912             3.077792
| 46>   H                    : 2.481122             4.505478             4.613110
| 47> *
| 48>
| 49> #Run DFT-D3 single point of the particle with dimer basis set
| 50> $new_job
| 51> %base "11-164_DFT_B"
| 52> ! wB97X-D3 def2-TZVP TIGHTSCF CHELPG PMODEL
| 53>
| 54> %scf
| 55> MaxIter 1000
| 56> end
| 57>
| 58> * xyz 0 1
| 59>   C                    : 2.929683             7.565886             6.186065
| 60>   O                    : 1.994438             8.151976             5.350054
| 61>   H                    : 2.221781             9.017770             4.981318
| 62>   H                    : 3.621932             7.006439             5.536390
| 63>   H                    : 3.616853             8.303369             6.650891
| 64>   H                    : 2.525832             6.884103             6.957979
| 65>   C                      1.565606             4.818952             4.063144
| 66>   O                      0.685042             5.590373             4.790445
| 67>   H                      1.050737             6.522268             4.825861
| 68>   H                      1.151553             3.796714             3.883376
| 69>   H                      1.753708             5.189912             3.077792
| 70>   H                      2.481122             4.505478             4.613110
| 71> *
| 72>
| 73>                          ****END OF INPUT****
 Total Charge           Charge          ....    0
 Multiplicity           Mult            ....    1
 Number of Electrons    NEL             ....   36
Dispersion correction           -0.002138145
FINAL SINGLE POINT ENERGY      -231.470644556890
Dispersion correction           -0.000250526
FINAL SINGLE POINT ENERGY      -115.730542601426

CARTESIAN COORDINATES (ANGSTROEM)
---------------------------------
  C      2.929683    7.565886    6.186065
  O      1.994438    8.151976    5.350054
  H      2.221781    9.017770    4.981318
  H      3.621932    7.006439    5.536390
  H      3.616853    8.303369    6.650891
  H      2.525832    6.884103    6.957979
  C      1.565606    4.818952    4.063144
  O      0.685042    5.590373    4.790445
  H      1.050737    6.522268    4.825861
  H      1.151553    3.796714    3.883376
  H      1.753708    5.189912    3.077792
  H      2.481122    4.505478    4.613110

 Multiplicity           Mult            ....    1
 Number of Electrons    NEL             ....   18
 Basis Dimension        Dim             ....  172

ORBITAL ENERGIES
----------------

  NO   OCC          E(Eh)            E(eV)
   0   2.0000     -19.238841      -523.5155
   1   2.0000     -10.310428      -280.5610
   2   2.0000      -1.142740       -31.0955
   3   2.0000      -0.791739       -21.5443
   4   2.0000      -0.612271       -16.6607
   5   2.0000      -0.552600       -15.0370
   6   2.0000      -0.527513       -14.3543
   7   2.0000      -0.421806       -11.4779
   8   2.0000      -0.375640       -10.2217
   9   0.0000       0.069446         1.8897
  10   0.0000       0.139906         3.8070
  11   0.0000       0.140788         3.8310
  12   0.0000       0.164203         4.4682
  13   0.0000       0.199188         5.4202

MULLIKEN ATOMIC CHARGES
-----------------------
   0 C :   -0.010879
   1 O :   -0.000834
   2 H :   -0.000098
   3 H :    0.000948
   4 H :   -0.000475
   5 H :   -0.000527
   6 C :   -0.167781
   7 O :   -0.450991
   8 H :    0.319783
   9 H :    0.110942
  10 H :    0.104373
  11 H :    0.095538
Sum of atomic charges:    0.0000000

LOEWDIN ATOMIC CHARGES
----------------------
   0 C :   -0.013262
   1 O :   -0.018511
   2 H :   -0.000874
   3 H :   -0.001431
   4 H :   -0.000231
   5 H :   -0.002339
   6 C :   -0.428034
   7 O :   -0.046653
   8 H :    0.210301
   9 H :    0.113379
  10 H :    0.089662
  11 H :    0.097993

  Mayer bond orders larger than 0.1
B(  6-C ,  7-O ) :   1.0191 B(  6-C ,  9-H ) :   0.9732 B(  6-C , 10-H ) :   0.9796
B(  6-C , 11-H ) :   0.9720 B(  7-O ,  8-H ) :   0.8929

Dispersion correction           -0.000248948
FINAL SINGLE POINT ENERGY      -115.731085194384

DIPOLE MOMENT
-------------
                                X             Y             Z
Electronic contribution:     -1.26111       1.10037       0.97351
Nuclear contribution   :      1.78665      -0.83439      -1.23646
                        -----------------------------------------
Total Dipole Moment    :      0.52554       0.26598      -0.26295
                        -----------------------------------------
Magnitude (a.u.)       :      0.64504
Magnitude (Debye)      :      1.63957

Rotational constants in cm-1:     4.330650     0.848448     0.824106
Rotational constants in MHz : 129829.612575 25435.839313 24706.083386

                             ****ORCA TERMINATED NORMALLY****
TOTAL RUN TIME: 0 days 0 hours 1 minutes 13 seconds 539 msec
