                         Program Version 4.1.2  - RELEASE  -
|  1> #Run DFT-D3 single point of the dimer
|  2> ! wB97X-D3 def2-TZVP TIGHTSCF CHELPG PMODEL PAL8
|  3>
|  4> %base "21-132_DFT_AB"
|  5>
|  6> %scf
|  7> MaxIter 1000
|  8> end
|  9>
| 10> * xyz 0 1
| 11>   C                      -8.175844            -6.461726            -9.529841
| 12>   O                      -6.888502            -6.628987            -8.963924
| 13>   H                      -6.925999            -7.424524            -8.347092
| 14>   H                      -8.688891            -7.439171            -9.596102
| 15>   H                      -8.830355            -5.949237            -8.826932
| 16>   H                      -8.134614            -6.010198            -10.551838
| 17>   C                      -6.785721            -2.843812            -5.782350
| 18>   O                      -7.433503            -2.616658            -7.021264
| 19>   H                      -8.352926            -2.300453            -6.878506
| 20>   H                      -6.414651            -1.937600            -5.388781
| 21>   H                      -7.427972            -3.295129            -4.999299
| 22>   H                      -5.988792            -3.495680            -5.886320
| 23> *
| 24>
| 25> #Run DFT-D3 single point of the molecule with dimer basis set
| 26> $new_job
| 27> %base "21-132_DFT_A"
| 28> ! wB97X-D3 def2-TZVP TIGHTSCF CHELPG PMODEL
| 29>
| 30> %scf
| 31> MaxIter 1000
| 32> end
| 33>
| 34> * xyz 0 1
| 35>   C                      -8.175844            -6.461726            -9.529841
| 36>   O                      -6.888502            -6.628987            -8.963924
| 37>   H                      -6.925999            -7.424524            -8.347092
| 38>   H                      -8.688891            -7.439171            -9.596102
| 39>   H                      -8.830355            -5.949237            -8.826932
| 40>   H                      -8.134614            -6.010198            -10.551838
| 41>   C                    : -6.785721            -2.843812            -5.782350
| 42>   O                    : -7.433503            -2.616658            -7.021264
| 43>   H                    : -8.352926            -2.300453            -6.878506
| 44>   H                    : -6.414651            -1.937600            -5.388781
| 45>   H                    : -7.427972            -3.295129            -4.999299
| 46>   H                    : -5.988792            -3.495680            -5.886320
| 47> *
| 48>
| 49> #Run DFT-D3 single point of the particle with dimer basis set
| 50> $new_job
| 51> %base "21-132_DFT_B"
| 52> ! wB97X-D3 def2-TZVP TIGHTSCF CHELPG PMODEL
| 53>
| 54> %scf
| 55> MaxIter 1000
| 56> end
| 57>
| 58> * xyz 0 1
| 59>   C                    : -8.175844            -6.461726            -9.529841
| 60>   O                    : -6.888502            -6.628987            -8.963924
| 61>   H                    : -6.925999            -7.424524            -8.347092
| 62>   H                    : -8.688891            -7.439171            -9.596102
| 63>   H                    : -8.830355            -5.949237            -8.826932
| 64>   H                    : -8.134614            -6.010198            -10.551838
| 65>   C                      -6.785721            -2.843812            -5.782350
| 66>   O                      -7.433503            -2.616658            -7.021264
| 67>   H                      -8.352926            -2.300453            -6.878506
| 68>   H                      -6.414651            -1.937600            -5.388781
| 69>   H                      -7.427972            -3.295129            -4.999299
| 70>   H                      -5.988792            -3.495680            -5.886320
| 71> *
| 72>
| 73>                          ****END OF INPUT****
 Total Charge           Charge          ....    0
 Multiplicity           Mult            ....    1
 Number of Electrons    NEL             ....   36
Dispersion correction           -0.000822074
FINAL SINGLE POINT ENERGY      -231.462302627103
Dispersion correction           -0.000240568
FINAL SINGLE POINT ENERGY      -115.730488951422

CARTESIAN COORDINATES (ANGSTROEM)
---------------------------------
  C     -8.175844   -6.461726   -9.529841
  O     -6.888502   -6.628987   -8.963924
  H     -6.925999   -7.424524   -8.347092
  H     -8.688891   -7.439171   -9.596102
  H     -8.830355   -5.949237   -8.826932
  H     -8.134614   -6.010198  -10.551838
  C     -6.785721   -2.843812   -5.782350
  O     -7.433503   -2.616658   -7.021264
  H     -8.352926   -2.300453   -6.878506
  H     -6.414651   -1.937600   -5.388781
  H     -7.427972   -3.295129   -4.999299
  H     -5.988792   -3.495680   -5.886320

 Multiplicity           Mult            ....    1
 Number of Electrons    NEL             ....   18
 Basis Dimension        Dim             ....  172

ORBITAL ENERGIES
----------------

  NO   OCC          E(Eh)            E(eV)
   0   2.0000     -19.230881      -523.2989
   1   2.0000     -10.303915      -280.3838
   2   2.0000      -1.128842       -30.7174
   3   2.0000      -0.803137       -21.8545
   4   2.0000      -0.608791       -16.5660
   5   2.0000      -0.545666       -14.8483
   6   2.0000      -0.529743       -14.4151
   7   2.0000      -0.431696       -11.7470
   8   2.0000      -0.373441       -10.1619
   9   0.0000       0.091536         2.4908
  10   0.0000       0.115649         3.1470
  11   0.0000       0.153033         4.1642
  12   0.0000       0.171523         4.6674
  13   0.0000       0.197123         5.3640

MULLIKEN ATOMIC CHARGES
-----------------------
   0 C :   -0.000038
   1 O :    0.000068
   2 H :   -0.000005
   3 H :   -0.000078
   4 H :   -0.001536
   5 H :    0.000088
   6 C :   -0.150902
   7 O :   -0.487486
   8 H :    0.319762
   9 H :    0.100057
  10 H :    0.098935
  11 H :    0.121134
Sum of atomic charges:    0.0000000

LOEWDIN ATOMIC CHARGES
----------------------
   0 C :   -0.000598
   1 O :   -0.000030
   2 H :   -0.000004
   3 H :   -0.000017
   4 H :   -0.000618
   5 H :   -0.000004
   6 C :   -0.373125
   7 O :   -0.088903
   8 H :    0.182022
   9 H :    0.087698
  10 H :    0.099394
  11 H :    0.094184

  Mayer bond orders larger than 0.1
B(  6-C ,  7-O ) :   0.9993 B(  6-C ,  9-H ) :   0.9800 B(  6-C , 10-H ) :   0.9793
B(  6-C , 11-H ) :   0.9751 B(  7-O ,  8-H ) :   0.8927

Dispersion correction           -0.000247594
FINAL SINGLE POINT ENERGY      -115.732417419952

DIPOLE MOMENT
-------------
                                X             Y             Z
Electronic contribution:     -0.66037       0.24339      -1.68974
Nuclear contribution   :      0.35537      -0.14004       2.29301
                        -----------------------------------------
Total Dipole Moment    :     -0.30500       0.10335       0.60327
                        -----------------------------------------
Magnitude (a.u.)       :      0.68384
Magnitude (Debye)      :      1.73819

Rotational constants in cm-1:     4.528570     0.824593     0.796146
Rotational constants in MHz : 135763.116331 24720.682069 23867.859451

                             ****ORCA TERMINATED NORMALLY****
TOTAL RUN TIME: 0 days 0 hours 0 minutes 55 seconds 173 msec
