                         Program Version 4.1.2  - RELEASE  -
|  1> #Run DFT-D3 single point of the dimer
|  2> ! wB97X-D3 def2-TZVP TIGHTSCF CHELPG PMODEL PAL8
|  3>
|  4> %base "16-128_DFT_AB"
|  5>
|  6> %scf
|  7> MaxIter 1000
|  8> end
|  9>
| 10> * xyz 0 1
| 11>   C                      -6.453457            -0.292748            3.025583
| 12>   O                      -7.118976            0.113840             4.133951
| 13>   H                      -6.482829            0.713591             4.577241
| 14>   H                      -7.026724            -1.111261            2.492437
| 15>   H                      -6.333896            0.490249             2.235554
| 16>   H                      -5.489757            -0.618275            3.381762
| 17>   C                      -5.978860            -3.940260            4.967243
| 18>   O                      -7.132571            -3.093609            4.715674
| 19>   H                      -7.114231            -2.576531            5.535234
| 20>   H                      -5.113311            -3.279099            5.162427
| 21>   H                      -6.074069            -4.632805            5.762767
| 22>   H                      -5.784888            -4.569163            4.084840
| 23> *
| 24>
| 25> #Run DFT-D3 single point of the molecule with dimer basis set
| 26> $new_job
| 27> %base "16-128_DFT_A"
| 28> ! wB97X-D3 def2-TZVP TIGHTSCF CHELPG PMODEL
| 29>
| 30> %scf
| 31> MaxIter 1000
| 32> end
| 33>
| 34> * xyz 0 1
| 35>   C                      -6.453457            -0.292748            3.025583
| 36>   O                      -7.118976            0.113840             4.133951
| 37>   H                      -6.482829            0.713591             4.577241
| 38>   H                      -7.026724            -1.111261            2.492437
| 39>   H                      -6.333896            0.490249             2.235554
| 40>   H                      -5.489757            -0.618275            3.381762
| 41>   C                    : -5.978860            -3.940260            4.967243
| 42>   O                    : -7.132571            -3.093609            4.715674
| 43>   H                    : -7.114231            -2.576531            5.535234
| 44>   H                    : -5.113311            -3.279099            5.162427
| 45>   H                    : -6.074069            -4.632805            5.762767
| 46>   H                    : -5.784888            -4.569163            4.084840
| 47> *
| 48>
| 49> #Run DFT-D3 single point of the particle with dimer basis set
| 50> $new_job
| 51> %base "16-128_DFT_B"
| 52> ! wB97X-D3 def2-TZVP TIGHTSCF CHELPG PMODEL
| 53>
| 54> %scf
| 55> MaxIter 1000
| 56> end
| 57>
| 58> * xyz 0 1
| 59>   C                    : -6.453457            -0.292748            3.025583
| 60>   O                    : -7.118976            0.113840             4.133951
| 61>   H                    : -6.482829            0.713591             4.577241
| 62>   H                    : -7.026724            -1.111261            2.492437
| 63>   H                    : -6.333896            0.490249             2.235554
| 64>   H                    : -5.489757            -0.618275            3.381762
| 65>   C                      -5.978860            -3.940260            4.967243
| 66>   O                      -7.132571            -3.093609            4.715674
| 67>   H                      -7.114231            -2.576531            5.535234
| 68>   H                      -5.113311            -3.279099            5.162427
| 69>   H                      -6.074069            -4.632805            5.762767
| 70>   H                      -5.784888            -4.569163            4.084840
| 71> *
| 72>
| 73>                          ****END OF INPUT****
 Total Charge           Charge          ....    0
 Multiplicity           Mult            ....    1
 Number of Electrons    NEL             ....   36
Dispersion correction           -0.001865072
FINAL SINGLE POINT ENERGY      -231.462513471446
Dispersion correction           -0.000206607
FINAL SINGLE POINT ENERGY      -115.729099557456

CARTESIAN COORDINATES (ANGSTROEM)
---------------------------------
  C     -6.453457   -0.292748    3.025583
  O     -7.118976    0.113840    4.133951
  H     -6.482829    0.713591    4.577241
  H     -7.026724   -1.111261    2.492437
  H     -6.333896    0.490249    2.235554
  H     -5.489757   -0.618275    3.381762
  C     -5.978860   -3.940260    4.967243
  O     -7.132571   -3.093609    4.715674
  H     -7.114231   -2.576531    5.535234
  H     -5.113311   -3.279099    5.162427
  H     -6.074069   -4.632805    5.762767
  H     -5.784888   -4.569163    4.084840

 Multiplicity           Mult            ....    1
 Number of Electrons    NEL             ....   18
 Basis Dimension        Dim             ....  172

ORBITAL ENERGIES
----------------

  NO   OCC          E(Eh)            E(eV)
   0   2.0000     -19.235506      -523.4247
   1   2.0000     -10.315240      -280.6920
   2   2.0000      -1.130192       -30.7541
   3   2.0000      -0.795520       -21.6472
   4   2.0000      -0.602569       -16.3967
   5   2.0000      -0.545255       -14.8372
   6   2.0000      -0.517624       -14.0853
   7   2.0000      -0.446412       -12.1475
   8   2.0000      -0.377692       -10.2775
   9   0.0000       0.086727         2.3600
  10   0.0000       0.128836         3.5058
  11   0.0000       0.149528         4.0689
  12   0.0000       0.172004         4.6805
  13   0.0000       0.189093         5.1455

MULLIKEN ATOMIC CHARGES
-----------------------
   0 C :   -0.001815
   1 O :   -0.001095
   2 H :   -0.000127
   3 H :   -0.002821
   4 H :   -0.000260
   5 H :   -0.001080
   6 C :   -0.191192
   7 O :   -0.460309
   8 H :    0.312988
   9 H :    0.109105
  10 H :    0.114189
  11 H :    0.122418
Sum of atomic charges:   -0.0000000

LOEWDIN ATOMIC CHARGES
----------------------
   0 C :   -0.011323
   1 O :   -0.002343
   2 H :   -0.000284
   3 H :   -0.003766
   4 H :   -0.000163
   5 H :   -0.001283
   6 C :   -0.364741
   7 O :   -0.090735
   8 H :    0.175750
   9 H :    0.100299
  10 H :    0.087516
  11 H :    0.111074

  Mayer bond orders larger than 0.1
B(  6-C ,  7-O ) :   0.9924 B(  6-C ,  9-H ) :   0.9829 B(  6-C , 10-H ) :   0.9654
B(  6-C , 11-H ) :   0.9762 B(  7-O ,  8-H ) :   0.9040

Dispersion correction           -0.000232128
FINAL SINGLE POINT ENERGY      -115.732246816308

DIPOLE MOMENT
-------------
                                X             Y             Z
Electronic contribution:     -1.54028       0.94456      -0.41961
Nuclear contribution   :      2.01304      -1.00358       1.02385
                        -----------------------------------------
Total Dipole Moment    :      0.47276      -0.05902       0.60425
                        -----------------------------------------
Magnitude (a.u.)       :      0.76948
Magnitude (Debye)      :      1.95587

Rotational constants in cm-1:     4.244812     0.806607     0.773050
Rotational constants in MHz : 127256.248011 24181.468576 23175.462568

                             ****ORCA TERMINATED NORMALLY****
TOTAL RUN TIME: 0 days 0 hours 1 minutes 7 seconds 187 msec
