                         Program Version 4.1.2  - RELEASE  -
|  1> #Run DFT-D3 single point of the dimer
|  2> ! wB97X-D3 def2-TZVP TIGHTSCF CHELPG PMODEL PAL8
|  3>
|  4> %base "20-161_DFT_AB"
|  5>
|  6> %scf
|  7> MaxIter 1000
|  8> end
|  9>
| 10> * xyz 0 1
| 11>   C                      -6.714063            5.350536             4.090886
| 12>   O                      -7.999713            4.915713             3.661961
| 13>   H                      -7.853763            4.051714             3.187885
| 14>   H                      -5.999717            4.604636             4.133295
| 15>   H                      -6.266902            6.020050             3.367942
| 16>   H                      -6.759302            5.873254             5.050062
| 17>   C                      -8.365297            3.245469             7.096217
| 18>   O                      -9.396077            3.852988             6.217413
| 19>   H                      -8.908390            4.402823             5.570243
| 20>   H                      -7.788748            2.473135             6.506338
| 21>   H                      -7.679448            4.000689             7.503324
| 22>   H                      -8.870938            2.759224             7.921900
| 23> *
| 24>
| 25> #Run DFT-D3 single point of the molecule with dimer basis set
| 26> $new_job
| 27> %base "20-161_DFT_A"
| 28> ! wB97X-D3 def2-TZVP TIGHTSCF CHELPG PMODEL
| 29>
| 30> %scf
| 31> MaxIter 1000
| 32> end
| 33>
| 34> * xyz 0 1
| 35>   C                      -6.714063            5.350536             4.090886
| 36>   O                      -7.999713            4.915713             3.661961
| 37>   H                      -7.853763            4.051714             3.187885
| 38>   H                      -5.999717            4.604636             4.133295
| 39>   H                      -6.266902            6.020050             3.367942
| 40>   H                      -6.759302            5.873254             5.050062
| 41>   C                    : -8.365297            3.245469             7.096217
| 42>   O                    : -9.396077            3.852988             6.217413
| 43>   H                    : -8.908390            4.402823             5.570243
| 44>   H                    : -7.788748            2.473135             6.506338
| 45>   H                    : -7.679448            4.000689             7.503324
| 46>   H                    : -8.870938            2.759224             7.921900
| 47> *
| 48>
| 49> #Run DFT-D3 single point of the particle with dimer basis set
| 50> $new_job
| 51> %base "20-161_DFT_B"
| 52> ! wB97X-D3 def2-TZVP TIGHTSCF CHELPG PMODEL
| 53>
| 54> %scf
| 55> MaxIter 1000
| 56> end
| 57>
| 58> * xyz 0 1
| 59>   C                    : -6.714063            5.350536             4.090886
| 60>   O                    : -7.999713            4.915713             3.661961
| 61>   H                    : -7.853763            4.051714             3.187885
| 62>   H                    : -5.999717            4.604636             4.133295
| 63>   H                    : -6.266902            6.020050             3.367942
| 64>   H                    : -6.759302            5.873254             5.050062
| 65>   C                      -8.365297            3.245469             7.096217
| 66>   O                      -9.396077            3.852988             6.217413
| 67>   H                      -8.908390            4.402823             5.570243
| 68>   H                      -7.788748            2.473135             6.506338
| 69>   H                      -7.679448            4.000689             7.503324
| 70>   H                      -8.870938            2.759224             7.921900
| 71> *
| 72>
| 73>                          ****END OF INPUT****
 Total Charge           Charge          ....    0
 Multiplicity           Mult            ....    1
 Number of Electrons    NEL             ....   36
Dispersion correction           -0.002005532
FINAL SINGLE POINT ENERGY      -231.470874514148
Dispersion correction           -0.000243042
FINAL SINGLE POINT ENERGY      -115.730698492647

CARTESIAN COORDINATES (ANGSTROEM)
---------------------------------
  C     -6.714063    5.350536    4.090886
  O     -7.999713    4.915713    3.661961
  H     -7.853763    4.051714    3.187885
  H     -5.999717    4.604636    4.133295
  H     -6.266902    6.020050    3.367942
  H     -6.759302    5.873254    5.050062
  C     -8.365297    3.245469    7.096217
  O     -9.396077    3.852988    6.217413
  H     -8.908390    4.402823    5.570243
  H     -7.788748    2.473135    6.506338
  H     -7.679448    4.000689    7.503324
  H     -8.870938    2.759224    7.921900

 Multiplicity           Mult            ....    1
 Number of Electrons    NEL             ....   18
 Basis Dimension        Dim             ....  172

ORBITAL ENERGIES
----------------

  NO   OCC          E(Eh)            E(eV)
   0   2.0000     -19.232021      -523.3299
   1   2.0000     -10.322801      -280.8977
   2   2.0000      -1.113236       -30.2927
   3   2.0000      -0.793782       -21.5999
   4   2.0000      -0.593889       -16.1605
   5   2.0000      -0.533926       -14.5289
   6   2.0000      -0.519238       -14.1292
   7   2.0000      -0.440062       -11.9747
   8   2.0000      -0.375144       -10.2082
   9   0.0000       0.067491         1.8365
  10   0.0000       0.139021         3.7830
  11   0.0000       0.141211         3.8425
  12   0.0000       0.155984         4.2445
  13   0.0000       0.188999         5.1429

MULLIKEN ATOMIC CHARGES
-----------------------
   0 C :   -0.002095
   1 O :   -0.001571
   2 H :   -0.000793
   3 H :   -0.000022
   4 H :   -0.000124
   5 H :   -0.000706
   6 C :   -0.184738
   7 O :   -0.479974
   8 H :    0.310986
   9 H :    0.110152
  10 H :    0.115970
  11 H :    0.132915
Sum of atomic charges:    0.0000000

LOEWDIN ATOMIC CHARGES
----------------------
   0 C :   -0.005706
   1 O :   -0.010432
   2 H :   -0.001577
   3 H :   -0.000154
   4 H :   -0.000110
   5 H :   -0.001079
   6 C :   -0.340408
   7 O :   -0.126751
   8 H :    0.177877
   9 H :    0.104100
  10 H :    0.097808
  11 H :    0.106432

  Mayer bond orders larger than 0.1
B(  6-C ,  7-O ) :   0.9859 B(  6-C ,  9-H ) :   0.9724 B(  6-C , 10-H ) :   0.9726
B(  6-C , 11-H ) :   0.9731 B(  7-O ,  8-H ) :   0.9089

Dispersion correction           -0.000268636
FINAL SINGLE POINT ENERGY      -115.733882341802

DIPOLE MOMENT
-------------
                                X             Y             Z
Electronic contribution:     -1.36871       0.67680      -0.91416
Nuclear contribution   :      2.09895      -0.59781       0.91637
                        -----------------------------------------
Total Dipole Moment    :      0.73024       0.07899       0.00221
                        -----------------------------------------
Magnitude (a.u.)       :      0.73451
Magnitude (Debye)      :      1.86696

Rotational constants in cm-1:     4.123438     0.768376     0.744437
Rotational constants in MHz : 123617.562340 23035.322570 22317.660175

                             ****ORCA TERMINATED NORMALLY****
TOTAL RUN TIME: 0 days 0 hours 1 minutes 2 seconds 414 msec
