                         Program Version 4.1.2  - RELEASE  -
|  1> #Run DFT-D3 single point of the dimer
|  2> ! wB97X-D3 def2-TZVP TIGHTSCF CHELPG PMODEL PAL8
|  3>
|  4> %base "8-63_DFT_AB"
|  5>
|  6> %scf
|  7> MaxIter 1000
|  8> end
|  9>
| 10> * xyz 0 1
| 11>   C                      -1.670944            -9.559233            3.799074
| 12>   O                      -0.481268            -9.603435            3.036567
| 13>   H                      -0.736108            -9.305396            2.153526
| 14>   H                      -2.402088            -10.358033           3.567388
| 15>   H                      -1.449708            -9.797974            4.816966
| 16>   H                      -2.153882            -8.556090            3.774826
| 17>   C                      2.190810             -7.622112            3.799736
| 18>   O                      1.867527             -8.642133            4.690213
| 19>   H                      1.165930             -9.131923            4.296527
| 20>   H                      3.167117             -7.125096            4.000440
| 21>   H                      2.210953             -8.016727            2.822094
| 22>   H                      1.421093             -6.800480            3.750480
| 23> *
| 24>
| 25> #Run DFT-D3 single point of the molecule with dimer basis set
| 26> $new_job
| 27> %base "8-63_DFT_A"
| 28> ! wB97X-D3 def2-TZVP TIGHTSCF CHELPG PMODEL
| 29>
| 30> %scf
| 31> MaxIter 1000
| 32> end
| 33>
| 34> * xyz 0 1
| 35>   C                      -1.670944            -9.559233            3.799074
| 36>   O                      -0.481268            -9.603435            3.036567
| 37>   H                      -0.736108            -9.305396            2.153526
| 38>   H                      -2.402088            -10.358033           3.567388
| 39>   H                      -1.449708            -9.797974            4.816966
| 40>   H                      -2.153882            -8.556090            3.774826
| 41>   C                    : 2.190810             -7.622112            3.799736
| 42>   O                    : 1.867527             -8.642133            4.690213
| 43>   H                    : 1.165930             -9.131923            4.296527
| 44>   H                    : 3.167117             -7.125096            4.000440
| 45>   H                    : 2.210953             -8.016727            2.822094
| 46>   H                    : 1.421093             -6.800480            3.750480
| 47> *
| 48>
| 49> #Run DFT-D3 single point of the particle with dimer basis set
| 50> $new_job
| 51> %base "8-63_DFT_B"
| 52> ! wB97X-D3 def2-TZVP TIGHTSCF CHELPG PMODEL
| 53>
| 54> %scf
| 55> MaxIter 1000
| 56> end
| 57>
| 58> * xyz 0 1
| 59>   C                    : -1.670944            -9.559233            3.799074
| 60>   O                    : -0.481268            -9.603435            3.036567
| 61>   H                    : -0.736108            -9.305396            2.153526
| 62>   H                    : -2.402088            -10.358033           3.567388
| 63>   H                    : -1.449708            -9.797974            4.816966
| 64>   H                    : -2.153882            -8.556090            3.774826
| 65>   C                      2.190810             -7.622112            3.799736
| 66>   O                      1.867527             -8.642133            4.690213
| 67>   H                      1.165930             -9.131923            4.296527
| 68>   H                      3.167117             -7.125096            4.000440
| 69>   H                      2.210953             -8.016727            2.822094
| 70>   H                      1.421093             -6.800480            3.750480
| 71> *
| 72>
| 73>                          ****END OF INPUT****
 Total Charge           Charge          ....    0
 Multiplicity           Mult            ....    1
 Number of Electrons    NEL             ....   36
Dispersion correction           -0.001922770
FINAL SINGLE POINT ENERGY      -231.475909552380
Dispersion correction           -0.000248263
FINAL SINGLE POINT ENERGY      -115.735188584153

CARTESIAN COORDINATES (ANGSTROEM)
---------------------------------
  C     -1.670944   -9.559233    3.799074
  O     -0.481268   -9.603435    3.036567
  H     -0.736108   -9.305396    2.153526
  H     -2.402088  -10.358033    3.567388
  H     -1.449708   -9.797974    4.816966
  H     -2.153882   -8.556090    3.774826
  C      2.190810   -7.622112    3.799736
  O      1.867527   -8.642133    4.690213
  H      1.165930   -9.131923    4.296527
  H      3.167117   -7.125096    4.000440
  H      2.210953   -8.016727    2.822094
  H      1.421093   -6.800480    3.750480

 Multiplicity           Mult            ....    1
 Number of Electrons    NEL             ....   18
 Basis Dimension        Dim             ....  172

ORBITAL ENERGIES
----------------

  NO   OCC          E(Eh)            E(eV)
   0   2.0000     -19.230989      -523.3018
   1   2.0000     -10.313358      -280.6407
   2   2.0000      -1.149380       -31.2762
   3   2.0000      -0.795681       -21.6516
   4   2.0000      -0.621391       -16.9089
   5   2.0000      -0.540751       -14.7146
   6   2.0000      -0.532625       -14.4935
   7   2.0000      -0.435940       -11.8625
   8   2.0000      -0.371996       -10.1225
   9   0.0000       0.068863         1.8738
  10   0.0000       0.132303         3.6002
  11   0.0000       0.149918         4.0795
  12   0.0000       0.164911         4.4874
  13   0.0000       0.189766         5.1638

MULLIKEN ATOMIC CHARGES
-----------------------
   0 C :   -0.004377
   1 O :   -0.001429
   2 H :    0.000065
   3 H :   -0.000111
   4 H :   -0.000276
   5 H :    0.000371
   6 C :   -0.168873
   7 O :   -0.457955
   8 H :    0.312657
   9 H :    0.121753
  10 H :    0.107706
  11 H :    0.090469
Sum of atomic charges:   -0.0000000

LOEWDIN ATOMIC CHARGES
----------------------
   0 C :   -0.004342
   1 O :   -0.011442
   2 H :   -0.000560
   3 H :   -0.000089
   4 H :   -0.000897
   5 H :   -0.000082
   6 C :   -0.402495
   7 O :   -0.041729
   8 H :    0.164846
   9 H :    0.112641
  10 H :    0.086978
  11 H :    0.097172

  Mayer bond orders larger than 0.1
B(  6-C ,  7-O ) :   0.9956 B(  6-C ,  9-H ) :   0.9725 B(  6-C , 10-H ) :   0.9882
B(  6-C , 11-H ) :   0.9715 B(  7-O ,  8-H ) :   0.9103

Dispersion correction           -0.000229577
FINAL SINGLE POINT ENERGY      -115.732877246930

DIPOLE MOMENT
-------------
                                X             Y             Z
Electronic contribution:     -0.25192      -1.36673       1.31941
Nuclear contribution   :     -0.05084       1.42360      -1.93196
                        -----------------------------------------
Total Dipole Moment    :     -0.30276       0.05687      -0.61255
                        -----------------------------------------
Magnitude (a.u.)       :      0.68565
Magnitude (Debye)      :      1.74278

Rotational constants in cm-1:     4.377444     0.849782     0.815525
Rotational constants in MHz : 131232.464023 25475.829747 24448.836101

                             ****ORCA TERMINATED NORMALLY****
TOTAL RUN TIME: 0 days 0 hours 0 minutes 46 seconds 948 msec
