                         Program Version 4.1.2  - RELEASE  -
|  1> #Run DFT-D3 single point of the dimer
|  2> ! wB97X-D3 def2-TZVP TIGHTSCF CHELPG PMODEL PAL8
|  3>
|  4> %base "11-34_DFT_AB"
|  5>
|  6> %scf
|  7> MaxIter 1000
|  8> end
|  9>
| 10> * xyz 0 1
| 11>   C                      -4.262804            -3.298811            4.931557
| 12>   O                      -3.864564            -2.942529            6.210114
| 13>   H                      -2.899731            -2.834253            6.123950
| 14>   H                      -4.286093            -4.428996            4.908977
| 15>   H                      -5.227939            -2.841040            4.620827
| 16>   H                      -3.491225            -3.035285            4.130311
| 17>   C                      -0.704495            -0.888094            8.540632
| 18>   O                      -0.622797            -1.770370            9.664507
| 19>   H                      -0.366410            -2.662427            9.339516
| 20>   H                      0.180823             -0.908649            7.909095
| 21>   H                      -1.600900            -1.033869            7.949400
| 22>   H                      -0.783568            0.097204             9.030896
| 23> *
| 24>
| 25> #Run DFT-D3 single point of the molecule with dimer basis set
| 26> $new_job
| 27> %base "11-34_DFT_A"
| 28> ! wB97X-D3 def2-TZVP TIGHTSCF CHELPG PMODEL
| 29>
| 30> %scf
| 31> MaxIter 1000
| 32> end
| 33>
| 34> * xyz 0 1
| 35>   C                      -4.262804            -3.298811            4.931557
| 36>   O                      -3.864564            -2.942529            6.210114
| 37>   H                      -2.899731            -2.834253            6.123950
| 38>   H                      -4.286093            -4.428996            4.908977
| 39>   H                      -5.227939            -2.841040            4.620827
| 40>   H                      -3.491225            -3.035285            4.130311
| 41>   C                    : -0.704495            -0.888094            8.540632
| 42>   O                    : -0.622797            -1.770370            9.664507
| 43>   H                    : -0.366410            -2.662427            9.339516
| 44>   H                    : 0.180823             -0.908649            7.909095
| 45>   H                    : -1.600900            -1.033869            7.949400
| 46>   H                    : -0.783568            0.097204             9.030896
| 47> *
| 48>
| 49> #Run DFT-D3 single point of the particle with dimer basis set
| 50> $new_job
| 51> %base "11-34_DFT_B"
| 52> ! wB97X-D3 def2-TZVP TIGHTSCF CHELPG PMODEL
| 53>
| 54> %scf
| 55> MaxIter 1000
| 56> end
| 57>
| 58> * xyz 0 1
| 59>   C                    : -4.262804            -3.298811            4.931557
| 60>   O                    : -3.864564            -2.942529            6.210114
| 61>   H                    : -2.899731            -2.834253            6.123950
| 62>   H                    : -4.286093            -4.428996            4.908977
| 63>   H                    : -5.227939            -2.841040            4.620827
| 64>   H                    : -3.491225            -3.035285            4.130311
| 65>   C                      -0.704495            -0.888094            8.540632
| 66>   O                      -0.622797            -1.770370            9.664507
| 67>   H                      -0.366410            -2.662427            9.339516
| 68>   H                      0.180823             -0.908649            7.909095
| 69>   H                      -1.600900            -1.033869            7.949400
| 70>   H                      -0.783568            0.097204             9.030896
| 71> *
| 72>
| 73>                          ****END OF INPUT****
 Total Charge           Charge          ....    0
 Multiplicity           Mult            ....    1
 Number of Electrons    NEL             ....   36
Dispersion correction           -0.000948636
FINAL SINGLE POINT ENERGY      -231.465371223357
Dispersion correction           -0.000233823
FINAL SINGLE POINT ENERGY      -115.729970753935

CARTESIAN COORDINATES (ANGSTROEM)
---------------------------------
  C     -4.262804   -3.298811    4.931557
  O     -3.864564   -2.942529    6.210114
  H     -2.899731   -2.834253    6.123950
  H     -4.286093   -4.428996    4.908977
  H     -5.227939   -2.841040    4.620827
  H     -3.491225   -3.035285    4.130311
  C     -0.704495   -0.888094    8.540632
  O     -0.622797   -1.770370    9.664507
  H     -0.366410   -2.662427    9.339516
  H      0.180823   -0.908649    7.909095
  H     -1.600900   -1.033869    7.949400
  H     -0.783568    0.097204    9.030896

 Multiplicity           Mult            ....    1
 Number of Electrons    NEL             ....   18
 Basis Dimension        Dim             ....  172

ORBITAL ENERGIES
----------------

  NO   OCC          E(Eh)            E(eV)
   0   2.0000     -19.231064      -523.3039
   1   2.0000     -10.312145      -280.6077
   2   2.0000      -1.125745       -30.6331
   3   2.0000      -0.793773       -21.5997
   4   2.0000      -0.606310       -16.4985
   5   2.0000      -0.542885       -14.7727
   6   2.0000      -0.516308       -14.0495
   7   2.0000      -0.434563       -11.8251
   8   2.0000      -0.374992       -10.2040
   9   0.0000       0.082583         2.2472
  10   0.0000       0.112939         3.0732
  11   0.0000       0.149179         4.0594
  12   0.0000       0.173769         4.7285
  13   0.0000       0.190936         5.1956

MULLIKEN ATOMIC CHARGES
-----------------------
   0 C :   -0.000096
   1 O :   -0.000030
   2 H :    0.000437
   3 H :    0.000002
   4 H :   -0.000002
   5 H :    0.000004
   6 C :   -0.165405
   7 O :   -0.479201
   8 H :    0.312037
   9 H :    0.106494
  10 H :    0.105589
  11 H :    0.120172
Sum of atomic charges:   -0.0000000

LOEWDIN ATOMIC CHARGES
----------------------
   0 C :   -0.000026
   1 O :   -0.000241
   2 H :   -0.001194
   3 H :   -0.000000
   4 H :   -0.000000
   5 H :   -0.000001
   6 C :   -0.375269
   7 O :   -0.100515
   8 H :    0.177384
   9 H :    0.093667
  10 H :    0.092193
  11 H :    0.114004

  Mayer bond orders larger than 0.1
B(  6-C ,  7-O ) :   0.9996 B(  6-C ,  9-H ) :   0.9738 B(  6-C , 10-H ) :   0.9697
B(  6-C , 11-H ) :   0.9781 B(  7-O ,  8-H ) :   0.8984

Dispersion correction           -0.000251495
FINAL SINGLE POINT ENERGY      -115.735554641244

DIPOLE MOMENT
-------------
                                X             Y             Z
Electronic contribution:      0.08119      -1.05740       1.39082
Nuclear contribution   :      0.05073       0.86358      -2.04316
                        -----------------------------------------
Total Dipole Moment    :      0.13193      -0.19381      -0.65234
                        -----------------------------------------
Magnitude (a.u.)       :      0.69319
Magnitude (Debye)      :      1.76195

Rotational constants in cm-1:     4.229220     0.819233     0.788798
Rotational constants in MHz : 126788.821492 24559.984066 23647.561672

                             ****ORCA TERMINATED NORMALLY****
TOTAL RUN TIME: 0 days 0 hours 1 minutes 12 seconds 386 msec
