                         Program Version 4.1.2  - RELEASE  -
|  1> #Run DFT-D3 single point of the dimer
|  2> ! wB97X-D3 def2-TZVP TIGHTSCF CHELPG PMODEL PAL8
|  3>
|  4> %base "5-198_DFT_AB"
|  5>
|  6> %scf
|  7> MaxIter 1000
|  8> end
|  9>
| 10> * xyz 0 1
| 11>   C                      1.574594             -2.147675            -10.160961
| 12>   O                      2.480961             -1.239558            -9.580505
| 13>   H                      1.907902             -0.652711            -9.047273
| 14>   H                      1.867958             -2.624338            -11.055404
| 15>   H                      1.212482             -2.902957            -9.483861
| 16>   H                      0.750634             -1.476024            -10.482996
| 17>   C                      2.820385             -5.089444            -8.442606
| 18>   O                      2.945172             -3.830375            -7.756937
| 19>   H                      2.962950             -3.070682            -8.399219
| 20>   H                      1.914356             -5.641353            -8.329648
| 21>   H                      3.072038             -5.033986            -9.493354
| 22>   H                      3.628595             -5.784499            -8.061974
| 23> *
| 24>
| 25> #Run DFT-D3 single point of the molecule with dimer basis set
| 26> $new_job
| 27> %base "5-198_DFT_A"
| 28> ! wB97X-D3 def2-TZVP TIGHTSCF CHELPG PMODEL
| 29>
| 30> %scf
| 31> MaxIter 1000
| 32> end
| 33>
| 34> * xyz 0 1
| 35>   C                      1.574594             -2.147675            -10.160961
| 36>   O                      2.480961             -1.239558            -9.580505
| 37>   H                      1.907902             -0.652711            -9.047273
| 38>   H                      1.867958             -2.624338            -11.055404
| 39>   H                      1.212482             -2.902957            -9.483861
| 40>   H                      0.750634             -1.476024            -10.482996
| 41>   C                    : 2.820385             -5.089444            -8.442606
| 42>   O                    : 2.945172             -3.830375            -7.756937
| 43>   H                    : 2.962950             -3.070682            -8.399219
| 44>   H                    : 1.914356             -5.641353            -8.329648
| 45>   H                    : 3.072038             -5.033986            -9.493354
| 46>   H                    : 3.628595             -5.784499            -8.061974
| 47> *
| 48>
| 49> #Run DFT-D3 single point of the particle with dimer basis set
| 50> $new_job
| 51> %base "5-198_DFT_B"
| 52> ! wB97X-D3 def2-TZVP TIGHTSCF CHELPG PMODEL
| 53>
| 54> %scf
| 55> MaxIter 1000
| 56> end
| 57>
| 58> * xyz 0 1
| 59>   C                    : 1.574594             -2.147675            -10.160961
| 60>   O                    : 2.480961             -1.239558            -9.580505
| 61>   H                    : 1.907902             -0.652711            -9.047273
| 62>   H                    : 1.867958             -2.624338            -11.055404
| 63>   H                    : 1.212482             -2.902957            -9.483861
| 64>   H                    : 0.750634             -1.476024            -10.482996
| 65>   C                      2.820385             -5.089444            -8.442606
| 66>   O                      2.945172             -3.830375            -7.756937
| 67>   H                      2.962950             -3.070682            -8.399219
| 68>   H                      1.914356             -5.641353            -8.329648
| 69>   H                      3.072038             -5.033986            -9.493354
| 70>   H                      3.628595             -5.784499            -8.061974
| 71> *
| 72>
| 73>                          ****END OF INPUT****
 Total Charge           Charge          ....    0
 Multiplicity           Mult            ....    1
 Number of Electrons    NEL             ....   36
Dispersion correction           -0.002101393
FINAL SINGLE POINT ENERGY      -231.463830659865
Dispersion correction           -0.000217012
FINAL SINGLE POINT ENERGY      -115.728501507439

CARTESIAN COORDINATES (ANGSTROEM)
---------------------------------
  C      1.574594   -2.147675  -10.160961
  O      2.480961   -1.239558   -9.580505
  H      1.907902   -0.652711   -9.047273
  H      1.867958   -2.624338  -11.055404
  H      1.212482   -2.902957   -9.483861
  H      0.750634   -1.476024  -10.482996
  C      2.820385   -5.089444   -8.442606
  O      2.945172   -3.830375   -7.756937
  H      2.962950   -3.070682   -8.399219
  H      1.914356   -5.641353   -8.329648
  H      3.072038   -5.033986   -9.493354
  H      3.628595   -5.784499   -8.061974

 Multiplicity           Mult            ....    1
 Number of Electrons    NEL             ....   18
 Basis Dimension        Dim             ....  172

ORBITAL ENERGIES
----------------

  NO   OCC          E(Eh)            E(eV)
   0   2.0000     -19.236099      -523.4409
   1   2.0000     -10.315171      -280.6901
   2   2.0000      -1.121726       -30.5237
   3   2.0000      -0.797693       -21.7063
   4   2.0000      -0.607259       -16.5244
   5   2.0000      -0.541261       -14.7285
   6   2.0000      -0.517843       -14.0912
   7   2.0000      -0.429835       -11.6964
   8   2.0000      -0.375514       -10.2183
   9   0.0000       0.070891         1.9290
  10   0.0000       0.135290         3.6814
  11   0.0000       0.145195         3.9510
  12   0.0000       0.170040         4.6270
  13   0.0000       0.180834         4.9207

MULLIKEN ATOMIC CHARGES
-----------------------
   0 C :   -0.009355
   1 O :    0.001264
   2 H :    0.000091
   3 H :    0.000614
   4 H :   -0.004570
   5 H :   -0.000605
   6 C :   -0.187718
   7 O :   -0.478395
   8 H :    0.321309
   9 H :    0.123018
  10 H :    0.116812
  11 H :    0.117536
Sum of atomic charges:   -0.0000000

LOEWDIN ATOMIC CHARGES
----------------------
   0 C :   -0.017238
   1 O :   -0.006915
   2 H :   -0.000734
   3 H :   -0.000555
   4 H :   -0.008971
   5 H :   -0.000217
   6 C :   -0.372445
   7 O :   -0.092938
   8 H :    0.196706
   9 H :    0.093728
  10 H :    0.097010
  11 H :    0.112569

  Mayer bond orders larger than 0.1
B(  6-C ,  7-O ) :   0.9849 B(  6-C ,  9-H ) :   0.9700 B(  6-C , 10-H ) :   0.9788
B(  6-C , 11-H ) :   0.9799 B(  7-O ,  8-H ) :   0.8969

Dispersion correction           -0.000279505
FINAL SINGLE POINT ENERGY      -115.730029563324

DIPOLE MOMENT
-------------
                                X             Y             Z
Electronic contribution:     -0.03056       1.62649       0.99674
Nuclear contribution   :      0.01005      -1.67183      -1.70083
                        -----------------------------------------
Total Dipole Moment    :     -0.02051      -0.04533      -0.70409
                        -----------------------------------------
Magnitude (a.u.)       :      0.70584
Magnitude (Debye)      :      1.79411

Rotational constants in cm-1:     4.414542     0.791219     0.765405
Rotational constants in MHz : 132344.650669 23720.134050 22946.255028

                             ****ORCA TERMINATED NORMALLY****
TOTAL RUN TIME: 0 days 0 hours 1 minutes 2 seconds 836 msec
