                         Program Version 4.1.2  - RELEASE  -
|  1> #Run DFT-D3 single point of the dimer
|  2> ! wB97X-D3 def2-TZVP TIGHTSCF CHELPG PMODEL PAL8
|  3>
|  4> %base "15-38_DFT_AB"
|  5>
|  6> %scf
|  7> MaxIter 1000
|  8> end
|  9>
| 10> * xyz 0 1
| 11>   C                      -6.215711            8.702306             -1.753921
| 12>   O                      -6.204522            7.278721             -1.947713
| 13>   H                      -7.104918            7.064609             -2.073756
| 14>   H                      -5.527617            9.106006             -0.946702
| 15>   H                      -5.940116            9.260479             -2.642426
| 16>   H                      -7.167443            9.114555             -1.494518
| 17>   C                      -9.322901            11.078570            -2.047191
| 18>   O                      -9.225321            9.984224             -2.949248
| 19>   H                      -9.121819            9.197441             -2.412125
| 20>   H                      -9.874648            10.829413            -1.138850
| 21>   H                      -8.353701            11.301344            -1.708211
| 22>   H                      -9.668864            11.916965            -2.614837
| 23> *
| 24>
| 25> #Run DFT-D3 single point of the molecule with dimer basis set
| 26> $new_job
| 27> %base "15-38_DFT_A"
| 28> ! wB97X-D3 def2-TZVP TIGHTSCF CHELPG PMODEL
| 29>
| 30> %scf
| 31> MaxIter 1000
| 32> end
| 33>
| 34> * xyz 0 1
| 35>   C                      -6.215711            8.702306             -1.753921
| 36>   O                      -6.204522            7.278721             -1.947713
| 37>   H                      -7.104918            7.064609             -2.073756
| 38>   H                      -5.527617            9.106006             -0.946702
| 39>   H                      -5.940116            9.260479             -2.642426
| 40>   H                      -7.167443            9.114555             -1.494518
| 41>   C                    : -9.322901            11.078570            -2.047191
| 42>   O                    : -9.225321            9.984224             -2.949248
| 43>   H                    : -9.121819            9.197441             -2.412125
| 44>   H                    : -9.874648            10.829413            -1.138850
| 45>   H                    : -8.353701            11.301344            -1.708211
| 46>   H                    : -9.668864            11.916965            -2.614837
| 47> *
| 48>
| 49> #Run DFT-D3 single point of the particle with dimer basis set
| 50> $new_job
| 51> %base "15-38_DFT_B"
| 52> ! wB97X-D3 def2-TZVP TIGHTSCF CHELPG PMODEL
| 53>
| 54> %scf
| 55> MaxIter 1000
| 56> end
| 57>
| 58> * xyz 0 1
| 59>   C                    : -6.215711            8.702306             -1.753921
| 60>   O                    : -6.204522            7.278721             -1.947713
| 61>   H                    : -7.104918            7.064609             -2.073756
| 62>   H                    : -5.527617            9.106006             -0.946702
| 63>   H                    : -5.940116            9.260479             -2.642426
| 64>   H                    : -7.167443            9.114555             -1.494518
| 65>   C                      -9.322901            11.078570            -2.047191
| 66>   O                      -9.225321            9.984224             -2.949248
| 67>   H                      -9.121819            9.197441             -2.412125
| 68>   H                      -9.874648            10.829413            -1.138850
| 69>   H                      -8.353701            11.301344            -1.708211
| 70>   H                      -9.668864            11.916965            -2.614837
| 71> *
| 72>
| 73>                          ****END OF INPUT****
 Total Charge           Charge          ....    0
 Multiplicity           Mult            ....    1
 Number of Electrons    NEL             ....   36
Dispersion correction           -0.001961616
FINAL SINGLE POINT ENERGY      -231.462635541123
Dispersion correction           -0.000266581
FINAL SINGLE POINT ENERGY      -115.729971555866

CARTESIAN COORDINATES (ANGSTROEM)
---------------------------------
  C     -6.215711    8.702306   -1.753921
  O     -6.204522    7.278721   -1.947713
  H     -7.104918    7.064609   -2.073756
  H     -5.527617    9.106006   -0.946702
  H     -5.940116    9.260479   -2.642426
  H     -7.167443    9.114555   -1.494518
  C     -9.322901   11.078570   -2.047191
  O     -9.225321    9.984224   -2.949248
  H     -9.121819    9.197441   -2.412125
  H     -9.874648   10.829413   -1.138850
  H     -8.353701   11.301344   -1.708211
  H     -9.668864   11.916965   -2.614837

 Multiplicity           Mult            ....    1
 Number of Electrons    NEL             ....   18
 Basis Dimension        Dim             ....  172

ORBITAL ENERGIES
----------------

  NO   OCC          E(Eh)            E(eV)
   0   2.0000     -19.228115      -523.2236
   1   2.0000     -10.305609      -280.4299
   2   2.0000      -1.134515       -30.8717
   3   2.0000      -0.800153       -21.7733
   4   2.0000      -0.614287       -16.7156
   5   2.0000      -0.539018       -14.6674
   6   2.0000      -0.529158       -14.3991
   7   2.0000      -0.443793       -12.0762
   8   2.0000      -0.370251       -10.0751
   9   0.0000       0.077459         2.1078
  10   0.0000       0.136065         3.7025
  11   0.0000       0.143085         3.8935
  12   0.0000       0.176588         4.8052
  13   0.0000       0.200524         5.4565

MULLIKEN ATOMIC CHARGES
-----------------------
   0 C :    0.001651
   1 O :    0.000344
   2 H :   -0.000456
   3 H :   -0.000461
   4 H :   -0.000258
   5 H :   -0.010297
   6 C :   -0.167805
   7 O :   -0.469025
   8 H :    0.311716
   9 H :    0.106146
  10 H :    0.101828
  11 H :    0.126618
Sum of atomic charges:   -0.0000000

LOEWDIN ATOMIC CHARGES
----------------------
   0 C :   -0.007555
   1 O :   -0.000046
   2 H :   -0.000526
   3 H :   -0.000072
   4 H :   -0.001008
   5 H :   -0.007837
   6 C :   -0.366650
   7 O :   -0.072534
   8 H :    0.166503
   9 H :    0.097201
  10 H :    0.086336
  11 H :    0.106188

  Mayer bond orders larger than 0.1
B(  6-C ,  7-O ) :   0.9972 B(  6-C ,  9-H ) :   0.9808 B(  6-C , 10-H ) :   0.9796
B(  6-C , 11-H ) :   0.9772 B(  7-O ,  8-H ) :   0.9034

Dispersion correction           -0.000217156
FINAL SINGLE POINT ENERGY      -115.733396033341

DIPOLE MOMENT
-------------
                                X             Y             Z
Electronic contribution:     -0.00473      -1.20686      -1.23764
Nuclear contribution   :      0.04129       1.16615       1.94155
                        -----------------------------------------
Total Dipole Moment    :      0.03656      -0.04072       0.70391
                        -----------------------------------------
Magnitude (a.u.)       :      0.70604
Magnitude (Debye)      :      1.79460

Rotational constants in cm-1:     4.352845     0.845187     0.800613
Rotational constants in MHz : 130495.011623 25338.070546 24001.778706

                             ****ORCA TERMINATED NORMALLY****
TOTAL RUN TIME: 0 days 0 hours 1 minutes 1 seconds 992 msec
