                         Program Version 4.1.2  - RELEASE  -
|  1> #Run DFT-D3 single point of the dimer
|  2> ! wB97X-D3 def2-TZVP TIGHTSCF CHELPG PMODEL PAL8
|  3>
|  4> %base "22-5_DFT_AB"
|  5>
|  6> %scf
|  7> MaxIter 1000
|  8> end
|  9>
| 10> * xyz 0 1
| 11>   C                      -3.366488            1.354718             8.299496
| 12>   O                      -2.747762            2.580068             8.513952
| 13>   H                      -2.097212            2.607204             7.804503
| 14>   H                      -3.091532            0.606645             9.087924
| 15>   H                      -4.464560            1.385830             8.357553
| 16>   H                      -3.098089            0.935276             7.304372
| 17>   C                      -0.442507            3.972506             6.399599
| 18>   O                      -1.744152            3.536029             6.165556
| 19>   H                      -1.769779            3.077154             5.309589
| 20>   H                      -0.475310            4.765487             7.261476
| 21>   H                      0.355823             3.215275             6.612379
| 22>   H                      -0.008818            4.428014             5.493821
| 23> *
| 24>
| 25> #Run DFT-D3 single point of the molecule with dimer basis set
| 26> $new_job
| 27> %base "22-5_DFT_A"
| 28> ! wB97X-D3 def2-TZVP TIGHTSCF CHELPG PMODEL
| 29>
| 30> %scf
| 31> MaxIter 1000
| 32> end
| 33>
| 34> * xyz 0 1
| 35>   C                      -3.366488            1.354718             8.299496
| 36>   O                      -2.747762            2.580068             8.513952
| 37>   H                      -2.097212            2.607204             7.804503
| 38>   H                      -3.091532            0.606645             9.087924
| 39>   H                      -4.464560            1.385830             8.357553
| 40>   H                      -3.098089            0.935276             7.304372
| 41>   C                    : -0.442507            3.972506             6.399599
| 42>   O                    : -1.744152            3.536029             6.165556
| 43>   H                    : -1.769779            3.077154             5.309589
| 44>   H                    : -0.475310            4.765487             7.261476
| 45>   H                    : 0.355823             3.215275             6.612379
| 46>   H                    : -0.008818            4.428014             5.493821
| 47> *
| 48>
| 49> #Run DFT-D3 single point of the particle with dimer basis set
| 50> $new_job
| 51> %base "22-5_DFT_B"
| 52> ! wB97X-D3 def2-TZVP TIGHTSCF CHELPG PMODEL
| 53>
| 54> %scf
| 55> MaxIter 1000
| 56> end
| 57>
| 58> * xyz 0 1
| 59>   C                    : -3.366488            1.354718             8.299496
| 60>   O                    : -2.747762            2.580068             8.513952
| 61>   H                    : -2.097212            2.607204             7.804503
| 62>   H                    : -3.091532            0.606645             9.087924
| 63>   H                    : -4.464560            1.385830             8.357553
| 64>   H                    : -3.098089            0.935276             7.304372
| 65>   C                      -0.442507            3.972506             6.399599
| 66>   O                      -1.744152            3.536029             6.165556
| 67>   H                      -1.769779            3.077154             5.309589
| 68>   H                      -0.475310            4.765487             7.261476
| 69>   H                      0.355823             3.215275             6.612379
| 70>   H                      -0.008818            4.428014             5.493821
| 71> *
| 72>
| 73>                          ****END OF INPUT****
 Total Charge           Charge          ....    0
 Multiplicity           Mult            ....    1
 Number of Electrons    NEL             ....   36
Dispersion correction           -0.001850652
FINAL SINGLE POINT ENERGY      -231.466761407035
Dispersion correction           -0.000239875
FINAL SINGLE POINT ENERGY      -115.733063002519

CARTESIAN COORDINATES (ANGSTROEM)
---------------------------------
  C     -3.366488    1.354718    8.299496
  O     -2.747762    2.580068    8.513952
  H     -2.097212    2.607204    7.804503
  H     -3.091532    0.606645    9.087924
  H     -4.464560    1.385830    8.357553
  H     -3.098089    0.935276    7.304372
  C     -0.442507    3.972506    6.399599
  O     -1.744152    3.536029    6.165556
  H     -1.769779    3.077154    5.309589
  H     -0.475310    4.765487    7.261476
  H      0.355823    3.215275    6.612379
  H     -0.008818    4.428014    5.493821

 Multiplicity           Mult            ....    1
 Number of Electrons    NEL             ....   18
 Basis Dimension        Dim             ....  172

ORBITAL ENERGIES
----------------

  NO   OCC          E(Eh)            E(eV)
   0   2.0000     -19.237201      -523.4709
   1   2.0000     -10.323858      -280.9265
   2   2.0000      -1.144185       -31.1349
   3   2.0000      -0.787501       -21.4290
   4   2.0000      -0.622278       -16.9331
   5   2.0000      -0.531331       -14.4583
   6   2.0000      -0.523546       -14.2464
   7   2.0000      -0.434782       -11.8310
   8   2.0000      -0.371374       -10.1056
   9   0.0000       0.097262         2.6466
  10   0.0000       0.123167         3.3515
  11   0.0000       0.145823         3.9680
  12   0.0000       0.183986         5.0065
  13   0.0000       0.198062         5.3895

MULLIKEN ATOMIC CHARGES
-----------------------
   0 C :    0.001754
   1 O :    0.003116
   2 H :   -0.004225
   3 H :   -0.000377
   4 H :   -0.000326
   5 H :   -0.005062
   6 C :   -0.172733
   7 O :   -0.462808
   8 H :    0.317534
   9 H :    0.119809
  10 H :    0.099516
  11 H :    0.103801
Sum of atomic charges:   -0.0000000

LOEWDIN ATOMIC CHARGES
----------------------
   0 C :   -0.005105
   1 O :   -0.009010
   2 H :   -0.039971
   3 H :   -0.000072
   4 H :   -0.000074
   5 H :   -0.002224
   6 C :   -0.417065
   7 O :   -0.019731
   8 H :    0.178937
   9 H :    0.124064
  10 H :    0.095372
  11 H :    0.094880

  Mayer bond orders larger than 0.1
B(  6-C ,  7-O ) :   0.9917 B(  6-C ,  9-H ) :   0.9745 B(  6-C , 10-H ) :   0.9627
B(  6-C , 11-H ) :   0.9767 B(  7-O ,  8-H ) :   0.8923

Dispersion correction           -0.000259296
FINAL SINGLE POINT ENERGY      -115.730127179065

DIPOLE MOMENT
-------------
                                X             Y             Z
Electronic contribution:     -1.85710      -0.59912      -0.17478
Nuclear contribution   :      2.32439       0.48341      -0.31820
                        -----------------------------------------
Total Dipole Moment    :      0.46729      -0.11571      -0.49298
                        -----------------------------------------
Magnitude (a.u.)       :      0.68904
Magnitude (Debye)      :      1.75141

Rotational constants in cm-1:     4.143414     0.843800     0.797016
Rotational constants in MHz : 124216.425514 25296.486404 23893.931514

                             ****ORCA TERMINATED NORMALLY****
TOTAL RUN TIME: 0 days 0 hours 1 minutes 3 seconds 830 msec
