                         Program Version 4.1.2  - RELEASE  -
|  1> #Run DFT-D3 single point of the dimer
|  2> ! wB97X-D3 def2-TZVP TIGHTSCF CHELPG PMODEL PAL8
|  3>
|  4> %base "10-29_DFT_AB"
|  5>
|  6> %scf
|  7> MaxIter 1000
|  8> end
|  9>
| 10> * xyz 0 1
| 11>   C                      -0.107336            -6.761295            -6.715591
| 12>   O                      -0.840736            -7.925506            -6.762882
| 13>   H                      -0.625648            -8.537022            -6.098598
| 14>   H                      0.918834             -6.900276            -6.443235
| 15>   H                      -0.136207            -6.196261            -7.628469
| 16>   H                      -0.460480            -6.062073            -5.931819
| 17>   C                      1.237218             -10.571253           -4.731252
| 18>   O                      2.090663             -11.620678           -4.301068
| 19>   H                      1.684505             -12.049990           -3.539937
| 20>   H                      1.738121             -9.896252            -5.432714
| 21>   H                      0.298399             -10.936982           -5.241484
| 22>   H                      0.890046             -9.963813            -3.901905
| 23> *
| 24>
| 25> #Run DFT-D3 single point of the molecule with dimer basis set
| 26> $new_job
| 27> %base "10-29_DFT_A"
| 28> ! wB97X-D3 def2-TZVP TIGHTSCF CHELPG PMODEL
| 29>
| 30> %scf
| 31> MaxIter 1000
| 32> end
| 33>
| 34> * xyz 0 1
| 35>   C                      -0.107336            -6.761295            -6.715591
| 36>   O                      -0.840736            -7.925506            -6.762882
| 37>   H                      -0.625648            -8.537022            -6.098598
| 38>   H                      0.918834             -6.900276            -6.443235
| 39>   H                      -0.136207            -6.196261            -7.628469
| 40>   H                      -0.460480            -6.062073            -5.931819
| 41>   C                    : 1.237218             -10.571253           -4.731252
| 42>   O                    : 2.090663             -11.620678           -4.301068
| 43>   H                    : 1.684505             -12.049990           -3.539937
| 44>   H                    : 1.738121             -9.896252            -5.432714
| 45>   H                    : 0.298399             -10.936982           -5.241484
| 46>   H                    : 0.890046             -9.963813            -3.901905
| 47> *
| 48>
| 49> #Run DFT-D3 single point of the particle with dimer basis set
| 50> $new_job
| 51> %base "10-29_DFT_B"
| 52> ! wB97X-D3 def2-TZVP TIGHTSCF CHELPG PMODEL
| 53>
| 54> %scf
| 55> MaxIter 1000
| 56> end
| 57>
| 58> * xyz 0 1
| 59>   C                    : -0.107336            -6.761295            -6.715591
| 60>   O                    : -0.840736            -7.925506            -6.762882
| 61>   H                    : -0.625648            -8.537022            -6.098598
| 62>   H                    : 0.918834             -6.900276            -6.443235
| 63>   H                    : -0.136207            -6.196261            -7.628469
| 64>   H                    : -0.460480            -6.062073            -5.931819
| 65>   C                      1.237218             -10.571253           -4.731252
| 66>   O                      2.090663             -11.620678           -4.301068
| 67>   H                      1.684505             -12.049990           -3.539937
| 68>   H                      1.738121             -9.896252            -5.432714
| 69>   H                      0.298399             -10.936982           -5.241484
| 70>   H                      0.890046             -9.963813            -3.901905
| 71> *
| 72>
| 73>                          ****END OF INPUT****
 Total Charge           Charge          ....    0
 Multiplicity           Mult            ....    1
 Number of Electrons    NEL             ....   36
Dispersion correction           -0.001445876
FINAL SINGLE POINT ENERGY      -231.468824857230
Dispersion correction           -0.000241885
FINAL SINGLE POINT ENERGY      -115.732807367806

CARTESIAN COORDINATES (ANGSTROEM)
---------------------------------
  C     -0.107336   -6.761295   -6.715591
  O     -0.840736   -7.925506   -6.762882
  H     -0.625648   -8.537022   -6.098598
  H      0.918834   -6.900276   -6.443235
  H     -0.136207   -6.196261   -7.628469
  H     -0.460480   -6.062073   -5.931819
  C      1.237218  -10.571253   -4.731252
  O      2.090663  -11.620678   -4.301068
  H      1.684505  -12.049990   -3.539937
  H      1.738121   -9.896252   -5.432714
  H      0.298399  -10.936982   -5.241484
  H      0.890046   -9.963813   -3.901905

 Multiplicity           Mult            ....    1
 Number of Electrons    NEL             ....   18
 Basis Dimension        Dim             ....  172

ORBITAL ENERGIES
----------------

  NO   OCC          E(Eh)            E(eV)
   0   2.0000     -19.232444      -523.3414
   1   2.0000     -10.316872      -280.7364
   2   2.0000      -1.134509       -30.8716
   3   2.0000      -0.794652       -21.6236
   4   2.0000      -0.611649       -16.6438
   5   2.0000      -0.533708       -14.5229
   6   2.0000      -0.529281       -14.4025
   7   2.0000      -0.435296       -11.8450
   8   2.0000      -0.373278       -10.1574
   9   0.0000       0.082015         2.2317
  10   0.0000       0.115381         3.1397
  11   0.0000       0.141552         3.8518
  12   0.0000       0.174474         4.7477
  13   0.0000       0.191203         5.2029

MULLIKEN ATOMIC CHARGES
-----------------------
   0 C :   -0.000144
   1 O :   -0.000000
   2 H :    0.000094
   3 H :   -0.000277
   4 H :   -0.000002
   5 H :   -0.000007
   6 C :   -0.171797
   7 O :   -0.473128
   8 H :    0.316457
   9 H :    0.126683
  10 H :    0.095304
  11 H :    0.106818
Sum of atomic charges:   -0.0000000

LOEWDIN ATOMIC CHARGES
----------------------
   0 C :   -0.000402
   1 O :   -0.000146
   2 H :   -0.002381
   3 H :   -0.000336
   4 H :   -0.000004
   5 H :   -0.000004
   6 C :   -0.388267
   7 O :   -0.080941
   8 H :    0.171462
   9 H :    0.108883
  10 H :    0.099276
  11 H :    0.092860

  Mayer bond orders larger than 0.1
B(  6-C ,  7-O ) :   1.0053 B(  6-C ,  9-H ) :   0.9721 B(  6-C , 10-H ) :   0.9712
B(  6-C , 11-H ) :   0.9778 B(  7-O ,  8-H ) :   0.8976

Dispersion correction           -0.000254987
FINAL SINGLE POINT ENERGY      -115.735675262338

DIPOLE MOMENT
-------------
                                X             Y             Z
Electronic contribution:      1.28485      -1.33629       0.46877
Nuclear contribution   :     -1.86973       1.49795      -0.13981
                        -----------------------------------------
Total Dipole Moment    :     -0.58487       0.16165       0.32897
                        -----------------------------------------
Magnitude (a.u.)       :      0.69024
Magnitude (Debye)      :      1.75444

Rotational constants in cm-1:     4.312742     0.817094     0.787912
Rotational constants in MHz : 129292.737916 24495.859909 23620.998965

                             ****ORCA TERMINATED NORMALLY****
TOTAL RUN TIME: 0 days 0 hours 1 minutes 4 seconds 746 msec
