                         Program Version 4.1.2  - RELEASE  -
|  1> #Run DFT-D3 single point of the dimer
|  2> ! wB97X-D3 def2-TZVP TIGHTSCF CHELPG PMODEL PAL8
|  3>
|  4> %base "7-14_DFT_AB"
|  5>
|  6> %scf
|  7> MaxIter 1000
|  8> end
|  9>
| 10> * xyz 0 1
| 11>   C                      -1.043704            -4.234054            3.067058
| 12>   O                      -0.967894            -4.898226            4.364749
| 13>   H                      -1.811567            -5.220936            4.592340
| 14>   H                      -1.580061            -3.307889            3.073810
| 15>   H                      -0.006759            -3.989458            2.723288
| 16>   H                      -1.542091            -4.895781            2.312860
| 17>   C                      0.666390             -0.715815            -0.420100
| 18>   O                      1.567490             0.321839             -0.143165
| 19>   H                      1.326093             1.086254             -0.696441
| 20>   H                      -0.316124            -0.427597            -0.014911
| 21>   H                      0.543968             -0.926248            -1.464179
| 22>   H                      1.024687             -1.624058            0.019191
| 23> *
| 24>
| 25> #Run DFT-D3 single point of the molecule with dimer basis set
| 26> $new_job
| 27> %base "7-14_DFT_A"
| 28> ! wB97X-D3 def2-TZVP TIGHTSCF CHELPG PMODEL
| 29>
| 30> %scf
| 31> MaxIter 1000
| 32> end
| 33>
| 34> * xyz 0 1
| 35>   C                      -1.043704            -4.234054            3.067058
| 36>   O                      -0.967894            -4.898226            4.364749
| 37>   H                      -1.811567            -5.220936            4.592340
| 38>   H                      -1.580061            -3.307889            3.073810
| 39>   H                      -0.006759            -3.989458            2.723288
| 40>   H                      -1.542091            -4.895781            2.312860
| 41>   C                    : 0.666390             -0.715815            -0.420100
| 42>   O                    : 1.567490             0.321839             -0.143165
| 43>   H                    : 1.326093             1.086254             -0.696441
| 44>   H                    : -0.316124            -0.427597            -0.014911
| 45>   H                    : 0.543968             -0.926248            -1.464179
| 46>   H                    : 1.024687             -1.624058            0.019191
| 47> *
| 48>
| 49> #Run DFT-D3 single point of the particle with dimer basis set
| 50> $new_job
| 51> %base "7-14_DFT_B"
| 52> ! wB97X-D3 def2-TZVP TIGHTSCF CHELPG PMODEL
| 53>
| 54> %scf
| 55> MaxIter 1000
| 56> end
| 57>
| 58> * xyz 0 1
| 59>   C                    : -1.043704            -4.234054            3.067058
| 60>   O                    : -0.967894            -4.898226            4.364749
| 61>   H                    : -1.811567            -5.220936            4.592340
| 62>   H                    : -1.580061            -3.307889            3.073810
| 63>   H                    : -0.006759            -3.989458            2.723288
| 64>   H                    : -1.542091            -4.895781            2.312860
| 65>   C                      0.666390             -0.715815            -0.420100
| 66>   O                      1.567490             0.321839             -0.143165
| 67>   H                      1.326093             1.086254             -0.696441
| 68>   H                      -0.316124            -0.427597            -0.014911
| 69>   H                      0.543968             -0.926248            -1.464179
| 70>   H                      1.024687             -1.624058            0.019191
| 71> *
| 72>
| 73>                          ****END OF INPUT****
 Total Charge           Charge          ....    0
 Multiplicity           Mult            ....    1
 Number of Electrons    NEL             ....   36
Dispersion correction           -0.000721035
FINAL SINGLE POINT ENERGY      -231.468922261722
Dispersion correction           -0.000268682
FINAL SINGLE POINT ENERGY      -115.733390013047

CARTESIAN COORDINATES (ANGSTROEM)
---------------------------------
  C     -1.043704   -4.234054    3.067058
  O     -0.967894   -4.898226    4.364749
  H     -1.811567   -5.220936    4.592340
  H     -1.580061   -3.307889    3.073810
  H     -0.006759   -3.989458    2.723288
  H     -1.542091   -4.895781    2.312860
  C      0.666390   -0.715815   -0.420100
  O      1.567490    0.321839   -0.143165
  H      1.326093    1.086254   -0.696441
  H     -0.316124   -0.427597   -0.014911
  H      0.543968   -0.926248   -1.464179
  H      1.024687   -1.624058    0.019191

 Multiplicity           Mult            ....    1
 Number of Electrons    NEL             ....   18
 Basis Dimension        Dim             ....  172

ORBITAL ENERGIES
----------------

  NO   OCC          E(Eh)            E(eV)
   0   2.0000     -19.229358      -523.2574
   1   2.0000     -10.307176      -280.4725
   2   2.0000      -1.136409       -30.9233
   3   2.0000      -0.796178       -21.6651
   4   2.0000      -0.611913       -16.6510
   5   2.0000      -0.546550       -14.8724
   6   2.0000      -0.527309       -14.3488
   7   2.0000      -0.434168       -11.8143
   8   2.0000      -0.371034       -10.0964
   9   0.0000       0.085298         2.3211
  10   0.0000       0.114555         3.1172
  11   0.0000       0.143437         3.9031
  12   0.0000       0.175987         4.7889
  13   0.0000       0.188550         5.1307

MULLIKEN ATOMIC CHARGES
-----------------------
   0 C :    0.000078
   1 O :   -0.000001
   2 H :   -0.000000
   3 H :   -0.000063
   4 H :   -0.000131
   5 H :   -0.000010
   6 C :   -0.148427
   7 O :   -0.476031
   8 H :    0.314799
   9 H :    0.093372
  10 H :    0.100016
  11 H :    0.116398
Sum of atomic charges:    0.0000000

LOEWDIN ATOMIC CHARGES
----------------------
   0 C :   -0.000078
   1 O :   -0.000001
   2 H :   -0.000000
   3 H :   -0.000029
   4 H :   -0.000107
   5 H :   -0.000002
   6 C :   -0.389589
   7 O :   -0.076453
   8 H :    0.177569
   9 H :    0.095853
  10 H :    0.089037
  11 H :    0.103802

  Mayer bond orders larger than 0.1
B(  6-C ,  7-O ) :   1.0002 B(  6-C ,  9-H ) :   0.9837 B(  6-C , 10-H ) :   0.9743
B(  6-C , 11-H ) :   0.9739 B(  7-O ,  8-H ) :   0.8972

Dispersion correction           -0.000225229
FINAL SINGLE POINT ENERGY      -115.735440004949

DIPOLE MOMENT
-------------
                                X             Y             Z
Electronic contribution:      1.26083       1.20066       0.43467
Nuclear contribution   :     -1.75304      -1.14026      -0.90697
                        -----------------------------------------
Total Dipole Moment    :     -0.49221       0.06040      -0.47230
                        -----------------------------------------
Magnitude (a.u.)       :      0.68483
Magnitude (Debye)      :      1.74069

Rotational constants in cm-1:     4.336111     0.846450     0.816211
Rotational constants in MHz : 129993.351827 25375.925332 24469.389771

                             ****ORCA TERMINATED NORMALLY****
TOTAL RUN TIME: 0 days 0 hours 0 minutes 56 seconds 10 msec
