                         Program Version 4.1.2  - RELEASE  -
|  1> #Run DFT-D3 single point of the dimer
|  2> ! wB97X-D3 def2-TZVP TIGHTSCF CHELPG PMODEL PAL8
|  3>
|  4> %base "13-130_DFT_AB"
|  5>
|  6> %scf
|  7> MaxIter 1000
|  8> end
|  9>
| 10> * xyz 0 1
| 11>   C                      7.004929             -6.565444            -6.108691
| 12>   O                      7.311226             -7.663960            -6.960760
| 13>   H                      6.495099             -8.068097            -7.257927
| 14>   H                      6.292944             -6.947194            -5.276311
| 15>   H                      7.848356             -6.265472            -5.567084
| 16>   H                      6.616340             -5.781074            -6.738117
| 17>   C                      10.358867            -8.606354            -6.846104
| 18>   O                      11.576055            -8.894586            -7.509035
| 19>   H                      11.968368            -9.530511            -6.920522
| 20>   H                      9.532958             -9.139037            -7.337551
| 21>   H                      10.343493            -8.936751            -5.868615
| 22>   H                      10.048792            -7.582106            -6.767305
| 23> *
| 24>
| 25> #Run DFT-D3 single point of the molecule with dimer basis set
| 26> $new_job
| 27> %base "13-130_DFT_A"
| 28> ! wB97X-D3 def2-TZVP TIGHTSCF CHELPG PMODEL
| 29>
| 30> %scf
| 31> MaxIter 1000
| 32> end
| 33>
| 34> * xyz 0 1
| 35>   C                      7.004929             -6.565444            -6.108691
| 36>   O                      7.311226             -7.663960            -6.960760
| 37>   H                      6.495099             -8.068097            -7.257927
| 38>   H                      6.292944             -6.947194            -5.276311
| 39>   H                      7.848356             -6.265472            -5.567084
| 40>   H                      6.616340             -5.781074            -6.738117
| 41>   C                    : 10.358867            -8.606354            -6.846104
| 42>   O                    : 11.576055            -8.894586            -7.509035
| 43>   H                    : 11.968368            -9.530511            -6.920522
| 44>   H                    : 9.532958             -9.139037            -7.337551
| 45>   H                    : 10.343493            -8.936751            -5.868615
| 46>   H                    : 10.048792            -7.582106            -6.767305
| 47> *
| 48>
| 49> #Run DFT-D3 single point of the particle with dimer basis set
| 50> $new_job
| 51> %base "13-130_DFT_B"
| 52> ! wB97X-D3 def2-TZVP TIGHTSCF CHELPG PMODEL
| 53>
| 54> %scf
| 55> MaxIter 1000
| 56> end
| 57>
| 58> * xyz 0 1
| 59>   C                    : 7.004929             -6.565444            -6.108691
| 60>   O                    : 7.311226             -7.663960            -6.960760
| 61>   H                    : 6.495099             -8.068097            -7.257927
| 62>   H                    : 6.292944             -6.947194            -5.276311
| 63>   H                    : 7.848356             -6.265472            -5.567084
| 64>   H                    : 6.616340             -5.781074            -6.738117
| 65>   C                      10.358867            -8.606354            -6.846104
| 66>   O                      11.576055            -8.894586            -7.509035
| 67>   H                      11.968368            -9.530511            -6.920522
| 68>   H                      9.532958             -9.139037            -7.337551
| 69>   H                      10.343493            -8.936751            -5.868615
| 70>   H                      10.048792            -7.582106            -6.767305
| 71> *
| 72>
| 73>                          ****END OF INPUT****
 Total Charge           Charge          ....    0
 Multiplicity           Mult            ....    1
 Number of Electrons    NEL             ....   36
Dispersion correction           -0.001740451
FINAL SINGLE POINT ENERGY      -231.460569869977
Dispersion correction           -0.000231200
FINAL SINGLE POINT ENERGY      -115.730730449288

CARTESIAN COORDINATES (ANGSTROEM)
---------------------------------
  C      7.004929   -6.565444   -6.108691
  O      7.311226   -7.663960   -6.960760
  H      6.495099   -8.068097   -7.257927
  H      6.292944   -6.947194   -5.276311
  H      7.848356   -6.265472   -5.567084
  H      6.616340   -5.781074   -6.738117
  C     10.358867   -8.606354   -6.846104
  O     11.576055   -8.894586   -7.509035
  H     11.968368   -9.530511   -6.920522
  H      9.532958   -9.139037   -7.337551
  H     10.343493   -8.936751   -5.868615
  H     10.048792   -7.582106   -6.767305

 Multiplicity           Mult            ....    1
 Number of Electrons    NEL             ....   18
 Basis Dimension        Dim             ....  172

ORBITAL ENERGIES
----------------

  NO   OCC          E(Eh)            E(eV)
   0   2.0000     -19.232997      -523.3565
   1   2.0000     -10.304237      -280.3925
   2   2.0000      -1.142673       -31.0937
   3   2.0000      -0.802482       -21.8366
   4   2.0000      -0.617822       -16.8118
   5   2.0000      -0.539944       -14.6926
   6   2.0000      -0.530404       -14.4330
   7   2.0000      -0.443271       -12.0620
   8   2.0000      -0.374927       -10.2023
   9   0.0000       0.081571         2.2196
  10   0.0000       0.115742         3.1495
  11   0.0000       0.154929         4.2158
  12   0.0000       0.159512         4.3405
  13   0.0000       0.187840         5.1114

MULLIKEN ATOMIC CHARGES
-----------------------
   0 C :    0.001019
   1 O :   -0.000394
   2 H :   -0.000315
   3 H :   -0.000058
   4 H :   -0.000946
   5 H :   -0.000030
   6 C :   -0.180482
   7 O :   -0.458082
   8 H :    0.314702
   9 H :    0.098737
  10 H :    0.109683
  11 H :    0.116167
Sum of atomic charges:   -0.0000000

LOEWDIN ATOMIC CHARGES
----------------------
   0 C :   -0.002297
   1 O :   -0.005279
   2 H :   -0.000495
   3 H :   -0.000017
   4 H :   -0.001039
   5 H :   -0.000028
   6 C :   -0.380226
   7 O :   -0.068301
   8 H :    0.169083
   9 H :    0.101846
  10 H :    0.084935
  11 H :    0.101820

  Mayer bond orders larger than 0.1
B(  6-C ,  7-O ) :   1.0137 B(  6-C ,  9-H ) :   0.9792 B(  6-C , 10-H ) :   0.9875
B(  6-C , 11-H ) :   0.9726 B(  7-O ,  8-H ) :   0.9055

Dispersion correction           -0.000233014
FINAL SINGLE POINT ENERGY      -115.728560635817

DIPOLE MOMENT
-------------
                                X             Y             Z
Electronic contribution:      1.67653      -0.20664      -0.96710
Nuclear contribution   :     -1.89621      -0.08744       1.63925
                        -----------------------------------------
Total Dipole Moment    :     -0.21967      -0.29408       0.67215
                        -----------------------------------------
Magnitude (a.u.)       :      0.76585
Magnitude (Debye)      :      1.94664

Rotational constants in cm-1:     4.577093     0.828978     0.803878
Rotational constants in MHz : 137217.782786 24852.132635 24099.658245

                             ****ORCA TERMINATED NORMALLY****
TOTAL RUN TIME: 0 days 0 hours 1 minutes 10 seconds 405 msec
