                         Program Version 4.1.2  - RELEASE  -
|  1> #Run DFT-D3 single point of the dimer
|  2> ! wB97X-D3 def2-TZVP TIGHTSCF CHELPG PMODEL PAL8
|  3>
|  4> %base "3-90_DFT_AB"
|  5>
|  6> %scf
|  7> MaxIter 1000
|  8> end
|  9>
| 10> * xyz 0 1
| 11>   C                      -1.179622            -0.680025            6.462159
| 12>   O                      -1.994517            0.038928             7.405688
| 13>   H                      -2.109912            0.907878             7.079844
| 14>   H                      -0.109920            -0.503745            6.727623
| 15>   H                      -1.354234            -1.756892            6.522703
| 16>   H                      -1.366128            -0.313220            5.402350
| 17>   C                      -3.793228            -4.202428            2.979885
| 18>   O                      -4.018158            -5.070857            3.988264
| 19>   H                      -3.209113            -5.219717            4.488449
| 20>   H                      -2.788678            -4.366081            2.579981
| 21>   H                      -4.532226            -4.362344            2.202654
| 22>   H                      -4.057831            -3.191287            3.382079
| 23> *
| 24>
| 25> #Run DFT-D3 single point of the molecule with dimer basis set
| 26> $new_job
| 27> %base "3-90_DFT_A"
| 28> ! wB97X-D3 def2-TZVP TIGHTSCF CHELPG PMODEL
| 29>
| 30> %scf
| 31> MaxIter 1000
| 32> end
| 33>
| 34> * xyz 0 1
| 35>   C                      -1.179622            -0.680025            6.462159
| 36>   O                      -1.994517            0.038928             7.405688
| 37>   H                      -2.109912            0.907878             7.079844
| 38>   H                      -0.109920            -0.503745            6.727623
| 39>   H                      -1.354234            -1.756892            6.522703
| 40>   H                      -1.366128            -0.313220            5.402350
| 41>   C                    : -3.793228            -4.202428            2.979885
| 42>   O                    : -4.018158            -5.070857            3.988264
| 43>   H                    : -3.209113            -5.219717            4.488449
| 44>   H                    : -2.788678            -4.366081            2.579981
| 45>   H                    : -4.532226            -4.362344            2.202654
| 46>   H                    : -4.057831            -3.191287            3.382079
| 47> *
| 48>
| 49> #Run DFT-D3 single point of the particle with dimer basis set
| 50> $new_job
| 51> %base "3-90_DFT_B"
| 52> ! wB97X-D3 def2-TZVP TIGHTSCF CHELPG PMODEL
| 53>
| 54> %scf
| 55> MaxIter 1000
| 56> end
| 57>
| 58> * xyz 0 1
| 59>   C                    : -1.179622            -0.680025            6.462159
| 60>   O                    : -1.994517            0.038928             7.405688
| 61>   H                    : -2.109912            0.907878             7.079844
| 62>   H                    : -0.109920            -0.503745            6.727623
| 63>   H                    : -1.354234            -1.756892            6.522703
| 64>   H                    : -1.366128            -0.313220            5.402350
| 65>   C                      -3.793228            -4.202428            2.979885
| 66>   O                      -4.018158            -5.070857            3.988264
| 67>   H                      -3.209113            -5.219717            4.488449
| 68>   H                      -2.788678            -4.366081            2.579981
| 69>   H                      -4.532226            -4.362344            2.202654
| 70>   H                      -4.057831            -3.191287            3.382079
| 71> *
| 72>
| 73>                          ****END OF INPUT****
 Total Charge           Charge          ....    0
 Multiplicity           Mult            ....    1
 Number of Electrons    NEL             ....   36
Dispersion correction           -0.000639970
FINAL SINGLE POINT ENERGY      -231.462591164448
Dispersion correction           -0.000253585
FINAL SINGLE POINT ENERGY      -115.733812205477

CARTESIAN COORDINATES (ANGSTROEM)
---------------------------------
  C     -1.179622   -0.680025    6.462159
  O     -1.994517    0.038928    7.405688
  H     -2.109912    0.907878    7.079844
  H     -0.109920   -0.503745    6.727623
  H     -1.354234   -1.756892    6.522703
  H     -1.366128   -0.313220    5.402350
  C     -3.793228   -4.202428    2.979885
  O     -4.018158   -5.070857    3.988264
  H     -3.209113   -5.219717    4.488449
  H     -2.788678   -4.366081    2.579981
  H     -4.532226   -4.362344    2.202654
  H     -4.057831   -3.191287    3.382079

 Multiplicity           Mult            ....    1
 Number of Electrons    NEL             ....   18
 Basis Dimension        Dim             ....  172

ORBITAL ENERGIES
----------------

  NO   OCC          E(Eh)            E(eV)
   0   2.0000     -19.224319      -523.1203
   1   2.0000     -10.308272      -280.5023
   2   2.0000      -1.154588       -31.4179
   3   2.0000      -0.791299       -21.5323
   4   2.0000      -0.617022       -16.7900
   5   2.0000      -0.553255       -15.0548
   6   2.0000      -0.538373       -14.6499
   7   2.0000      -0.423470       -11.5232
   8   2.0000      -0.363899        -9.9022
   9   0.0000       0.082459         2.2438
  10   0.0000       0.112064         3.0494
  11   0.0000       0.158270         4.3067
  12   0.0000       0.164126         4.4661
  13   0.0000       0.189780         5.1642

MULLIKEN ATOMIC CHARGES
-----------------------
   0 C :   -0.000073
   1 O :    0.000002
   2 H :   -0.000000
   3 H :    0.000001
   4 H :    0.000029
   5 H :   -0.000045
   6 C :   -0.144166
   7 O :   -0.464959
   8 H :    0.317597
   9 H :    0.095373
  10 H :    0.107872
  11 H :    0.088368
Sum of atomic charges:   -0.0000000

LOEWDIN ATOMIC CHARGES
----------------------
   0 C :   -0.000041
   1 O :   -0.000001
   2 H :   -0.000000
   3 H :   -0.000000
   4 H :   -0.000024
   5 H :   -0.000033
   6 C :   -0.434747
   7 O :   -0.036737
   8 H :    0.174328
   9 H :    0.095521
  10 H :    0.102948
  11 H :    0.098786

  Mayer bond orders larger than 0.1
B(  6-C ,  7-O ) :   1.0089 B(  6-C ,  9-H ) :   0.9867 B(  6-C , 10-H ) :   0.9726
B(  6-C , 11-H ) :   0.9831 B(  7-O ,  8-H ) :   0.8960

Dispersion correction           -0.000209970
FINAL SINGLE POINT ENERGY      -115.728798421085

DIPOLE MOMENT
-------------
                                X             Y             Z
Electronic contribution:     -0.30220      -1.16844       1.22505
Nuclear contribution   :      0.89935       1.35056      -1.28069
                        -----------------------------------------
Total Dipole Moment    :      0.59715       0.18212      -0.05565
                        -----------------------------------------
Magnitude (a.u.)       :      0.62678
Magnitude (Debye)      :      1.59315

Rotational constants in cm-1:     4.184583     0.905316     0.871534
Rotational constants in MHz : 125450.655202 27140.682719 26127.938968

                             ****ORCA TERMINATED NORMALLY****
TOTAL RUN TIME: 0 days 0 hours 6 minutes 15 seconds 363 msec
