                         Program Version 4.1.2  - RELEASE  -
|  1> #Run DFT-D3 single point of the dimer
|  2> ! wB97X-D3 def2-TZVP TIGHTSCF CHELPG PMODEL PAL8
|  3>
|  4> %base "6-54_DFT_AB"
|  5>
|  6> %scf
|  7> MaxIter 1000
|  8> end
|  9>
| 10> * xyz 0 1
| 11>   C                      0.196325             -0.976893            10.050342
| 12>   O                      1.433650             -0.253384            9.974844
| 13>   H                      1.432420             0.446621             10.619602
| 14>   H                      -0.611933            -0.325739            10.403889
| 15>   H                      -0.103297            -1.288178            8.974143
| 16>   H                      0.344229             -1.799503            10.711079
| 17>   C                      -1.907930            -3.589616            7.002095
| 18>   O                      -2.154025            -4.559680            6.133148
| 19>   H                      -2.363920            -4.281243            5.232424
| 20>   H                      -1.061658            -2.953280            6.756528
| 21>   H                      -2.723835            -2.808970            6.938761
| 22>   H                      -1.777358            -3.891691            7.977162
| 23> *
| 24>
| 25> #Run DFT-D3 single point of the molecule with dimer basis set
| 26> $new_job
| 27> %base "6-54_DFT_A"
| 28> ! wB97X-D3 def2-TZVP TIGHTSCF CHELPG PMODEL
| 29>
| 30> %scf
| 31> MaxIter 1000
| 32> end
| 33>
| 34> * xyz 0 1
| 35>   C                      0.196325             -0.976893            10.050342
| 36>   O                      1.433650             -0.253384            9.974844
| 37>   H                      1.432420             0.446621             10.619602
| 38>   H                      -0.611933            -0.325739            10.403889
| 39>   H                      -0.103297            -1.288178            8.974143
| 40>   H                      0.344229             -1.799503            10.711079
| 41>   C                    : -1.907930            -3.589616            7.002095
| 42>   O                    : -2.154025            -4.559680            6.133148
| 43>   H                    : -2.363920            -4.281243            5.232424
| 44>   H                    : -1.061658            -2.953280            6.756528
| 45>   H                    : -2.723835            -2.808970            6.938761
| 46>   H                    : -1.777358            -3.891691            7.977162
| 47> *
| 48>
| 49> #Run DFT-D3 single point of the particle with dimer basis set
| 50> $new_job
| 51> %base "6-54_DFT_B"
| 52> ! wB97X-D3 def2-TZVP TIGHTSCF CHELPG PMODEL
| 53>
| 54> %scf
| 55> MaxIter 1000
| 56> end
| 57>
| 58> * xyz 0 1
| 59>   C                    : 0.196325             -0.976893            10.050342
| 60>   O                    : 1.433650             -0.253384            9.974844
| 61>   H                    : 1.432420             0.446621             10.619602
| 62>   H                    : -0.611933            -0.325739            10.403889
| 63>   H                    : -0.103297            -1.288178            8.974143
| 64>   H                    : 0.344229             -1.799503            10.711079
| 65>   C                      -1.907930            -3.589616            7.002095
| 66>   O                      -2.154025            -4.559680            6.133148
| 67>   H                      -2.363920            -4.281243            5.232424
| 68>   H                      -1.061658            -2.953280            6.756528
| 69>   H                      -2.723835            -2.808970            6.938761
| 70>   H                      -1.777358            -3.891691            7.977162
| 71> *
| 72>
| 73>                          ****END OF INPUT****
 Total Charge           Charge          ....    0
 Multiplicity           Mult            ....    1
 Number of Electrons    NEL             ....   36
Dispersion correction           -0.001013076
FINAL SINGLE POINT ENERGY      -231.456811514091
Dispersion correction           -0.000246669
FINAL SINGLE POINT ENERGY      -115.732188024431

CARTESIAN COORDINATES (ANGSTROEM)
---------------------------------
  C      0.196325   -0.976893   10.050342
  O      1.433650   -0.253384    9.974844
  H      1.432420    0.446621   10.619602
  H     -0.611933   -0.325739   10.403889
  H     -0.103297   -1.288178    8.974143
  H      0.344229   -1.799503   10.711079
  C     -1.907930   -3.589616    7.002095
  O     -2.154025   -4.559680    6.133148
  H     -2.363920   -4.281243    5.232424
  H     -1.061658   -2.953280    6.756528
  H     -2.723835   -2.808970    6.938761
  H     -1.777358   -3.891691    7.977162

 Multiplicity           Mult            ....    1
 Number of Electrons    NEL             ....   18
 Basis Dimension        Dim             ....  172

ORBITAL ENERGIES
----------------

  NO   OCC          E(Eh)            E(eV)
   0   2.0000     -19.228913      -523.2453
   1   2.0000     -10.302378      -280.3420
   2   2.0000      -1.160947       -31.5910
   3   2.0000      -0.801204       -21.8019
   4   2.0000      -0.633836       -17.2475
   5   2.0000      -0.555458       -15.1148
   6   2.0000      -0.538292       -14.6477
   7   2.0000      -0.424505       -11.5514
   8   2.0000      -0.360143        -9.8000
   9   0.0000       0.084627         2.3028
  10   0.0000       0.113540         3.0896
  11   0.0000       0.142236         3.8704
  12   0.0000       0.179911         4.8956
  13   0.0000       0.192278         5.2321

MULLIKEN ATOMIC CHARGES
-----------------------
   0 C :    0.000331
   1 O :   -0.000006
   2 H :   -0.000000
   3 H :   -0.000023
   4 H :   -0.001021
   5 H :   -0.000013
   6 C :   -0.139188
   7 O :   -0.467430
   8 H :    0.326724
   9 H :    0.082575
  10 H :    0.075417
  11 H :    0.122634
Sum of atomic charges:    0.0000000

LOEWDIN ATOMIC CHARGES
----------------------
   0 C :   -0.000284
   1 O :   -0.000006
   2 H :   -0.000000
   3 H :   -0.000002
   4 H :   -0.001305
   5 H :   -0.000019
   6 C :   -0.449375
   7 O :   -0.008466
   8 H :    0.181335
   9 H :    0.088572
  10 H :    0.095745
  11 H :    0.093805

  Mayer bond orders larger than 0.1
B(  6-C ,  7-O ) :   1.0163 B(  6-C ,  9-H ) :   0.9777 B(  6-C , 10-H ) :   0.9899
B(  6-C , 11-H ) :   0.9686 B(  7-O ,  8-H ) :   0.8840

Dispersion correction           -0.000219235
FINAL SINGLE POINT ENERGY      -115.724111400246

DIPOLE MOMENT
-------------
                                X             Y             Z
Electronic contribution:     -0.25376      -1.65160      -1.00236
Nuclear contribution   :      0.21746       2.15744       0.71728
                        -----------------------------------------
Total Dipole Moment    :     -0.03629       0.50584      -0.28508
                        -----------------------------------------
Magnitude (a.u.)       :      0.58177
Magnitude (Debye)      :      1.47875

Rotational constants in cm-1:     4.584700     0.910380     0.869054
Rotational constants in MHz : 137445.835684 27292.492012 26053.574368

                             ****ORCA TERMINATED NORMALLY****
TOTAL RUN TIME: 0 days 0 hours 0 minutes 52 seconds 532 msec
