                         Program Version 4.1.2  - RELEASE  -
|  1> #Run DFT-D3 single point of the dimer
|  2> ! wB97X-D3 def2-TZVP TIGHTSCF CHELPG PMODEL PAL8
|  3>
|  4> %base "22-6_DFT_AB"
|  5>
|  6> %scf
|  7> MaxIter 1000
|  8> end
|  9>
| 10> * xyz 0 1
| 11>   C                      -3.366488            1.354718             8.299496
| 12>   O                      -2.747762            2.580068             8.513952
| 13>   H                      -2.097212            2.607204             7.804503
| 14>   H                      -3.091532            0.606645             9.087924
| 15>   H                      -4.464560            1.385830             8.357553
| 16>   H                      -3.098089            0.935276             7.304372
| 17>   C                      -4.439583            5.284049             6.460720
| 18>   O                      -3.532584            5.940513             7.279064
| 19>   H                      -2.829601            5.355491             7.431559
| 20>   H                      -5.279890            4.732551             6.970226
| 21>   H                      -4.912317            5.976185             5.736336
| 22>   H                      -3.816924            4.488641             5.983282
| 23> *
| 24>
| 25> #Run DFT-D3 single point of the molecule with dimer basis set
| 26> $new_job
| 27> %base "22-6_DFT_A"
| 28> ! wB97X-D3 def2-TZVP TIGHTSCF CHELPG PMODEL
| 29>
| 30> %scf
| 31> MaxIter 1000
| 32> end
| 33>
| 34> * xyz 0 1
| 35>   C                      -3.366488            1.354718             8.299496
| 36>   O                      -2.747762            2.580068             8.513952
| 37>   H                      -2.097212            2.607204             7.804503
| 38>   H                      -3.091532            0.606645             9.087924
| 39>   H                      -4.464560            1.385830             8.357553
| 40>   H                      -3.098089            0.935276             7.304372
| 41>   C                    : -4.439583            5.284049             6.460720
| 42>   O                    : -3.532584            5.940513             7.279064
| 43>   H                    : -2.829601            5.355491             7.431559
| 44>   H                    : -5.279890            4.732551             6.970226
| 45>   H                    : -4.912317            5.976185             5.736336
| 46>   H                    : -3.816924            4.488641             5.983282
| 47> *
| 48>
| 49> #Run DFT-D3 single point of the particle with dimer basis set
| 50> $new_job
| 51> %base "22-6_DFT_B"
| 52> ! wB97X-D3 def2-TZVP TIGHTSCF CHELPG PMODEL
| 53>
| 54> %scf
| 55> MaxIter 1000
| 56> end
| 57>
| 58> * xyz 0 1
| 59>   C                    : -3.366488            1.354718             8.299496
| 60>   O                    : -2.747762            2.580068             8.513952
| 61>   H                    : -2.097212            2.607204             7.804503
| 62>   H                    : -3.091532            0.606645             9.087924
| 63>   H                    : -4.464560            1.385830             8.357553
| 64>   H                    : -3.098089            0.935276             7.304372
| 65>   C                      -4.439583            5.284049             6.460720
| 66>   O                      -3.532584            5.940513             7.279064
| 67>   H                      -2.829601            5.355491             7.431559
| 68>   H                      -5.279890            4.732551             6.970226
| 69>   H                      -4.912317            5.976185             5.736336
| 70>   H                      -3.816924            4.488641             5.983282
| 71> *
| 72>
| 73>                          ****END OF INPUT****
 Total Charge           Charge          ....    0
 Multiplicity           Mult            ....    1
 Number of Electrons    NEL             ....   36
Dispersion correction           -0.001645259
FINAL SINGLE POINT ENERGY      -231.463386364158
Dispersion correction           -0.000239875
FINAL SINGLE POINT ENERGY      -115.732907769614

CARTESIAN COORDINATES (ANGSTROEM)
---------------------------------
  C     -3.366488    1.354718    8.299496
  O     -2.747762    2.580068    8.513952
  H     -2.097212    2.607204    7.804503
  H     -3.091532    0.606645    9.087924
  H     -4.464560    1.385830    8.357553
  H     -3.098089    0.935276    7.304372
  C     -4.439583    5.284049    6.460720
  O     -3.532584    5.940513    7.279064
  H     -2.829601    5.355491    7.431559
  H     -5.279890    4.732551    6.970226
  H     -4.912317    5.976185    5.736336
  H     -3.816924    4.488641    5.983282

 Multiplicity           Mult            ....    1
 Number of Electrons    NEL             ....   18
 Basis Dimension        Dim             ....  172

ORBITAL ENERGIES
----------------

  NO   OCC          E(Eh)            E(eV)
   0   2.0000     -19.228083      -523.2227
   1   2.0000     -10.319714      -280.8137
   2   2.0000      -1.154292       -31.4099
   3   2.0000      -0.791364       -21.5341
   4   2.0000      -0.621282       -16.9059
   5   2.0000      -0.542841       -14.7715
   6   2.0000      -0.533967       -14.5300
   7   2.0000      -0.430276       -11.7084
   8   2.0000      -0.371158       -10.0997
   9   0.0000       0.071271         1.9394
  10   0.0000       0.119188         3.2433
  11   0.0000       0.148123         4.0306
  12   0.0000       0.174394         4.7455
  13   0.0000       0.190452         5.1825

MULLIKEN ATOMIC CHARGES
-----------------------
   0 C :   -0.000014
   1 O :   -0.000596
   2 H :   -0.000448
   3 H :   -0.000006
   4 H :   -0.000180
   5 H :   -0.000109
   6 C :   -0.163977
   7 O :   -0.452437
   8 H :    0.311592
   9 H :    0.093566
  10 H :    0.119682
  11 H :    0.092926
Sum of atomic charges:   -0.0000000

LOEWDIN ATOMIC CHARGES
----------------------
   0 C :   -0.000530
   1 O :   -0.001415
   2 H :   -0.000899
   3 H :   -0.000004
   4 H :   -0.000116
   5 H :   -0.000056
   6 C :   -0.410255
   7 O :   -0.040770
   8 H :    0.149934
   9 H :    0.097080
  10 H :    0.106563
  11 H :    0.100468

  Mayer bond orders larger than 0.1
B(  6-C ,  7-O ) :   1.0103 B(  6-C ,  9-H ) :   0.9631 B(  6-C , 10-H ) :   0.9736
B(  6-C , 11-H ) :   1.0000 B(  7-O ,  8-H ) :   0.9097

Dispersion correction           -0.000234961
FINAL SINGLE POINT ENERGY      -115.729208573601

DIPOLE MOMENT
-------------
                                X             Y             Z
Electronic contribution:      1.07398       1.08553       1.08623
Nuclear contribution   :     -0.93904      -1.70333      -1.29904
                        -----------------------------------------
Total Dipole Moment    :      0.13494      -0.61781      -0.21282
                        -----------------------------------------
Magnitude (a.u.)       :      0.66722
Magnitude (Debye)      :      1.69594

Rotational constants in cm-1:     4.225776     0.861079     0.822896
Rotational constants in MHz : 126685.579684 25814.505573 24669.794360

                             ****ORCA TERMINATED NORMALLY****
TOTAL RUN TIME: 0 days 0 hours 0 minutes 59 seconds 780 msec
