                         Program Version 4.1.2  - RELEASE  -
|  1> #Run DFT-D3 single point of the dimer
|  2> ! wB97X-D3 def2-TZVP TIGHTSCF CHELPG PMODEL PAL8
|  3>
|  4> %base "12-73_DFT_AB"
|  5>
|  6> %scf
|  7> MaxIter 1000
|  8> end
|  9>
| 10> * xyz 0 1
| 11>   C                      7.095750             3.934989             5.712976
| 12>   O                      8.233398             3.019336             5.783510
| 13>   H                      8.730311             3.165655             4.956165
| 14>   H                      6.340234             3.723684             6.452433
| 15>   H                      7.425371             4.894638             6.015371
| 16>   H                      6.636750             3.988568             4.765022
| 17>   C                      8.656930             -0.324886            6.062637
| 18>   O                      7.420327             0.330525             6.103056
| 19>   H                      7.528995             1.299628             6.215435
| 20>   H                      8.544514             -1.311836            5.493756
| 21>   H                      9.461401             0.179081             5.525701
| 22>   H                      9.098891             -0.548989            6.998623
| 23> *
| 24>
| 25> #Run DFT-D3 single point of the molecule with dimer basis set
| 26> $new_job
| 27> %base "12-73_DFT_A"
| 28> ! wB97X-D3 def2-TZVP TIGHTSCF CHELPG PMODEL
| 29>
| 30> %scf
| 31> MaxIter 1000
| 32> end
| 33>
| 34> * xyz 0 1
| 35>   C                      7.095750             3.934989             5.712976
| 36>   O                      8.233398             3.019336             5.783510
| 37>   H                      8.730311             3.165655             4.956165
| 38>   H                      6.340234             3.723684             6.452433
| 39>   H                      7.425371             4.894638             6.015371
| 40>   H                      6.636750             3.988568             4.765022
| 41>   C                    : 8.656930             -0.324886            6.062637
| 42>   O                    : 7.420327             0.330525             6.103056
| 43>   H                    : 7.528995             1.299628             6.215435
| 44>   H                    : 8.544514             -1.311836            5.493756
| 45>   H                    : 9.461401             0.179081             5.525701
| 46>   H                    : 9.098891             -0.548989            6.998623
| 47> *
| 48>
| 49> #Run DFT-D3 single point of the particle with dimer basis set
| 50> $new_job
| 51> %base "12-73_DFT_B"
| 52> ! wB97X-D3 def2-TZVP TIGHTSCF CHELPG PMODEL
| 53>
| 54> %scf
| 55> MaxIter 1000
| 56> end
| 57>
| 58> * xyz 0 1
| 59>   C                    : 7.095750             3.934989             5.712976
| 60>   O                    : 8.233398             3.019336             5.783510
| 61>   H                    : 8.730311             3.165655             4.956165
| 62>   H                    : 6.340234             3.723684             6.452433
| 63>   H                    : 7.425371             4.894638             6.015371
| 64>   H                    : 6.636750             3.988568             4.765022
| 65>   C                      8.656930             -0.324886            6.062637
| 66>   O                      7.420327             0.330525             6.103056
| 67>   H                      7.528995             1.299628             6.215435
| 68>   H                      8.544514             -1.311836            5.493756
| 69>   H                      9.461401             0.179081             5.525701
| 70>   H                      9.098891             -0.548989            6.998623
| 71> *
| 72>
| 73>                          ****END OF INPUT****
 Total Charge           Charge          ....    0
 Multiplicity           Mult            ....    1
 Number of Electrons    NEL             ....   36
Dispersion correction           -0.001825163
FINAL SINGLE POINT ENERGY      -231.471890103313
Dispersion correction           -0.000247378
FINAL SINGLE POINT ENERGY      -115.731412961814

CARTESIAN COORDINATES (ANGSTROEM)
---------------------------------
  C      7.095750    3.934989    5.712976
  O      8.233398    3.019336    5.783510
  H      8.730311    3.165655    4.956165
  H      6.340234    3.723684    6.452433
  H      7.425371    4.894638    6.015371
  H      6.636750    3.988568    4.765022
  C      8.656930   -0.324886    6.062637
  O      7.420327    0.330525    6.103056
  H      7.528995    1.299628    6.215435
  H      8.544514   -1.311836    5.493756
  H      9.461401    0.179081    5.525701
  H      9.098891   -0.548989    6.998623

 Multiplicity           Mult            ....    1
 Number of Electrons    NEL             ....   18
 Basis Dimension        Dim             ....  172

ORBITAL ENERGIES
----------------

  NO   OCC          E(Eh)            E(eV)
   0   2.0000     -19.235986      -523.4378
   1   2.0000     -10.312861      -280.6272
   2   2.0000      -1.136282       -30.9198
   3   2.0000      -0.796467       -21.6730
   4   2.0000      -0.618985       -16.8434
   5   2.0000      -0.540271       -14.7015
   6   2.0000      -0.522018       -14.2048
   7   2.0000      -0.427650       -11.6370
   8   2.0000      -0.375884       -10.2283
   9   0.0000       0.069291         1.8855
  10   0.0000       0.130351         3.5470
  11   0.0000       0.150848         4.1048
  12   0.0000       0.165528         4.5042
  13   0.0000       0.195386         5.3167

MULLIKEN ATOMIC CHARGES
-----------------------
   0 C :   -0.002126
   1 O :   -0.005817
   2 H :   -0.000227
   3 H :   -0.000259
   4 H :    0.000117
   5 H :    0.000189
   6 C :   -0.162217
   7 O :   -0.468308
   8 H :    0.319333
   9 H :    0.112931
  10 H :    0.103369
  11 H :    0.103014
Sum of atomic charges:    0.0000000

LOEWDIN ATOMIC CHARGES
----------------------
   0 C :   -0.006074
   1 O :   -0.021957
   2 H :   -0.001500
   3 H :   -0.000659
   4 H :   -0.000118
   5 H :   -0.000183
   6 C :   -0.402401
   7 O :   -0.058540
   8 H :    0.194103
   9 H :    0.118261
  10 H :    0.093843
  11 H :    0.085224

  Mayer bond orders larger than 0.1
B(  6-C ,  7-O ) :   1.0038 B(  6-C ,  9-H ) :   0.9737 B(  6-C , 10-H ) :   0.9735
B(  6-C , 11-H ) :   0.9756 B(  7-O ,  8-H ) :   0.8971

Dispersion correction           -0.000267110
FINAL SINGLE POINT ENERGY      -115.732276455058

DIPOLE MOMENT
-------------
                                X             Y             Z
Electronic contribution:     -1.75025       0.84059       0.14117
Nuclear contribution   :      2.31294      -0.47127      -0.08940
                        -----------------------------------------
Total Dipole Moment    :      0.56269       0.36932       0.05177
                        -----------------------------------------
Magnitude (a.u.)       :      0.67506
Magnitude (Debye)      :      1.71586

Rotational constants in cm-1:     4.434612     0.827813     0.794147
Rotational constants in MHz : 132946.326888 24817.204636 23807.925202

                             ****ORCA TERMINATED NORMALLY****
TOTAL RUN TIME: 0 days 0 hours 1 minutes 10 seconds 556 msec
