                         Program Version 4.1.2  - RELEASE  -
|  1> #Run DFT-D3 single point of the dimer
|  2> ! wB97X-D3 def2-TZVP TIGHTSCF CHELPG PMODEL PAL8
|  3>
|  4> %base "2-145_DFT_AB"
|  5>
|  6> %scf
|  7> MaxIter 1000
|  8> end
|  9>
| 10> * xyz 0 1
| 11>   C                      -6.241690            4.378514             -3.436788
| 12>   O                      -6.258239            3.052279             -3.939157
| 13>   H                      -6.689070            3.093621             -4.793892
| 14>   H                      -5.895818            4.476986             -2.412412
| 15>   H                      -5.605059            5.008731             -4.041317
| 16>   H                      -7.226849            4.775725             -3.558636
| 17>   C                      -9.224930            4.839773             -7.286287
| 18>   O                      -8.231140            4.166823             -6.498063
| 19>   H                      -8.353721            3.247106             -6.539057
| 20>   H                      -9.437909            4.274137             -8.195212
| 21>   H                      -10.117636           4.978880             -6.708360
| 22>   H                      -9.045437            5.853248             -7.636476
| 23> *
| 24>
| 25> #Run DFT-D3 single point of the molecule with dimer basis set
| 26> $new_job
| 27> %base "2-145_DFT_A"
| 28> ! wB97X-D3 def2-TZVP TIGHTSCF CHELPG PMODEL
| 29>
| 30> %scf
| 31> MaxIter 1000
| 32> end
| 33>
| 34> * xyz 0 1
| 35>   C                      -6.241690            4.378514             -3.436788
| 36>   O                      -6.258239            3.052279             -3.939157
| 37>   H                      -6.689070            3.093621             -4.793892
| 38>   H                      -5.895818            4.476986             -2.412412
| 39>   H                      -5.605059            5.008731             -4.041317
| 40>   H                      -7.226849            4.775725             -3.558636
| 41>   C                    : -9.224930            4.839773             -7.286287
| 42>   O                    : -8.231140            4.166823             -6.498063
| 43>   H                    : -8.353721            3.247106             -6.539057
| 44>   H                    : -9.437909            4.274137             -8.195212
| 45>   H                    : -10.117636           4.978880             -6.708360
| 46>   H                    : -9.045437            5.853248             -7.636476
| 47> *
| 48>
| 49> #Run DFT-D3 single point of the particle with dimer basis set
| 50> $new_job
| 51> %base "2-145_DFT_B"
| 52> ! wB97X-D3 def2-TZVP TIGHTSCF CHELPG PMODEL
| 53>
| 54> %scf
| 55> MaxIter 1000
| 56> end
| 57>
| 58> * xyz 0 1
| 59>   C                    : -6.241690            4.378514             -3.436788
| 60>   O                    : -6.258239            3.052279             -3.939157
| 61>   H                    : -6.689070            3.093621             -4.793892
| 62>   H                    : -5.895818            4.476986             -2.412412
| 63>   H                    : -5.605059            5.008731             -4.041317
| 64>   H                    : -7.226849            4.775725             -3.558636
| 65>   C                      -9.224930            4.839773             -7.286287
| 66>   O                      -8.231140            4.166823             -6.498063
| 67>   H                      -8.353721            3.247106             -6.539057
| 68>   H                      -9.437909            4.274137             -8.195212
| 69>   H                      -10.117636           4.978880             -6.708360
| 70>   H                      -9.045437            5.853248             -7.636476
| 71> *
| 72>
| 73>                          ****END OF INPUT****
 Total Charge           Charge          ....    0
 Multiplicity           Mult            ....    1
 Number of Electrons    NEL             ....   36
Dispersion correction           -0.001505941
FINAL SINGLE POINT ENERGY      -231.466693627573
Dispersion correction           -0.000219293
FINAL SINGLE POINT ENERGY      -115.733742643877

CARTESIAN COORDINATES (ANGSTROEM)
---------------------------------
  C     -6.241690    4.378514   -3.436788
  O     -6.258239    3.052279   -3.939157
  H     -6.689070    3.093621   -4.793892
  H     -5.895818    4.476986   -2.412412
  H     -5.605059    5.008731   -4.041317
  H     -7.226849    4.775725   -3.558636
  C     -9.224930    4.839773   -7.286287
  O     -8.231140    4.166823   -6.498063
  H     -8.353721    3.247106   -6.539057
  H     -9.437909    4.274137   -8.195212
  H    -10.117636    4.978880   -6.708360
  H     -9.045437    5.853248   -7.636476

 Multiplicity           Mult            ....    1
 Number of Electrons    NEL             ....   18
 Basis Dimension        Dim             ....  172

ORBITAL ENERGIES
----------------

  NO   OCC          E(Eh)            E(eV)
   0   2.0000     -19.227888      -523.2174
   1   2.0000     -10.313356      -280.6407
   2   2.0000      -1.135038       -30.8860
   3   2.0000      -0.805120       -21.9084
   4   2.0000      -0.611801       -16.6480
   5   2.0000      -0.543944       -14.8015
   6   2.0000      -0.531313       -14.4578
   7   2.0000      -0.428004       -11.6466
   8   2.0000      -0.376076       -10.2336
   9   0.0000       0.098867         2.6903
  10   0.0000       0.126933         3.4540
  11   0.0000       0.148125         4.0307
  12   0.0000       0.188383         5.1262
  13   0.0000       0.199022         5.4157

MULLIKEN ATOMIC CHARGES
-----------------------
   0 C :    0.007186
   1 O :    0.000146
   2 H :   -0.006490
   3 H :   -0.000221
   4 H :   -0.001629
   5 H :   -0.006740
   6 C :   -0.168103
   7 O :   -0.471402
   8 H :    0.315164
   9 H :    0.104921
  10 H :    0.108401
  11 H :    0.118766
Sum of atomic charges:   -0.0000000

LOEWDIN ATOMIC CHARGES
----------------------
   0 C :   -0.004116
   1 O :   -0.000620
   2 H :   -0.008197
   3 H :   -0.000039
   4 H :   -0.000376
   5 H :   -0.002898
   6 C :   -0.364220
   7 O :   -0.066714
   8 H :    0.149507
   9 H :    0.098039
  10 H :    0.093050
  11 H :    0.106585

  Mayer bond orders larger than 0.1
B(  6-C ,  7-O ) :   0.9918 B(  6-C ,  9-H ) :   0.9812 B(  6-C , 10-H ) :   0.9800
B(  6-C , 11-H ) :   0.9733 B(  7-O ,  8-H ) :   0.9004

Dispersion correction           -0.000256733
FINAL SINGLE POINT ENERGY      -115.729543663315

DIPOLE MOMENT
-------------
                                X             Y             Z
Electronic contribution:      1.38875      -0.73574       1.03381
Nuclear contribution   :     -1.89985       0.43163      -1.41699
                        -----------------------------------------
Total Dipole Moment    :     -0.51110      -0.30411      -0.38318
                        -----------------------------------------
Magnitude (a.u.)       :      0.70749
Magnitude (Debye)      :      1.79829

Rotational constants in cm-1:     4.616175     0.799289     0.775407
Rotational constants in MHz : 138389.457278 23962.086992 23246.110390

                             ****ORCA TERMINATED NORMALLY****
TOTAL RUN TIME: 0 days 0 hours 6 minutes 15 seconds 588 msec
