                         Program Version 4.1.2  - RELEASE  -
|  1> #Run DFT-D3 single point of the dimer
|  2> ! wB97X-D3 def2-TZVP TIGHTSCF CHELPG PMODEL PAL8
|  3>
|  4> %base "2-142_DFT_AB"
|  5>
|  6> %scf
|  7> MaxIter 1000
|  8> end
|  9>
| 10> * xyz 0 1
| 11>   C                      -3.909642            -7.865513            11.100927
| 12>   O                      -4.235504            -8.325673            12.401175
| 13>   H                      -3.857427            -7.727334            13.015173
| 14>   H                      -3.269247            -7.015815            10.976529
| 15>   H                      -3.522420            -8.676216            10.425879
| 16>   H                      -4.860598            -7.650929            10.623361
| 17>   C                      -6.024622            -8.783032            8.677513
| 18>   O                      -5.122256            -9.820005            8.826240
| 19>   H                      -5.097211            -10.097129           9.725060
| 20>   H                      -5.825973            -7.938720            9.366395
| 21>   H                      -5.925312            -8.372173            7.687259
| 22>   H                      -7.041324            -9.053854            8.939854
| 23> *
| 24>
| 25> #Run DFT-D3 single point of the molecule with dimer basis set
| 26> $new_job
| 27> %base "2-142_DFT_A"
| 28> ! wB97X-D3 def2-TZVP TIGHTSCF CHELPG PMODEL
| 29>
| 30> %scf
| 31> MaxIter 1000
| 32> end
| 33>
| 34> * xyz 0 1
| 35>   C                      -3.909642            -7.865513            11.100927
| 36>   O                      -4.235504            -8.325673            12.401175
| 37>   H                      -3.857427            -7.727334            13.015173
| 38>   H                      -3.269247            -7.015815            10.976529
| 39>   H                      -3.522420            -8.676216            10.425879
| 40>   H                      -4.860598            -7.650929            10.623361
| 41>   C                    : -6.024622            -8.783032            8.677513
| 42>   O                    : -5.122256            -9.820005            8.826240
| 43>   H                    : -5.097211            -10.097129           9.725060
| 44>   H                    : -5.825973            -7.938720            9.366395
| 45>   H                    : -5.925312            -8.372173            7.687259
| 46>   H                    : -7.041324            -9.053854            8.939854
| 47> *
| 48>
| 49> #Run DFT-D3 single point of the particle with dimer basis set
| 50> $new_job
| 51> %base "2-142_DFT_B"
| 52> ! wB97X-D3 def2-TZVP TIGHTSCF CHELPG PMODEL
| 53>
| 54> %scf
| 55> MaxIter 1000
| 56> end
| 57>
| 58> * xyz 0 1
| 59>   C                    : -3.909642            -7.865513            11.100927
| 60>   O                    : -4.235504            -8.325673            12.401175
| 61>   H                    : -3.857427            -7.727334            13.015173
| 62>   H                    : -3.269247            -7.015815            10.976529
| 63>   H                    : -3.522420            -8.676216            10.425879
| 64>   H                    : -4.860598            -7.650929            10.623361
| 65>   C                      -6.024622            -8.783032            8.677513
| 66>   O                      -5.122256            -9.820005            8.826240
| 67>   H                      -5.097211            -10.097129           9.725060
| 68>   H                      -5.825973            -7.938720            9.366395
| 69>   H                      -5.925312            -8.372173            7.687259
| 70>   H                      -7.041324            -9.053854            8.939854
| 71> *
| 72>
| 73>                          ****END OF INPUT****
 Total Charge           Charge          ....    0
 Multiplicity           Mult            ....    1
 Number of Electrons    NEL             ....   36
Dispersion correction           -0.002153484
FINAL SINGLE POINT ENERGY      -231.462343344737
Dispersion correction           -0.000262122
FINAL SINGLE POINT ENERGY      -115.730390216443

CARTESIAN COORDINATES (ANGSTROEM)
---------------------------------
  C     -3.909642   -7.865513   11.100927
  O     -4.235504   -8.325673   12.401175
  H     -3.857427   -7.727334   13.015173
  H     -3.269247   -7.015815   10.976529
  H     -3.522420   -8.676216   10.425879
  H     -4.860598   -7.650929   10.623361
  C     -6.024622   -8.783032    8.677513
  O     -5.122256   -9.820005    8.826240
  H     -5.097211  -10.097129    9.725060
  H     -5.825973   -7.938720    9.366395
  H     -5.925312   -8.372173    7.687259
  H     -7.041324   -9.053854    8.939854

 Multiplicity           Mult            ....    1
 Number of Electrons    NEL             ....   18
 Basis Dimension        Dim             ....  172

ORBITAL ENERGIES
----------------

  NO   OCC          E(Eh)            E(eV)
   0   2.0000     -19.230341      -523.2842
   1   2.0000     -10.309489      -280.5355
   2   2.0000      -1.150150       -31.2972
   3   2.0000      -0.799411       -21.7531
   4   2.0000      -0.624867       -17.0035
   5   2.0000      -0.544210       -14.8087
   6   2.0000      -0.530004       -14.4221
   7   2.0000      -0.436361       -11.8740
   8   2.0000      -0.371384       -10.1059
   9   0.0000       0.082880         2.2553
  10   0.0000       0.135354         3.6832
  11   0.0000       0.152638         4.1535
  12   0.0000       0.172984         4.7071
  13   0.0000       0.199110         5.4181

MULLIKEN ATOMIC CHARGES
-----------------------
   0 C :   -0.010779
   1 O :    0.000828
   2 H :    0.000069
   3 H :   -0.000773
   4 H :   -0.008498
   5 H :    0.013188
   6 C :   -0.150476
   7 O :   -0.455794
   8 H :    0.313824
   9 H :    0.072823
  10 H :    0.124095
  11 H :    0.101493
Sum of atomic charges:    0.0000000

LOEWDIN ATOMIC CHARGES
----------------------
   0 C :   -0.018922
   1 O :   -0.000159
   2 H :   -0.000013
   3 H :   -0.000178
   4 H :   -0.010670
   5 H :   -0.025902
   6 C :   -0.390797
   7 O :   -0.026733
   8 H :    0.160623
   9 H :    0.113060
  10 H :    0.107828
  11 H :    0.091861

  Mayer bond orders larger than 0.1
B(  6-C ,  7-O ) :   1.0032 B(  6-C ,  9-H ) :   0.9821 B(  6-C , 10-H ) :   0.9768
B(  6-C , 11-H ) :   0.9802 B(  7-O ,  8-H ) :   0.9016

Dispersion correction           -0.000228354
FINAL SINGLE POINT ENERGY      -115.735477136580

DIPOLE MOMENT
-------------
                                X             Y             Z
Electronic contribution:      1.18935      -1.44961      -0.03464
Nuclear contribution   :     -1.51311       1.66510       0.54906
                        -----------------------------------------
Total Dipole Moment    :     -0.32376       0.21549       0.51441
                        -----------------------------------------
Magnitude (a.u.)       :      0.64489
Magnitude (Debye)      :      1.63917

Rotational constants in cm-1:     4.415781     0.862192     0.825445
Rotational constants in MHz : 132381.772516 25847.858737 24746.223563

                             ****ORCA TERMINATED NORMALLY****
TOTAL RUN TIME: 0 days 0 hours 6 minutes 24 seconds 341 msec
