                         Program Version 4.1.2  - RELEASE  -
|  1> #Run DFT-D3 single point of the dimer
|  2> ! wB97X-D3 def2-TZVP TIGHTSCF CHELPG PMODEL PAL8
|  3>
|  4> %base "2-175_DFT_AB"
|  5>
|  6> %scf
|  7> MaxIter 1000
|  8> end
|  9>
| 10> * xyz 0 1
| 11>   C                      -4.070602            0.009870             -0.947759
| 12>   O                      -3.177493            0.651207             -1.839378
| 13>   H                      -3.644926            1.332124             -2.268377
| 14>   H                      -3.956544            -1.097930            -0.905748
| 15>   H                      -3.984569            0.469919             0.004968
| 16>   H                      -5.138028            0.195817             -1.267886
| 17>   C                      -4.551905            3.285619             2.466229
| 18>   O                      -4.035820            2.159507             1.757362
| 19>   H                      -3.078648            1.998050             1.951983
| 20>   H                      -4.499175            3.252960             3.591378
| 21>   H                      -4.053879            4.191715             2.127110
| 22>   H                      -5.564716            3.320725             2.280151
| 23> *
| 24>
| 25> #Run DFT-D3 single point of the molecule with dimer basis set
| 26> $new_job
| 27> %base "2-175_DFT_A"
| 28> ! wB97X-D3 def2-TZVP TIGHTSCF CHELPG PMODEL
| 29>
| 30> %scf
| 31> MaxIter 1000
| 32> end
| 33>
| 34> * xyz 0 1
| 35>   C                      -4.070602            0.009870             -0.947759
| 36>   O                      -3.177493            0.651207             -1.839378
| 37>   H                      -3.644926            1.332124             -2.268377
| 38>   H                      -3.956544            -1.097930            -0.905748
| 39>   H                      -3.984569            0.469919             0.004968
| 40>   H                      -5.138028            0.195817             -1.267886
| 41>   C                    : -4.551905            3.285619             2.466229
| 42>   O                    : -4.035820            2.159507             1.757362
| 43>   H                    : -3.078648            1.998050             1.951983
| 44>   H                    : -4.499175            3.252960             3.591378
| 45>   H                    : -4.053879            4.191715             2.127110
| 46>   H                    : -5.564716            3.320725             2.280151
| 47> *
| 48>
| 49> #Run DFT-D3 single point of the particle with dimer basis set
| 50> $new_job
| 51> %base "2-175_DFT_B"
| 52> ! wB97X-D3 def2-TZVP TIGHTSCF CHELPG PMODEL
| 53>
| 54> %scf
| 55> MaxIter 1000
| 56> end
| 57>
| 58> * xyz 0 1
| 59>   C                    : -4.070602            0.009870             -0.947759
| 60>   O                    : -3.177493            0.651207             -1.839378
| 61>   H                    : -3.644926            1.332124             -2.268377
| 62>   H                    : -3.956544            -1.097930            -0.905748
| 63>   H                    : -3.984569            0.469919             0.004968
| 64>   H                    : -5.138028            0.195817             -1.267886
| 65>   C                      -4.551905            3.285619             2.466229
| 66>   O                      -4.035820            2.159507             1.757362
| 67>   H                      -3.078648            1.998050             1.951983
| 68>   H                      -4.499175            3.252960             3.591378
| 69>   H                      -4.053879            4.191715             2.127110
| 70>   H                      -5.564716            3.320725             2.280151
| 71> *
| 72>
| 73>                          ****END OF INPUT****
 Total Charge           Charge          ....    0
 Multiplicity           Mult            ....    1
 Number of Electrons    NEL             ....   36
Dispersion correction           -0.001355738
FINAL SINGLE POINT ENERGY      -231.465831675054
Dispersion correction           -0.000237519
FINAL SINGLE POINT ENERGY      -115.732009230853

CARTESIAN COORDINATES (ANGSTROEM)
---------------------------------
  C     -4.070602    0.009870   -0.947759
  O     -3.177493    0.651207   -1.839378
  H     -3.644926    1.332124   -2.268377
  H     -3.956544   -1.097930   -0.905748
  H     -3.984569    0.469919    0.004968
  H     -5.138028    0.195817   -1.267886
  C     -4.551905    3.285619    2.466229
  O     -4.035820    2.159507    1.757362
  H     -3.078648    1.998050    1.951983
  H     -4.499175    3.252960    3.591378
  H     -4.053879    4.191715    2.127110
  H     -5.564716    3.320725    2.280151

 Multiplicity           Mult            ....    1
 Number of Electrons    NEL             ....   18
 Basis Dimension        Dim             ....  172

ORBITAL ENERGIES
----------------

  NO   OCC          E(Eh)            E(eV)
   0   2.0000     -19.232475      -523.3423
   1   2.0000     -10.310367      -280.5593
   2   2.0000      -1.124331       -30.5946
   3   2.0000      -0.800246       -21.7758
   4   2.0000      -0.605575       -16.4785
   5   2.0000      -0.544965       -14.8293
   6   2.0000      -0.522812       -14.2264
   7   2.0000      -0.431819       -11.7504
   8   2.0000      -0.373649       -10.1675
   9   0.0000       0.096670         2.6305
  10   0.0000       0.121899         3.3170
  11   0.0000       0.152060         4.1378
  12   0.0000       0.177235         4.8228
  13   0.0000       0.196247         5.3402

MULLIKEN ATOMIC CHARGES
-----------------------
   0 C :    0.002033
   1 O :   -0.000047
   2 H :   -0.000165
   3 H :   -0.000254
   4 H :   -0.009679
   5 H :   -0.000549
   6 C :   -0.156387
   7 O :   -0.480467
   8 H :    0.318135
   9 H :    0.096180
  10 H :    0.101975
  11 H :    0.129223
Sum of atomic charges:    0.0000000

LOEWDIN ATOMIC CHARGES
----------------------
   0 C :   -0.006291
   1 O :   -0.000089
   2 H :   -0.000117
   3 H :   -0.000045
   4 H :   -0.013282
   5 H :   -0.000183
   6 C :   -0.370493
   7 O :   -0.084337
   8 H :    0.184023
   9 H :    0.100652
  10 H :    0.095234
  11 H :    0.094927

  Mayer bond orders larger than 0.1
B(  6-C ,  7-O ) :   0.9975 B(  6-C ,  9-H ) :   0.9667 B(  6-C , 10-H ) :   0.9779
B(  6-C , 11-H ) :   0.9770 B(  7-O ,  8-H ) :   0.8902

Dispersion correction           -0.000267673
FINAL SINGLE POINT ENERGY      -115.731890643707

DIPOLE MOMENT
-------------
                                X             Y             Z
Electronic contribution:      0.50301      -1.42372      -0.98131
Nuclear contribution   :     -0.13437       1.79107       1.39326
                        -----------------------------------------
Total Dipole Moment    :      0.36864       0.36736       0.41195
                        -----------------------------------------
Magnitude (a.u.)       :      0.66374
Magnitude (Debye)      :      1.68709

Rotational constants in cm-1:     4.409527     0.808586     0.786306
Rotational constants in MHz : 132194.285538 24240.800984 23572.854935

                             ****ORCA TERMINATED NORMALLY****
TOTAL RUN TIME: 0 days 0 hours 6 minutes 24 seconds 526 msec
