                         Program Version 4.1.2  - RELEASE  -
|  1> #Run DFT-D3 single point of the dimer
|  2> ! wB97X-D3 def2-TZVP TIGHTSCF CHELPG PMODEL PAL8
|  3>
|  4> %base "8-45_DFT_AB"
|  5>
|  6> %scf
|  7> MaxIter 1000
|  8> end
|  9>
| 10> * xyz 0 1
| 11>   C                      8.552612             -7.935893            10.071047
| 12>   O                      7.574977             -7.005132            9.555671
| 13>   H                      7.250363             -7.410425            8.741800
| 14>   H                      8.886957             -7.615184            11.078115
| 15>   H                      8.107898             -8.926959            10.312213
| 16>   H                      9.505592             -8.028052            9.544466
| 17>   C                      3.383848             -4.997898            8.775477
| 18>   O                      4.321349             -5.344710            9.793845
| 19>   H                      5.010987             -4.761969            9.925138
| 20>   H                      3.874750             -4.633568            7.908581
| 21>   H                      2.788686             -5.840481            8.401953
| 22>   H                      2.727648             -4.186402            9.122463
| 23> *
| 24>
| 25> #Run DFT-D3 single point of the molecule with dimer basis set
| 26> $new_job
| 27> %base "8-45_DFT_A"
| 28> ! wB97X-D3 def2-TZVP TIGHTSCF CHELPG PMODEL
| 29>
| 30> %scf
| 31> MaxIter 1000
| 32> end
| 33>
| 34> * xyz 0 1
| 35>   C                      8.552612             -7.935893            10.071047
| 36>   O                      7.574977             -7.005132            9.555671
| 37>   H                      7.250363             -7.410425            8.741800
| 38>   H                      8.886957             -7.615184            11.078115
| 39>   H                      8.107898             -8.926959            10.312213
| 40>   H                      9.505592             -8.028052            9.544466
| 41>   C                    : 3.383848             -4.997898            8.775477
| 42>   O                    : 4.321349             -5.344710            9.793845
| 43>   H                    : 5.010987             -4.761969            9.925138
| 44>   H                    : 3.874750             -4.633568            7.908581
| 45>   H                    : 2.788686             -5.840481            8.401953
| 46>   H                    : 2.727648             -4.186402            9.122463
| 47> *
| 48>
| 49> #Run DFT-D3 single point of the particle with dimer basis set
| 50> $new_job
| 51> %base "8-45_DFT_B"
| 52> ! wB97X-D3 def2-TZVP TIGHTSCF CHELPG PMODEL
| 53>
| 54> %scf
| 55> MaxIter 1000
| 56> end
| 57>
| 58> * xyz 0 1
| 59>   C                    : 8.552612             -7.935893            10.071047
| 60>   O                    : 7.574977             -7.005132            9.555671
| 61>   H                    : 7.250363             -7.410425            8.741800
| 62>   H                    : 8.886957             -7.615184            11.078115
| 63>   H                    : 8.107898             -8.926959            10.312213
| 64>   H                    : 9.505592             -8.028052            9.544466
| 65>   C                      3.383848             -4.997898            8.775477
| 66>   O                      4.321349             -5.344710            9.793845
| 67>   H                      5.010987             -4.761969            9.925138
| 68>   H                      3.874750             -4.633568            7.908581
| 69>   H                      2.788686             -5.840481            8.401953
| 70>   H                      2.727648             -4.186402            9.122463
| 71> *
| 72>
| 73>                          ****END OF INPUT****
 Total Charge           Charge          ....    0
 Multiplicity           Mult            ....    1
 Number of Electrons    NEL             ....   36
Dispersion correction           -0.000995345
FINAL SINGLE POINT ENERGY      -231.463191001325
Dispersion correction           -0.000277159
FINAL SINGLE POINT ENERGY      -115.732358002053

CARTESIAN COORDINATES (ANGSTROEM)
---------------------------------
  C      8.552612   -7.935893   10.071047
  O      7.574977   -7.005132    9.555671
  H      7.250363   -7.410425    8.741800
  H      8.886957   -7.615184   11.078115
  H      8.107898   -8.926959   10.312213
  H      9.505592   -8.028052    9.544466
  C      3.383848   -4.997898    8.775477
  O      4.321349   -5.344710    9.793845
  H      5.010987   -4.761969    9.925138
  H      3.874750   -4.633568    7.908581
  H      2.788686   -5.840481    8.401953
  H      2.727648   -4.186402    9.122463

 Multiplicity           Mult            ....    1
 Number of Electrons    NEL             ....   18
 Basis Dimension        Dim             ....  172

ORBITAL ENERGIES
----------------

  NO   OCC          E(Eh)            E(eV)
   0   2.0000     -19.221919      -523.0550
   1   2.0000     -10.313551      -280.6460
   2   2.0000      -1.136054       -30.9136
   3   2.0000      -0.806973       -21.9589
   4   2.0000      -0.618407       -16.8277
   5   2.0000      -0.541877       -14.7452
   6   2.0000      -0.529148       -14.3989
   7   2.0000      -0.424819       -11.5599
   8   2.0000      -0.374620       -10.1939
   9   0.0000       0.089439         2.4338
  10   0.0000       0.121142         3.2964
  11   0.0000       0.151051         4.1103
  12   0.0000       0.176911         4.8140
  13   0.0000       0.201981         5.4962

MULLIKEN ATOMIC CHARGES
-----------------------
   0 C :   -0.000271
   1 O :   -0.000927
   2 H :   -0.001215
   3 H :    0.000040
   4 H :   -0.000000
   5 H :   -0.000004
   6 C :   -0.155760
   7 O :   -0.487760
   8 H :    0.310099
   9 H :    0.106964
  10 H :    0.124230
  11 H :    0.104604
Sum of atomic charges:    0.0000000

LOEWDIN ATOMIC CHARGES
----------------------
   0 C :   -0.000118
   1 O :   -0.001521
   2 H :   -0.001086
   3 H :   -0.000001
   4 H :   -0.000003
   5 H :   -0.000004
   6 C :   -0.364310
   7 O :   -0.063939
   8 H :    0.133080
   9 H :    0.088960
  10 H :    0.111003
  11 H :    0.097940

  Mayer bond orders larger than 0.1
B(  6-C ,  7-O ) :   0.9864 B(  6-C ,  9-H ) :   0.9803 B(  6-C , 10-H ) :   0.9700
B(  6-C , 11-H ) :   0.9780 B(  7-O ,  8-H ) :   0.9041

Dispersion correction           -0.000257326
FINAL SINGLE POINT ENERGY      -115.730296257221

DIPOLE MOMENT
-------------
                                X             Y             Z
Electronic contribution:      1.11108      -0.56522       1.30885
Nuclear contribution   :     -1.03935       1.11381      -1.69063
                        -----------------------------------------
Total Dipole Moment    :      0.07173       0.54859      -0.38178
                        -----------------------------------------
Magnitude (a.u.)       :      0.67220
Magnitude (Debye)      :      1.70859

Rotational constants in cm-1:     4.598320     0.806368     0.785430
Rotational constants in MHz : 137854.163872 24174.301145 23546.603714

                             ****ORCA TERMINATED NORMALLY****
TOTAL RUN TIME: 0 days 0 hours 0 minutes 43 seconds 727 msec
