                         Program Version 4.1.2  - RELEASE  -
|  1> #Run DFT-D3 single point of the dimer
|  2> ! wB97X-D3 def2-TZVP TIGHTSCF CHELPG PMODEL PAL8
|  3>
|  4> %base "13-102_DFT_AB"
|  5>
|  6> %scf
|  7> MaxIter 1000
|  8> end
|  9>
| 10> * xyz 0 1
| 11>   C                      -8.327295            -6.314122            3.863884
| 12>   O                      -7.013995            -6.096790            4.267801
| 13>   H                      -6.519497            -6.634224            3.582791
| 14>   H                      -8.460313            -6.122950            2.836673
| 15>   H                      -8.712477            -7.355026            4.012781
| 16>   H                      -9.101512            -5.635674            4.311855
| 17>   C                      -5.962459            -8.021586            1.465362
| 18>   O                      -5.627130            -8.082584            2.823401
| 19>   H                      -4.845257            -8.568784            3.022787
| 20>   H                      -5.807610            -9.027297            1.034918
| 21>   H                      -7.024644            -7.824120            1.297368
| 22>   H                      -5.520833            -7.173313            0.824412
| 23> *
| 24>
| 25> #Run DFT-D3 single point of the molecule with dimer basis set
| 26> $new_job
| 27> %base "13-102_DFT_A"
| 28> ! wB97X-D3 def2-TZVP TIGHTSCF CHELPG PMODEL
| 29>
| 30> %scf
| 31> MaxIter 1000
| 32> end
| 33>
| 34> * xyz 0 1
| 35>   C                      -8.327295            -6.314122            3.863884
| 36>   O                      -7.013995            -6.096790            4.267801
| 37>   H                      -6.519497            -6.634224            3.582791
| 38>   H                      -8.460313            -6.122950            2.836673
| 39>   H                      -8.712477            -7.355026            4.012781
| 40>   H                      -9.101512            -5.635674            4.311855
| 41>   C                    : -5.962459            -8.021586            1.465362
| 42>   O                    : -5.627130            -8.082584            2.823401
| 43>   H                    : -4.845257            -8.568784            3.022787
| 44>   H                    : -5.807610            -9.027297            1.034918
| 45>   H                    : -7.024644            -7.824120            1.297368
| 46>   H                    : -5.520833            -7.173313            0.824412
| 47> *
| 48>
| 49> #Run DFT-D3 single point of the particle with dimer basis set
| 50> $new_job
| 51> %base "13-102_DFT_B"
| 52> ! wB97X-D3 def2-TZVP TIGHTSCF CHELPG PMODEL
| 53>
| 54> %scf
| 55> MaxIter 1000
| 56> end
| 57>
| 58> * xyz 0 1
| 59>   C                    : -8.327295            -6.314122            3.863884
| 60>   O                    : -7.013995            -6.096790            4.267801
| 61>   H                    : -6.519497            -6.634224            3.582791
| 62>   H                    : -8.460313            -6.122950            2.836673
| 63>   H                    : -8.712477            -7.355026            4.012781
| 64>   H                    : -9.101512            -5.635674            4.311855
| 65>   C                      -5.962459            -8.021586            1.465362
| 66>   O                      -5.627130            -8.082584            2.823401
| 67>   H                      -4.845257            -8.568784            3.022787
| 68>   H                      -5.807610            -9.027297            1.034918
| 69>   H                      -7.024644            -7.824120            1.297368
| 70>   H                      -5.520833            -7.173313            0.824412
| 71> *
| 72>
| 73>                          ****END OF INPUT****
 Total Charge           Charge          ....    0
 Multiplicity           Mult            ....    1
 Number of Electrons    NEL             ....   36
Dispersion correction           -0.002131645
FINAL SINGLE POINT ENERGY      -231.465343165230
Dispersion correction           -0.000231840
FINAL SINGLE POINT ENERGY      -115.728687260523

CARTESIAN COORDINATES (ANGSTROEM)
---------------------------------
  C     -8.327295   -6.314122    3.863884
  O     -7.013995   -6.096790    4.267801
  H     -6.519497   -6.634224    3.582791
  H     -8.460313   -6.122950    2.836673
  H     -8.712477   -7.355026    4.012781
  H     -9.101512   -5.635674    4.311855
  C     -5.962459   -8.021586    1.465362
  O     -5.627130   -8.082584    2.823401
  H     -4.845257   -8.568784    3.022787
  H     -5.807610   -9.027297    1.034918
  H     -7.024644   -7.824120    1.297368
  H     -5.520833   -7.173313    0.824412

 Multiplicity           Mult            ....    1
 Number of Electrons    NEL             ....   18
 Basis Dimension        Dim             ....  172

ORBITAL ENERGIES
----------------

  NO   OCC          E(Eh)            E(eV)
   0   2.0000     -19.230323      -523.2837
   1   2.0000     -10.320641      -280.8389
   2   2.0000      -1.141652       -31.0659
   3   2.0000      -0.798320       -21.7234
   4   2.0000      -0.616393       -16.7729
   5   2.0000      -0.545974       -14.8567
   6   2.0000      -0.526076       -14.3153
   7   2.0000      -0.418717       -11.3939
   8   2.0000      -0.374877       -10.2009
   9   0.0000       0.098465         2.6794
  10   0.0000       0.126773         3.4497
  11   0.0000       0.147063         4.0018
  12   0.0000       0.190151         5.1743
  13   0.0000       0.196554         5.3485

MULLIKEN ATOMIC CHARGES
-----------------------
   0 C :    0.002064
   1 O :    0.001013
   2 H :   -0.006752
   3 H :   -0.000517
   4 H :   -0.001570
   5 H :    0.000009
   6 C :   -0.161164
   7 O :   -0.478211
   8 H :    0.316721
   9 H :    0.106091
  10 H :    0.123692
  11 H :    0.098625
Sum of atomic charges:   -0.0000000

LOEWDIN ATOMIC CHARGES
----------------------
   0 C :   -0.004833
   1 O :   -0.006423
   2 H :   -0.047075
   3 H :   -0.001398
   4 H :   -0.000609
   5 H :   -0.000032
   6 C :   -0.398564
   7 O :   -0.012343
   8 H :    0.157753
   9 H :    0.100836
  10 H :    0.108493
  11 H :    0.104194

  Mayer bond orders larger than 0.1
B(  6-C ,  7-O ) :   0.9959 B(  6-C ,  9-H ) :   0.9794 B(  6-C , 10-H ) :   0.9743
B(  6-C , 11-H ) :   0.9677 B(  7-O ,  8-H ) :   0.8952

Dispersion correction           -0.000274656
FINAL SINGLE POINT ENERGY      -115.729143122387

DIPOLE MOMENT
-------------
                                X             Y             Z
Electronic contribution:      0.44083      -0.02364       1.87511
Nuclear contribution   :     -0.09185      -0.30186      -2.27392
                        -----------------------------------------
Total Dipole Moment    :      0.34898      -0.32550      -0.39881
                        -----------------------------------------
Magnitude (a.u.)       :      0.62192
Magnitude (Debye)      :      1.58080

Rotational constants in cm-1:     4.432379     0.817677     0.798189
Rotational constants in MHz : 132879.384011 24513.324985 23929.089701

                             ****ORCA TERMINATED NORMALLY****
TOTAL RUN TIME: 0 days 0 hours 1 minutes 12 seconds 659 msec
