                         Program Version 4.1.2  - RELEASE  -
|  1> #Run DFT-D3 single point of the dimer
|  2> ! wB97X-D3 def2-TZVP TIGHTSCF CHELPG PMODEL PAL8
|  3>
|  4> %base "16-78_DFT_AB"
|  5>
|  6> %scf
|  7> MaxIter 1000
|  8> end
|  9>
| 10> * xyz 0 1
| 11>   C                      1.882657             -5.473259            -4.311445
| 12>   O                      1.200089             -6.616802            -4.829966
| 13>   H                      0.588911             -6.281126            -5.540718
| 14>   H                      2.877696             -5.712606            -3.843402
| 15>   H                      2.170245             -4.752331            -5.142988
| 16>   H                      1.250145             -4.869591            -3.657311
| 17>   C                      -0.613204            -3.919236            -6.461523
| 18>   O                      -1.008081            -5.241560            -6.519789
| 19>   H                      -1.945495            -5.283833            -6.263580
| 20>   H                      -0.339992            -3.776981            -5.424682
| 21>   H                      0.346395             -3.820588            -6.973409
| 22>   H                      -1.283103            -3.203408            -6.861811
| 23> *
| 24>
| 25> #Run DFT-D3 single point of the molecule with dimer basis set
| 26> $new_job
| 27> %base "16-78_DFT_A"
| 28> ! wB97X-D3 def2-TZVP TIGHTSCF CHELPG PMODEL
| 29>
| 30> %scf
| 31> MaxIter 1000
| 32> end
| 33>
| 34> * xyz 0 1
| 35>   C                      1.882657             -5.473259            -4.311445
| 36>   O                      1.200089             -6.616802            -4.829966
| 37>   H                      0.588911             -6.281126            -5.540718
| 38>   H                      2.877696             -5.712606            -3.843402
| 39>   H                      2.170245             -4.752331            -5.142988
| 40>   H                      1.250145             -4.869591            -3.657311
| 41>   C                    : -0.613204            -3.919236            -6.461523
| 42>   O                    : -1.008081            -5.241560            -6.519789
| 43>   H                    : -1.945495            -5.283833            -6.263580
| 44>   H                    : -0.339992            -3.776981            -5.424682
| 45>   H                    : 0.346395             -3.820588            -6.973409
| 46>   H                    : -1.283103            -3.203408            -6.861811
| 47> *
| 48>
| 49> #Run DFT-D3 single point of the particle with dimer basis set
| 50> $new_job
| 51> %base "16-78_DFT_B"
| 52> ! wB97X-D3 def2-TZVP TIGHTSCF CHELPG PMODEL
| 53>
| 54> %scf
| 55> MaxIter 1000
| 56> end
| 57>
| 58> * xyz 0 1
| 59>   C                    : 1.882657             -5.473259            -4.311445
| 60>   O                    : 1.200089             -6.616802            -4.829966
| 61>   H                    : 0.588911             -6.281126            -5.540718
| 62>   H                    : 2.877696             -5.712606            -3.843402
| 63>   H                    : 2.170245             -4.752331            -5.142988
| 64>   H                    : 1.250145             -4.869591            -3.657311
| 65>   C                      -0.613204            -3.919236            -6.461523
| 66>   O                      -1.008081            -5.241560            -6.519789
| 67>   H                      -1.945495            -5.283833            -6.263580
| 68>   H                      -0.339992            -3.776981            -5.424682
| 69>   H                      0.346395             -3.820588            -6.973409
| 70>   H                      -1.283103            -3.203408            -6.861811
| 71> *
| 72>
| 73>                          ****END OF INPUT****
 Total Charge           Charge          ....    0
 Multiplicity           Mult            ....    1
 Number of Electrons    NEL             ....   36
Dispersion correction           -0.002278777
FINAL SINGLE POINT ENERGY      -231.470188886388
Dispersion correction           -0.000260539
FINAL SINGLE POINT ENERGY      -115.731451099867

CARTESIAN COORDINATES (ANGSTROEM)
---------------------------------
  C      1.882657   -5.473259   -4.311445
  O      1.200089   -6.616802   -4.829966
  H      0.588911   -6.281126   -5.540718
  H      2.877696   -5.712606   -3.843402
  H      2.170245   -4.752331   -5.142988
  H      1.250145   -4.869591   -3.657311
  C     -0.613204   -3.919236   -6.461523
  O     -1.008081   -5.241560   -6.519789
  H     -1.945495   -5.283833   -6.263580
  H     -0.339992   -3.776981   -5.424682
  H      0.346395   -3.820588   -6.973409
  H     -1.283103   -3.203408   -6.861811

 Multiplicity           Mult            ....    1
 Number of Electrons    NEL             ....   18
 Basis Dimension        Dim             ....  172

ORBITAL ENERGIES
----------------

  NO   OCC          E(Eh)            E(eV)
   0   2.0000     -19.228541      -523.2352
   1   2.0000     -10.303102      -280.3617
   2   2.0000      -1.143799       -31.1244
   3   2.0000      -0.795835       -21.6558
   4   2.0000      -0.615187       -16.7401
   5   2.0000      -0.552778       -15.0418
   6   2.0000      -0.529606       -14.4113
   7   2.0000      -0.431725       -11.7478
   8   2.0000      -0.368024       -10.0145
   9   0.0000       0.093996         2.5578
  10   0.0000       0.124313         3.3827
  11   0.0000       0.159397         4.3374
  12   0.0000       0.182922         4.9776
  13   0.0000       0.191149         5.2014

MULLIKEN ATOMIC CHARGES
-----------------------
   0 C :    0.006121
   1 O :   -0.002926
   2 H :   -0.004532
   3 H :    0.000208
   4 H :   -0.001544
   5 H :   -0.001571
   6 C :   -0.162667
   7 O :   -0.473195
   8 H :    0.313806
   9 H :    0.101980
  10 H :    0.108639
  11 H :    0.115682
Sum of atomic charges:    0.0000000

LOEWDIN ATOMIC CHARGES
----------------------
   0 C :   -0.005298
   1 O :   -0.002791
   2 H :   -0.026986
   3 H :   -0.000012
   4 H :   -0.001916
   5 H :   -0.001569
   6 C :   -0.402819
   7 O :   -0.036297
   8 H :    0.178268
   9 H :    0.099235
  10 H :    0.110868
  11 H :    0.089318

  Mayer bond orders larger than 0.1
B(  6-C ,  7-O ) :   0.9858 B(  6-C ,  9-H ) :   0.9950 B(  6-C , 10-H ) :   0.9757
B(  6-C , 11-H ) :   0.9647 B(  7-O ,  8-H ) :   0.8958

Dispersion correction           -0.000215472
FINAL SINGLE POINT ENERGY      -115.731226009632

DIPOLE MOMENT
-------------
                                X             Y             Z
Electronic contribution:     -0.54413      -1.64817      -0.20827
Nuclear contribution   :      0.10636       2.13364       0.37318
                        -----------------------------------------
Total Dipole Moment    :     -0.43777       0.48546       0.16491
                        -----------------------------------------
Magnitude (a.u.)       :      0.67417
Magnitude (Debye)      :      1.71361

Rotational constants in cm-1:     4.358106     0.871398     0.839820
Rotational constants in MHz : 130652.745366 26123.867512 25177.177872

                             ****ORCA TERMINATED NORMALLY****
TOTAL RUN TIME: 0 days 0 hours 1 minutes 3 seconds 780 msec
