                         Program Version 4.1.2  - RELEASE  -
|  1> #Run DFT-D3 single point of the dimer
|  2> ! wB97X-D3 def2-TZVP TIGHTSCF CHELPG PMODEL PAL8
|  3>
|  4> %base "2-92_DFT_AB"
|  5>
|  6> %scf
|  7> MaxIter 1000
|  8> end
|  9>
| 10> * xyz 0 1
| 11>   C                      10.131559            -0.929883            -3.069840
| 12>   O                      8.749478             -0.835584            -3.413896
| 13>   H                      8.295501             -1.609561            -3.197512
| 14>   H                      10.881002            -1.133662            -3.916814
| 15>   H                      10.518113            -0.027949            -2.527007
| 16>   H                      10.152257            -1.698416            -2.209900
| 17>   C                      9.461003             -2.053133            -8.480720
| 18>   O                      10.602396            -2.423743            -9.216608
| 19>   H                      10.359281            -2.569251            -10.118640
| 20>   H                      8.540388             -2.501587            -8.746617
| 21>   H                      9.715682             -2.249565            -7.412942
| 22>   H                      9.241016             -0.944311            -8.524325
| 23> *
| 24>
| 25> #Run DFT-D3 single point of the molecule with dimer basis set
| 26> $new_job
| 27> %base "2-92_DFT_A"
| 28> ! wB97X-D3 def2-TZVP TIGHTSCF CHELPG PMODEL
| 29>
| 30> %scf
| 31> MaxIter 1000
| 32> end
| 33>
| 34> * xyz 0 1
| 35>   C                      10.131559            -0.929883            -3.069840
| 36>   O                      8.749478             -0.835584            -3.413896
| 37>   H                      8.295501             -1.609561            -3.197512
| 38>   H                      10.881002            -1.133662            -3.916814
| 39>   H                      10.518113            -0.027949            -2.527007
| 40>   H                      10.152257            -1.698416            -2.209900
| 41>   C                    : 9.461003             -2.053133            -8.480720
| 42>   O                    : 10.602396            -2.423743            -9.216608
| 43>   H                    : 10.359281            -2.569251            -10.118640
| 44>   H                    : 8.540388             -2.501587            -8.746617
| 45>   H                    : 9.715682             -2.249565            -7.412942
| 46>   H                    : 9.241016             -0.944311            -8.524325
| 47> *
| 48>
| 49> #Run DFT-D3 single point of the particle with dimer basis set
| 50> $new_job
| 51> %base "2-92_DFT_B"
| 52> ! wB97X-D3 def2-TZVP TIGHTSCF CHELPG PMODEL
| 53>
| 54> %scf
| 55> MaxIter 1000
| 56> end
| 57>
| 58> * xyz 0 1
| 59>   C                    : 10.131559            -0.929883            -3.069840
| 60>   O                    : 8.749478             -0.835584            -3.413896
| 61>   H                    : 8.295501             -1.609561            -3.197512
| 62>   H                    : 10.881002            -1.133662            -3.916814
| 63>   H                    : 10.518113            -0.027949            -2.527007
| 64>   H                    : 10.152257            -1.698416            -2.209900
| 65>   C                      9.461003             -2.053133            -8.480720
| 66>   O                      10.602396            -2.423743            -9.216608
| 67>   H                      10.359281            -2.569251            -10.118640
| 68>   H                      8.540388             -2.501587            -8.746617
| 69>   H                      9.715682             -2.249565            -7.412942
| 70>   H                      9.241016             -0.944311            -8.524325
| 71> *
| 72>
| 73>                          ****END OF INPUT****
 Total Charge           Charge          ....    0
 Multiplicity           Mult            ....    1
 Number of Electrons    NEL             ....   36
Dispersion correction           -0.000745181
FINAL SINGLE POINT ENERGY      -231.458104211176
Dispersion correction           -0.000278317
FINAL SINGLE POINT ENERGY      -115.724254948639

CARTESIAN COORDINATES (ANGSTROEM)
---------------------------------
  C     10.131559   -0.929883   -3.069840
  O      8.749478   -0.835584   -3.413896
  H      8.295501   -1.609561   -3.197512
  H     10.881002   -1.133662   -3.916814
  H     10.518113   -0.027949   -2.527007
  H     10.152257   -1.698416   -2.209900
  C      9.461003   -2.053133   -8.480720
  O     10.602396   -2.423743   -9.216608
  H     10.359281   -2.569251  -10.118640
  H      8.540388   -2.501587   -8.746617
  H      9.715682   -2.249565   -7.412942
  H      9.241016   -0.944311   -8.524325

 Multiplicity           Mult            ....    1
 Number of Electrons    NEL             ....   18
 Basis Dimension        Dim             ....  172

ORBITAL ENERGIES
----------------

  NO   OCC          E(Eh)            E(eV)
   0   2.0000     -19.231357      -523.3118
   1   2.0000     -10.314772      -280.6792
   2   2.0000      -1.141563       -31.0635
   3   2.0000      -0.796896       -21.6847
   4   2.0000      -0.621957       -16.9243
   5   2.0000      -0.531901       -14.4738
   6   2.0000      -0.524127       -14.2622
   7   2.0000      -0.440433       -11.9848
   8   2.0000      -0.371713       -10.1148
   9   0.0000       0.085751         2.3334
  10   0.0000       0.118021         3.2115
  11   0.0000       0.149212         4.0603
  12   0.0000       0.164556         4.4778
  13   0.0000       0.180385         4.9085

MULLIKEN ATOMIC CHARGES
-----------------------
   0 C :   -0.000023
   1 O :   -0.000000
   2 H :   -0.000008
   3 H :   -0.000047
   4 H :   -0.000001
   5 H :    0.000001
   6 C :   -0.163980
   7 O :   -0.467730
   8 H :    0.311615
   9 H :    0.108238
  10 H :    0.119062
  11 H :    0.092872
Sum of atomic charges:    0.0000000

LOEWDIN ATOMIC CHARGES
----------------------
   0 C :   -0.000074
   1 O :   -0.000008
   2 H :   -0.000009
   3 H :   -0.000079
   4 H :   -0.000001
   5 H :   -0.000000
   6 C :   -0.394510
   7 O :   -0.062272
   8 H :    0.158825
   9 H :    0.085545
  10 H :    0.113917
  11 H :    0.098667

  Mayer bond orders larger than 0.1
B(  6-C ,  7-O ) :   1.0080 B(  6-C ,  9-H ) :   0.9713 B(  6-C , 10-H ) :   0.9785
B(  6-C , 11-H ) :   0.9721 B(  7-O ,  8-H ) :   0.9023

Dispersion correction           -0.000257608
FINAL SINGLE POINT ENERGY      -115.733408895769

DIPOLE MOMENT
-------------
                                X             Y             Z
Electronic contribution:      1.50826      -0.62631      -0.95808
Nuclear contribution   :     -2.12014       0.64892       0.65243
                        -----------------------------------------
Total Dipole Moment    :     -0.61188       0.02262      -0.30565
                        -----------------------------------------
Magnitude (a.u.)       :      0.68435
Magnitude (Debye)      :      1.73947

Rotational constants in cm-1:     4.356030     0.832116     0.798351
Rotational constants in MHz : 130590.503556 24946.214666 23933.964297

                             ****ORCA TERMINATED NORMALLY****
TOTAL RUN TIME: 0 days 0 hours 6 minutes 10 seconds 42 msec
