                         Program Version 4.1.2  - RELEASE  -
|  1> #Run DFT-D3 single point of the dimer
|  2> ! wB97X-D3 def2-TZVP TIGHTSCF CHELPG PMODEL PAL8
|  3>
|  4> %base "1-6_DFT_AB"
|  5>
|  6> %scf
|  7> MaxIter 1000
|  8> end
|  9>
| 10> * xyz 0 1
| 11>   C                      9.200212             -0.043180            -9.565434
| 12>   O                      9.554774             -1.096549            -10.437954
| 13>   H                      8.810074             -1.397216            -10.963282
| 14>   H                      8.999381             0.938435             -10.111305
| 15>   H                      8.186143             -0.271036            -9.063142
| 16>   H                      9.978247             0.232531             -8.802907
| 17>   C                      8.306979             -1.199292            -5.182348
| 18>   O                      7.537905             -1.703815            -6.246899
| 19>   H                      7.832907             -1.390369            -7.097220
| 20>   H                      8.184739             -0.143854            -5.200148
| 21>   H                      8.096430             -1.585496            -4.205000
| 22>   H                      9.355720             -1.370345            -5.333518
| 23> *
| 24>
| 25> #Run DFT-D3 single point of the molecule with dimer basis set
| 26> $new_job
| 27> %base "1-6_DFT_A"
| 28> ! wB97X-D3 def2-TZVP TIGHTSCF CHELPG PMODEL
| 29>
| 30> %scf
| 31> MaxIter 1000
| 32> end
| 33>
| 34> * xyz 0 1
| 35>   C                      9.200212             -0.043180            -9.565434
| 36>   O                      9.554774             -1.096549            -10.437954
| 37>   H                      8.810074             -1.397216            -10.963282
| 38>   H                      8.999381             0.938435             -10.111305
| 39>   H                      8.186143             -0.271036            -9.063142
| 40>   H                      9.978247             0.232531             -8.802907
| 41>   C                    : 8.306979             -1.199292            -5.182348
| 42>   O                    : 7.537905             -1.703815            -6.246899
| 43>   H                    : 7.832907             -1.390369            -7.097220
| 44>   H                    : 8.184739             -0.143854            -5.200148
| 45>   H                    : 8.096430             -1.585496            -4.205000
| 46>   H                    : 9.355720             -1.370345            -5.333518
| 47> *
| 48>
| 49> #Run DFT-D3 single point of the particle with dimer basis set
| 50> $new_job
| 51> %base "1-6_DFT_B"
| 52> ! wB97X-D3 def2-TZVP TIGHTSCF CHELPG PMODEL
| 53>
| 54> %scf
| 55> MaxIter 1000
| 56> end
| 57>
| 58> * xyz 0 1
| 59>   C                    : 9.200212             -0.043180            -9.565434
| 60>   O                    : 9.554774             -1.096549            -10.437954
| 61>   H                    : 8.810074             -1.397216            -10.963282
| 62>   H                    : 8.999381             0.938435             -10.111305
| 63>   H                    : 8.186143             -0.271036            -9.063142
| 64>   H                    : 9.978247             0.232531             -8.802907
| 65>   C                      8.306979             -1.199292            -5.182348
| 66>   O                      7.537905             -1.703815            -6.246899
| 67>   H                      7.832907             -1.390369            -7.097220
| 68>   H                      8.184739             -0.143854            -5.200148
| 69>   H                      8.096430             -1.585496            -4.205000
| 70>   H                      9.355720             -1.370345            -5.333518
| 71> *
| 72>
| 73>                          ****END OF INPUT****
 Total Charge           Charge          ....    0
 Multiplicity           Mult            ....    1
 Number of Electrons    NEL             ....   36
Dispersion correction           -0.001353530
FINAL SINGLE POINT ENERGY      -231.462294488924
Dispersion correction           -0.000274072
FINAL SINGLE POINT ENERGY      -115.730037743683

CARTESIAN COORDINATES (ANGSTROEM)
---------------------------------
  C      9.200212   -0.043180   -9.565434
  O      9.554774   -1.096549  -10.437954
  H      8.810074   -1.397216  -10.963282
  H      8.999381    0.938435  -10.111305
  H      8.186143   -0.271036   -9.063142
  H      9.978247    0.232531   -8.802907
  C      8.306979   -1.199292   -5.182348
  O      7.537905   -1.703815   -6.246899
  H      7.832907   -1.390369   -7.097220
  H      8.184739   -0.143854   -5.200148
  H      8.096430   -1.585496   -4.205000
  H      9.355720   -1.370345   -5.333518

 Multiplicity           Mult            ....    1
 Number of Electrons    NEL             ....   18
 Basis Dimension        Dim             ....  172

ORBITAL ENERGIES
----------------

  NO   OCC          E(Eh)            E(eV)
   0   2.0000     -19.225176      -523.1436
   1   2.0000     -10.305288      -280.4211
   2   2.0000      -1.135359       -30.8947
   3   2.0000      -0.803835       -21.8735
   4   2.0000      -0.614734       -16.7278
   5   2.0000      -0.548140       -14.9157
   6   2.0000      -0.534043       -14.5321
   7   2.0000      -0.426974       -11.6186
   8   2.0000      -0.369783       -10.0623
   9   0.0000       0.070687         1.9235
  10   0.0000       0.128099         3.4857
  11   0.0000       0.151297         4.1170
  12   0.0000       0.164852         4.4859
  13   0.0000       0.183343         4.9890

MULLIKEN ATOMIC CHARGES
-----------------------
   0 C :   -0.001422
   1 O :    0.000127
   2 H :    0.000012
   3 H :   -0.000083
   4 H :   -0.002084
   5 H :    0.000278
   6 C :   -0.152719
   7 O :   -0.489468
   8 H :    0.318382
   9 H :    0.104916
  10 H :    0.121376
  11 H :    0.100685
Sum of atomic charges:   -0.0000000

LOEWDIN ATOMIC CHARGES
----------------------
   0 C :   -0.002857
   1 O :   -0.000011
   2 H :   -0.000004
   3 H :   -0.000030
   4 H :   -0.003412
   5 H :   -0.000150
   6 C :   -0.376102
   7 O :   -0.070065
   8 H :    0.164972
   9 H :    0.091195
  10 H :    0.104937
  11 H :    0.091526

  Mayer bond orders larger than 0.1
B(  6-C ,  7-O ) :   0.9791 B(  6-C ,  9-H ) :   0.9876 B(  6-C , 10-H ) :   0.9703
B(  6-C , 11-H ) :   0.9811 B(  7-O ,  8-H ) :   0.8994

Dispersion correction           -0.000227317
FINAL SINGLE POINT ENERGY      -115.731345988813

DIPOLE MOMENT
-------------
                                X             Y             Z
Electronic contribution:     -1.11193      -0.77908      -1.18209
Nuclear contribution   :      1.63364       1.19335       1.07990
                        -----------------------------------------
Total Dipole Moment    :      0.52171       0.41427      -0.10219
                        -----------------------------------------
Magnitude (a.u.)       :      0.67397
Magnitude (Debye)      :      1.71310

Rotational constants in cm-1:     4.600763     0.835371     0.805533
Rotational constants in MHz : 137927.406602 25043.804389 24149.286081

                             ****ORCA TERMINATED NORMALLY****
TOTAL RUN TIME: 0 days 0 hours 5 minutes 44 seconds 125 msec
