                         Program Version 4.1.2  - RELEASE  -
|  1> #Run DFT-D3 single point of the dimer
|  2> ! wB97X-D3 def2-TZVP TIGHTSCF CHELPG PMODEL PAL8
|  3>
|  4> %base "13-201_DFT_AB"
|  5>
|  6> %scf
|  7> MaxIter 1000
|  8> end
|  9>
| 10> * xyz 0 1
| 11>   C                      3.430092             -1.192626            2.065246
| 12>   O                      2.789394             -1.440383            3.271237
| 13>   H                      2.279054             -0.679949            3.535481
| 14>   H                      4.032795             -1.946773            1.773120
| 15>   H                      2.727652             -0.932789            1.217253
| 16>   H                      4.034279             -0.301592            2.073270
| 17>   C                      5.373942             -1.129285            4.694461
| 18>   O                      4.224974             -1.272723            5.530153
| 19>   H                      3.640740             -1.777807            4.982052
| 20>   H                      5.386971             -1.888202            3.956504
| 21>   H                      5.324224             -0.209936            4.139052
| 22>   H                      6.365160             -1.008160            5.245248
| 23> *
| 24>
| 25> #Run DFT-D3 single point of the molecule with dimer basis set
| 26> $new_job
| 27> %base "13-201_DFT_A"
| 28> ! wB97X-D3 def2-TZVP TIGHTSCF CHELPG PMODEL
| 29>
| 30> %scf
| 31> MaxIter 1000
| 32> end
| 33>
| 34> * xyz 0 1
| 35>   C                      3.430092             -1.192626            2.065246
| 36>   O                      2.789394             -1.440383            3.271237
| 37>   H                      2.279054             -0.679949            3.535481
| 38>   H                      4.032795             -1.946773            1.773120
| 39>   H                      2.727652             -0.932789            1.217253
| 40>   H                      4.034279             -0.301592            2.073270
| 41>   C                    : 5.373942             -1.129285            4.694461
| 42>   O                    : 4.224974             -1.272723            5.530153
| 43>   H                    : 3.640740             -1.777807            4.982052
| 44>   H                    : 5.386971             -1.888202            3.956504
| 45>   H                    : 5.324224             -0.209936            4.139052
| 46>   H                    : 6.365160             -1.008160            5.245248
| 47> *
| 48>
| 49> #Run DFT-D3 single point of the particle with dimer basis set
| 50> $new_job
| 51> %base "13-201_DFT_B"
| 52> ! wB97X-D3 def2-TZVP TIGHTSCF CHELPG PMODEL
| 53>
| 54> %scf
| 55> MaxIter 1000
| 56> end
| 57>
| 58> * xyz 0 1
| 59>   C                    : 3.430092             -1.192626            2.065246
| 60>   O                    : 2.789394             -1.440383            3.271237
| 61>   H                    : 2.279054             -0.679949            3.535481
| 62>   H                    : 4.032795             -1.946773            1.773120
| 63>   H                    : 2.727652             -0.932789            1.217253
| 64>   H                    : 4.034279             -0.301592            2.073270
| 65>   C                      5.373942             -1.129285            4.694461
| 66>   O                      4.224974             -1.272723            5.530153
| 67>   H                      3.640740             -1.777807            4.982052
| 68>   H                      5.386971             -1.888202            3.956504
| 69>   H                      5.324224             -0.209936            4.139052
| 70>   H                      6.365160             -1.008160            5.245248
| 71> *
| 72>
| 73>                          ****END OF INPUT****
 Total Charge           Charge          ....    0
 Multiplicity           Mult            ....    1
 Number of Electrons    NEL             ....   36
Dispersion correction           -0.002485308
FINAL SINGLE POINT ENERGY      -231.463839070708
Dispersion correction           -0.000235054
FINAL SINGLE POINT ENERGY      -115.729624562143

CARTESIAN COORDINATES (ANGSTROEM)
---------------------------------
  C      3.430092   -1.192626    2.065246
  O      2.789394   -1.440383    3.271237
  H      2.279054   -0.679949    3.535481
  H      4.032795   -1.946773    1.773120
  H      2.727652   -0.932789    1.217253
  H      4.034279   -0.301592    2.073270
  C      5.373942   -1.129285    4.694461
  O      4.224974   -1.272723    5.530153
  H      3.640740   -1.777807    4.982052
  H      5.386971   -1.888202    3.956504
  H      5.324224   -0.209936    4.139052
  H      6.365160   -1.008160    5.245248

 Multiplicity           Mult            ....    1
 Number of Electrons    NEL             ....   18
 Basis Dimension        Dim             ....  172

ORBITAL ENERGIES
----------------

  NO   OCC          E(Eh)            E(eV)
   0   2.0000     -19.232821      -523.3517
   1   2.0000     -10.314262      -280.6653
   2   2.0000      -1.140030       -31.0218
   3   2.0000      -0.797012       -21.6878
   4   2.0000      -0.614928       -16.7330
   5   2.0000      -0.538905       -14.6644
   6   2.0000      -0.525076       -14.2881
   7   2.0000      -0.446009       -12.1365
   8   2.0000      -0.372539       -10.1373
   9   0.0000       0.074928         2.0389
  10   0.0000       0.131150         3.5688
  11   0.0000       0.147774         4.0211
  12   0.0000       0.166397         4.5279
  13   0.0000       0.192152         5.2287

MULLIKEN ATOMIC CHARGES
-----------------------
   0 C :    0.000679
   1 O :   -0.009703
   2 H :   -0.003195
   3 H :   -0.000739
   4 H :   -0.000167
   5 H :   -0.000495
   6 C :   -0.180703
   7 O :   -0.454568
   8 H :    0.313353
   9 H :    0.111719
  10 H :    0.102823
  11 H :    0.120996
Sum of atomic charges:   -0.0000000

LOEWDIN ATOMIC CHARGES
----------------------
   0 C :   -0.015233
   1 O :   -0.024756
   2 H :   -0.005180
   3 H :   -0.001801
   4 H :   -0.000098
   5 H :   -0.003830
   6 C :   -0.366091
   7 O :   -0.060381
   8 H :    0.170447
   9 H :    0.093710
  10 H :    0.096986
  11 H :    0.116228

  Mayer bond orders larger than 0.1
B(  6-C ,  7-O ) :   0.9994 B(  6-C ,  9-H ) :   0.9908 B(  6-C , 10-H ) :   0.9797
B(  6-C , 11-H ) :   0.9691 B(  7-O ,  8-H ) :   0.9068

Dispersion correction           -0.000236431
FINAL SINGLE POINT ENERGY      -115.729813130939

DIPOLE MOMENT
-------------
                                X             Y             Z
Electronic contribution:     -1.41286      -0.21270       1.24541
Nuclear contribution   :      1.50616      -0.03308      -1.93265
                        -----------------------------------------
Total Dipole Moment    :      0.09330      -0.24578      -0.68723
                        -----------------------------------------
Magnitude (a.u.)       :      0.73580
Magnitude (Debye)      :      1.87026

Rotational constants in cm-1:     4.362981     0.826527     0.784460
Rotational constants in MHz : 130798.892738 24778.664760 23517.511379

                             ****ORCA TERMINATED NORMALLY****
TOTAL RUN TIME: 0 days 0 hours 1 minutes 7 seconds 623 msec
