                         Program Version 4.1.2  - RELEASE  -
|  1> #Run DFT-D3 single point of the dimer
|  2> ! wB97X-D3 def2-TZVP TIGHTSCF CHELPG PMODEL PAL8
|  3>
|  4> %base "20-40_DFT_AB"
|  5>
|  6> %scf
|  7> MaxIter 1000
|  8> end
|  9>
| 10> * xyz 0 1
| 11>   C                      -6.460874            11.317236            1.150653
| 12>   O                      -5.386241            11.510456            1.972449
| 13>   H                      -4.744983            10.797700            1.904435
| 14>   H                      -6.718436            10.244920            1.063984
| 15>   H                      -7.330148            11.972840            1.477804
| 16>   H                      -6.265406            11.552220            0.117566
| 17>   C                      -7.167208            10.095770            -3.714431
| 18>   O                      -7.763152            11.317392            -4.150616
| 19>   H                      -7.193603            11.520236            -4.914687
| 20>   H                      -7.847696            9.690456             -2.955684
| 21>   H                      -7.204101            9.457529             -4.520610
| 22>   H                      -6.121541            10.163548            -3.417673
| 23> *
| 24>
| 25> #Run DFT-D3 single point of the molecule with dimer basis set
| 26> $new_job
| 27> %base "20-40_DFT_A"
| 28> ! wB97X-D3 def2-TZVP TIGHTSCF CHELPG PMODEL
| 29>
| 30> %scf
| 31> MaxIter 1000
| 32> end
| 33>
| 34> * xyz 0 1
| 35>   C                      -6.460874            11.317236            1.150653
| 36>   O                      -5.386241            11.510456            1.972449
| 37>   H                      -4.744983            10.797700            1.904435
| 38>   H                      -6.718436            10.244920            1.063984
| 39>   H                      -7.330148            11.972840            1.477804
| 40>   H                      -6.265406            11.552220            0.117566
| 41>   C                    : -7.167208            10.095770            -3.714431
| 42>   O                    : -7.763152            11.317392            -4.150616
| 43>   H                    : -7.193603            11.520236            -4.914687
| 44>   H                    : -7.847696            9.690456             -2.955684
| 45>   H                    : -7.204101            9.457529             -4.520610
| 46>   H                    : -6.121541            10.163548            -3.417673
| 47> *
| 48>
| 49> #Run DFT-D3 single point of the particle with dimer basis set
| 50> $new_job
| 51> %base "20-40_DFT_B"
| 52> ! wB97X-D3 def2-TZVP TIGHTSCF CHELPG PMODEL
| 53>
| 54> %scf
| 55> MaxIter 1000
| 56> end
| 57>
| 58> * xyz 0 1
| 59>   C                    : -6.460874            11.317236            1.150653
| 60>   O                    : -5.386241            11.510456            1.972449
| 61>   H                    : -4.744983            10.797700            1.904435
| 62>   H                    : -6.718436            10.244920            1.063984
| 63>   H                    : -7.330148            11.972840            1.477804
| 64>   H                    : -6.265406            11.552220            0.117566
| 65>   C                      -7.167208            10.095770            -3.714431
| 66>   O                      -7.763152            11.317392            -4.150616
| 67>   H                      -7.193603            11.520236            -4.914687
| 68>   H                      -7.847696            9.690456             -2.955684
| 69>   H                      -7.204101            9.457529             -4.520610
| 70>   H                      -6.121541            10.163548            -3.417673
| 71> *
| 72>
| 73>                          ****END OF INPUT****
 Total Charge           Charge          ....    0
 Multiplicity           Mult            ....    1
 Number of Electrons    NEL             ....   36
Dispersion correction           -0.000738910
FINAL SINGLE POINT ENERGY      -231.461104371132
Dispersion correction           -0.000234421
FINAL SINGLE POINT ENERGY      -115.731535248250

CARTESIAN COORDINATES (ANGSTROEM)
---------------------------------
  C     -6.460874   11.317236    1.150653
  O     -5.386241   11.510456    1.972449
  H     -4.744983   10.797700    1.904435
  H     -6.718436   10.244920    1.063984
  H     -7.330148   11.972840    1.477804
  H     -6.265406   11.552220    0.117566
  C     -7.167208   10.095770   -3.714431
  O     -7.763152   11.317392   -4.150616
  H     -7.193603   11.520236   -4.914687
  H     -7.847696    9.690456   -2.955684
  H     -7.204101    9.457529   -4.520610
  H     -6.121541   10.163548   -3.417673

 Multiplicity           Mult            ....    1
 Number of Electrons    NEL             ....   18
 Basis Dimension        Dim             ....  172

ORBITAL ENERGIES
----------------

  NO   OCC          E(Eh)            E(eV)
   0   2.0000     -19.230814      -523.2971
   1   2.0000     -10.305475      -280.4262
   2   2.0000      -1.134024       -30.8584
   3   2.0000      -0.795848       -21.6561
   4   2.0000      -0.610705       -16.6181
   5   2.0000      -0.546364       -14.8673
   6   2.0000      -0.518161       -14.0999
   7   2.0000      -0.446107       -12.1392
   8   2.0000      -0.373404       -10.1608
   9   0.0000       0.087261         2.3745
  10   0.0000       0.112862         3.0711
  11   0.0000       0.153245         4.1700
  12   0.0000       0.167935         4.5697
  13   0.0000       0.190371         5.1803

MULLIKEN ATOMIC CHARGES
-----------------------
   0 C :   -0.000331
   1 O :    0.000008
   2 H :    0.000004
   3 H :   -0.000011
   4 H :    0.000002
   5 H :    0.000476
   6 C :   -0.176839
   7 O :   -0.467135
   8 H :    0.309108
   9 H :    0.119628
  10 H :    0.112792
  11 H :    0.102298
Sum of atomic charges:   -0.0000000

LOEWDIN ATOMIC CHARGES
----------------------
   0 C :   -0.000076
   1 O :   -0.000002
   2 H :   -0.000000
   3 H :   -0.000028
   4 H :   -0.000001
   5 H :   -0.000038
   6 C :   -0.373592
   7 O :   -0.092649
   8 H :    0.177829
   9 H :    0.112572
  10 H :    0.081738
  11 H :    0.094247

  Mayer bond orders larger than 0.1
B(  6-C ,  7-O ) :   0.9918 B(  6-C ,  9-H ) :   0.9757 B(  6-C , 10-H ) :   0.9872
B(  6-C , 11-H ) :   0.9680 B(  7-O ,  8-H ) :   0.9057

Dispersion correction           -0.000206812
FINAL SINGLE POINT ENERGY      -115.729294016483

DIPOLE MOMENT
-------------
                                X             Y             Z
Electronic contribution:     -0.79051       1.52929      -0.35514
Nuclear contribution   :      1.35970      -1.91223       0.03465
                        -----------------------------------------
Total Dipole Moment    :      0.56919      -0.38294      -0.32049
                        -----------------------------------------
Magnitude (a.u.)       :      0.75719
Magnitude (Debye)      :      1.92462

Rotational constants in cm-1:     4.272610     0.844197     0.801698
Rotational constants in MHz : 128089.613181 25308.403147 24034.305777

                             ****ORCA TERMINATED NORMALLY****
TOTAL RUN TIME: 0 days 0 hours 1 minutes 7 seconds 255 msec
