                         Program Version 4.1.2  - RELEASE  -
|  1> #Run DFT-D3 single point of the dimer
|  2> ! wB97X-D3 def2-TZVP TIGHTSCF CHELPG PMODEL PAL8
|  3>
|  4> %base "7-90_DFT_AB"
|  5>
|  6> %scf
|  7> MaxIter 1000
|  8> end
|  9>
| 10> * xyz 0 1
| 11>   C                      -4.531715            -3.327488            3.855180
| 12>   O                      -5.285925            -4.508734            4.030222
| 13>   H                      -4.623814            -5.225967            3.998889
| 14>   H                      -4.056107            -3.085744            4.805620
| 15>   H                      -3.844368            -3.437728            3.013197
| 16>   H                      -5.163979            -2.483007            3.642173
| 17>   C                      -3.822088            -6.871713            6.537314
| 18>   O                      -3.235717            -6.344426            5.348432
| 19>   H                      -3.302190            -7.080030            4.760538
| 20>   H                      -3.472356            -6.333496            7.412923
| 21>   H                      -4.918826            -6.796098            6.402369
| 22>   H                      -3.543735            -7.890104            6.788116
| 23> *
| 24>
| 25> #Run DFT-D3 single point of the molecule with dimer basis set
| 26> $new_job
| 27> %base "7-90_DFT_A"
| 28> ! wB97X-D3 def2-TZVP TIGHTSCF CHELPG PMODEL
| 29>
| 30> %scf
| 31> MaxIter 1000
| 32> end
| 33>
| 34> * xyz 0 1
| 35>   C                      -4.531715            -3.327488            3.855180
| 36>   O                      -5.285925            -4.508734            4.030222
| 37>   H                      -4.623814            -5.225967            3.998889
| 38>   H                      -4.056107            -3.085744            4.805620
| 39>   H                      -3.844368            -3.437728            3.013197
| 40>   H                      -5.163979            -2.483007            3.642173
| 41>   C                    : -3.822088            -6.871713            6.537314
| 42>   O                    : -3.235717            -6.344426            5.348432
| 43>   H                    : -3.302190            -7.080030            4.760538
| 44>   H                    : -3.472356            -6.333496            7.412923
| 45>   H                    : -4.918826            -6.796098            6.402369
| 46>   H                    : -3.543735            -7.890104            6.788116
| 47> *
| 48>
| 49> #Run DFT-D3 single point of the particle with dimer basis set
| 50> $new_job
| 51> %base "7-90_DFT_B"
| 52> ! wB97X-D3 def2-TZVP TIGHTSCF CHELPG PMODEL
| 53>
| 54> %scf
| 55> MaxIter 1000
| 56> end
| 57>
| 58> * xyz 0 1
| 59>   C                    : -4.531715            -3.327488            3.855180
| 60>   O                    : -5.285925            -4.508734            4.030222
| 61>   H                    : -4.623814            -5.225967            3.998889
| 62>   H                    : -4.056107            -3.085744            4.805620
| 63>   H                    : -3.844368            -3.437728            3.013197
| 64>   H                    : -5.163979            -2.483007            3.642173
| 65>   C                      -3.822088            -6.871713            6.537314
| 66>   O                      -3.235717            -6.344426            5.348432
| 67>   H                      -3.302190            -7.080030            4.760538
| 68>   H                      -3.472356            -6.333496            7.412923
| 69>   H                      -4.918826            -6.796098            6.402369
| 70>   H                      -3.543735            -7.890104            6.788116
| 71> *
| 72>
| 73>                          ****END OF INPUT****
 Total Charge           Charge          ....    0
 Multiplicity           Mult            ....    1
 Number of Electrons    NEL             ....   36
Dispersion correction           -0.001743817
FINAL SINGLE POINT ENERGY      -231.473057168778
Dispersion correction           -0.000221102
FINAL SINGLE POINT ENERGY      -115.735102999716

CARTESIAN COORDINATES (ANGSTROEM)
---------------------------------
  C     -4.531715   -3.327488    3.855180
  O     -5.285925   -4.508734    4.030222
  H     -4.623814   -5.225967    3.998889
  H     -4.056107   -3.085744    4.805620
  H     -3.844368   -3.437728    3.013197
  H     -5.163979   -2.483007    3.642173
  C     -3.822088   -6.871713    6.537314
  O     -3.235717   -6.344426    5.348432
  H     -3.302190   -7.080030    4.760538
  H     -3.472356   -6.333496    7.412923
  H     -4.918826   -6.796098    6.402369
  H     -3.543735   -7.890104    6.788116

 Multiplicity           Mult            ....    1
 Number of Electrons    NEL             ....   18
 Basis Dimension        Dim             ....  172

ORBITAL ENERGIES
----------------

  NO   OCC          E(Eh)            E(eV)
   0   2.0000     -19.231978      -523.3287
   1   2.0000     -10.313906      -280.6557
   2   2.0000      -1.141016       -31.0486
   3   2.0000      -0.795885       -21.6571
   4   2.0000      -0.609735       -16.5917
   5   2.0000      -0.550736       -14.9863
   6   2.0000      -0.519423       -14.1342
   7   2.0000      -0.441111       -12.0032
   8   2.0000      -0.376564       -10.2468
   9   0.0000       0.097861         2.6629
  10   0.0000       0.126085         3.4309
  11   0.0000       0.154653         4.2083
  12   0.0000       0.180409         4.9092
  13   0.0000       0.195953         5.3321

MULLIKEN ATOMIC CHARGES
-----------------------
   0 C :    0.005653
   1 O :    0.002849
   2 H :   -0.019716
   3 H :   -0.002460
   4 H :   -0.000745
   5 H :   -0.000105
   6 C :   -0.181469
   7 O :   -0.449982
   8 H :    0.311399
   9 H :    0.118854
  10 H :    0.109441
  11 H :    0.106282
Sum of atomic charges:    0.0000000

LOEWDIN ATOMIC CHARGES
----------------------
   0 C :   -0.003745
   1 O :   -0.003583
   2 H :   -0.023638
   3 H :   -0.000847
   4 H :   -0.000188
   5 H :   -0.000047
   6 C :   -0.379941
   7 O :   -0.051126
   8 H :    0.161801
   9 H :    0.106129
  10 H :    0.101169
  11 H :    0.094017

  Mayer bond orders larger than 0.1
B(  6-C ,  7-O ) :   0.9978 B(  6-C ,  9-H ) :   0.9735 B(  6-C , 10-H ) :   0.9799
B(  6-C , 11-H ) :   0.9729 B(  7-O ,  8-H ) :   0.9054

Dispersion correction           -0.000228393
FINAL SINGLE POINT ENERGY      -115.733194882236

DIPOLE MOMENT
-------------
                                X             Y             Z
Electronic contribution:      0.81678       0.79988      -1.45026
Nuclear contribution   :     -1.05238      -1.48646       1.57521
                        -----------------------------------------
Total Dipole Moment    :     -0.23561      -0.68658       0.12495
                        -----------------------------------------
Magnitude (a.u.)       :      0.73655
Magnitude (Debye)      :      1.87217

Rotational constants in cm-1:     4.284620     0.822448     0.801085
Rotational constants in MHz : 128449.666912 24656.374461 24015.915254

                             ****ORCA TERMINATED NORMALLY****
TOTAL RUN TIME: 0 days 0 hours 1 minutes 2 seconds 2 msec
