                         Program Version 4.1.2  - RELEASE  -
|  1> #Run DFT-D3 single point of the dimer
|  2> ! wB97X-D3 def2-TZVP TIGHTSCF CHELPG PMODEL PAL8
|  3>
|  4> %base "18-92_DFT_AB"
|  5>
|  6> %scf
|  7> MaxIter 1000
|  8> end
|  9>
| 10> * xyz 0 1
| 11>   C                      6.893320             -10.876934           1.764212
| 12>   O                      8.038290             -11.623634           1.861776
| 13>   H                      8.174678             -11.814343           2.798983
| 14>   H                      6.119502             -10.972052           2.513738
| 15>   H                      7.098717             -9.827807            1.908222
| 16>   H                      6.424330             -11.063992           0.828174
| 17>   C                      6.430916             -8.552411            -1.489255
| 18>   O                      6.868516             -9.819716            -2.040261
| 19>   H                      7.680427             -9.616635            -2.544591
| 20>   H                      5.535664             -8.670275            -0.881404
| 21>   H                      7.250177             -8.131062            -0.814206
| 22>   H                      6.147152             -7.774020            -2.250141
| 23> *
| 24>
| 25> #Run DFT-D3 single point of the molecule with dimer basis set
| 26> $new_job
| 27> %base "18-92_DFT_A"
| 28> ! wB97X-D3 def2-TZVP TIGHTSCF CHELPG PMODEL
| 29>
| 30> %scf
| 31> MaxIter 1000
| 32> end
| 33>
| 34> * xyz 0 1
| 35>   C                      6.893320             -10.876934           1.764212
| 36>   O                      8.038290             -11.623634           1.861776
| 37>   H                      8.174678             -11.814343           2.798983
| 38>   H                      6.119502             -10.972052           2.513738
| 39>   H                      7.098717             -9.827807            1.908222
| 40>   H                      6.424330             -11.063992           0.828174
| 41>   C                    : 6.430916             -8.552411            -1.489255
| 42>   O                    : 6.868516             -9.819716            -2.040261
| 43>   H                    : 7.680427             -9.616635            -2.544591
| 44>   H                    : 5.535664             -8.670275            -0.881404
| 45>   H                    : 7.250177             -8.131062            -0.814206
| 46>   H                    : 6.147152             -7.774020            -2.250141
| 47> *
| 48>
| 49> #Run DFT-D3 single point of the particle with dimer basis set
| 50> $new_job
| 51> %base "18-92_DFT_B"
| 52> ! wB97X-D3 def2-TZVP TIGHTSCF CHELPG PMODEL
| 53>
| 54> %scf
| 55> MaxIter 1000
| 56> end
| 57>
| 58> * xyz 0 1
| 59>   C                    : 6.893320             -10.876934           1.764212
| 60>   O                    : 8.038290             -11.623634           1.861776
| 61>   H                    : 8.174678             -11.814343           2.798983
| 62>   H                    : 6.119502             -10.972052           2.513738
| 63>   H                    : 7.098717             -9.827807            1.908222
| 64>   H                    : 6.424330             -11.063992           0.828174
| 65>   C                      6.430916             -8.552411            -1.489255
| 66>   O                      6.868516             -9.819716            -2.040261
| 67>   H                      7.680427             -9.616635            -2.544591
| 68>   H                      5.535664             -8.670275            -0.881404
| 69>   H                      7.250177             -8.131062            -0.814206
| 70>   H                      6.147152             -7.774020            -2.250141
| 71> *
| 72>
| 73>                          ****END OF INPUT****
 Total Charge           Charge          ....    0
 Multiplicity           Mult            ....    1
 Number of Electrons    NEL             ....   36
Dispersion correction           -0.001539678
FINAL SINGLE POINT ENERGY      -231.464530418481
Dispersion correction           -0.000228529
FINAL SINGLE POINT ENERGY      -115.730156107288

CARTESIAN COORDINATES (ANGSTROEM)
---------------------------------
  C      6.893320  -10.876934    1.764212
  O      8.038290  -11.623634    1.861776
  H      8.174678  -11.814343    2.798983
  H      6.119502  -10.972052    2.513738
  H      7.098717   -9.827807    1.908222
  H      6.424330  -11.063992    0.828174
  C      6.430916   -8.552411   -1.489255
  O      6.868516   -9.819716   -2.040261
  H      7.680427   -9.616635   -2.544591
  H      5.535664   -8.670275   -0.881404
  H      7.250177   -8.131062   -0.814206
  H      6.147152   -7.774020   -2.250141

 Multiplicity           Mult            ....    1
 Number of Electrons    NEL             ....   18
 Basis Dimension        Dim             ....  172

ORBITAL ENERGIES
----------------

  NO   OCC          E(Eh)            E(eV)
   0   2.0000     -19.235738      -523.4310
   1   2.0000     -10.324008      -280.9306
   2   2.0000      -1.125518       -30.6269
   3   2.0000      -0.790472       -21.5098
   4   2.0000      -0.599872       -16.3234
   5   2.0000      -0.534399       -14.5417
   6   2.0000      -0.522677       -14.2228
   7   2.0000      -0.436920       -11.8892
   8   2.0000      -0.375620       -10.2212
   9   0.0000       0.089798         2.4435
  10   0.0000       0.117295         3.1918
  11   0.0000       0.144864         3.9420
  12   0.0000       0.174580         4.7506
  13   0.0000       0.188176         5.1205

MULLIKEN ATOMIC CHARGES
-----------------------
   0 C :   -0.000381
   1 O :    0.000156
   2 H :    0.000009
   3 H :    0.000038
   4 H :   -0.000789
   5 H :   -0.001133
   6 C :   -0.194165
   7 O :   -0.471436
   8 H :    0.316063
   9 H :    0.128728
  10 H :    0.109499
  11 H :    0.113412
Sum of atomic charges:   -0.0000000

LOEWDIN ATOMIC CHARGES
----------------------
   0 C :   -0.002194
   1 O :   -0.000031
   2 H :   -0.000003
   3 H :   -0.000023
   4 H :   -0.000497
   5 H :   -0.002078
   6 C :   -0.377816
   7 O :   -0.106387
   8 H :    0.177861
   9 H :    0.106368
  10 H :    0.104271
  11 H :    0.100529

  Mayer bond orders larger than 0.1
B(  6-C ,  7-O ) :   0.9892 B(  6-C ,  9-H ) :   0.9734 B(  6-C , 10-H ) :   0.9776
B(  6-C , 11-H ) :   0.9638 B(  7-O ,  8-H ) :   0.8977

Dispersion correction           -0.000270722
FINAL SINGLE POINT ENERGY      -115.733369770772

DIPOLE MOMENT
-------------
                                X             Y             Z
Electronic contribution:      0.39126      -1.74789      -0.68237
Nuclear contribution   :     -0.08743       2.37973       0.59124
                        -----------------------------------------
Total Dipole Moment    :      0.30383       0.63184      -0.09113
                        -----------------------------------------
Magnitude (a.u.)       :      0.70699
Magnitude (Debye)      :      1.79703

Rotational constants in cm-1:     4.141062     0.788165     0.764517
Rotational constants in MHz : 124145.924493 23628.584450 22919.648891

                             ****ORCA TERMINATED NORMALLY****
TOTAL RUN TIME: 0 days 0 hours 1 minutes 4 seconds 682 msec
