                         Program Version 4.1.2  - RELEASE  -
|  1> #Run DFT-D3 single point of the dimer
|  2> ! wB97X-D3 def2-TZVP TIGHTSCF CHELPG PMODEL PAL8
|  3>
|  4> %base "15-148_DFT_AB"
|  5>
|  6> %scf
|  7> MaxIter 1000
|  8> end
|  9>
| 10> * xyz 0 1
| 11>   C                      7.303674             0.687426             6.517185
| 12>   O                      7.707774             1.463133             5.439199
| 13>   H                      7.376451             2.362845             5.531690
| 14>   H                      7.904835             -0.202361            6.651812
| 15>   H                      7.412063             1.245180             7.486515
| 16>   H                      6.233770             0.467527             6.340801
| 17>   C                      6.117011             -0.537824            2.319645
| 18>   O                      6.705269             -0.410618            1.052811
| 19>   H                      7.634214             -0.345952            1.299747
| 20>   H                      6.282751             0.344865             2.953731
| 21>   H                      5.042268             -0.805252            2.201874
| 22>   H                      6.552636             -1.415495            2.782392
| 23> *
| 24>
| 25> #Run DFT-D3 single point of the molecule with dimer basis set
| 26> $new_job
| 27> %base "15-148_DFT_A"
| 28> ! wB97X-D3 def2-TZVP TIGHTSCF CHELPG PMODEL
| 29>
| 30> %scf
| 31> MaxIter 1000
| 32> end
| 33>
| 34> * xyz 0 1
| 35>   C                      7.303674             0.687426             6.517185
| 36>   O                      7.707774             1.463133             5.439199
| 37>   H                      7.376451             2.362845             5.531690
| 38>   H                      7.904835             -0.202361            6.651812
| 39>   H                      7.412063             1.245180             7.486515
| 40>   H                      6.233770             0.467527             6.340801
| 41>   C                    : 6.117011             -0.537824            2.319645
| 42>   O                    : 6.705269             -0.410618            1.052811
| 43>   H                    : 7.634214             -0.345952            1.299747
| 44>   H                    : 6.282751             0.344865             2.953731
| 45>   H                    : 5.042268             -0.805252            2.201874
| 46>   H                    : 6.552636             -1.415495            2.782392
| 47> *
| 48>
| 49> #Run DFT-D3 single point of the particle with dimer basis set
| 50> $new_job
| 51> %base "15-148_DFT_B"
| 52> ! wB97X-D3 def2-TZVP TIGHTSCF CHELPG PMODEL
| 53>
| 54> %scf
| 55> MaxIter 1000
| 56> end
| 57>
| 58> * xyz 0 1
| 59>   C                    : 7.303674             0.687426             6.517185
| 60>   O                    : 7.707774             1.463133             5.439199
| 61>   H                    : 7.376451             2.362845             5.531690
| 62>   H                    : 7.904835             -0.202361            6.651812
| 63>   H                    : 7.412063             1.245180             7.486515
| 64>   H                    : 6.233770             0.467527             6.340801
| 65>   C                      6.117011             -0.537824            2.319645
| 66>   O                      6.705269             -0.410618            1.052811
| 67>   H                      7.634214             -0.345952            1.299747
| 68>   H                      6.282751             0.344865             2.953731
| 69>   H                      5.042268             -0.805252            2.201874
| 70>   H                      6.552636             -1.415495            2.782392
| 71> *
| 72>
| 73>                          ****END OF INPUT****
 Total Charge           Charge          ....    0
 Multiplicity           Mult            ....    1
 Number of Electrons    NEL             ....   36
Dispersion correction           -0.001171365
FINAL SINGLE POINT ENERGY      -231.468375250314
Dispersion correction           -0.000226494
FINAL SINGLE POINT ENERGY      -115.733508306584

CARTESIAN COORDINATES (ANGSTROEM)
---------------------------------
  C      7.303674    0.687426    6.517185
  O      7.707774    1.463133    5.439199
  H      7.376451    2.362845    5.531690
  H      7.904835   -0.202361    6.651812
  H      7.412063    1.245180    7.486515
  H      6.233770    0.467527    6.340801
  C      6.117011   -0.537824    2.319645
  O      6.705269   -0.410618    1.052811
  H      7.634214   -0.345952    1.299747
  H      6.282751    0.344865    2.953731
  H      5.042268   -0.805252    2.201874
  H      6.552636   -1.415495    2.782392

 Multiplicity           Mult            ....    1
 Number of Electrons    NEL             ....   18
 Basis Dimension        Dim             ....  172

ORBITAL ENERGIES
----------------

  NO   OCC          E(Eh)            E(eV)
   0   2.0000     -19.230519      -523.2890
   1   2.0000     -10.313217      -280.6369
   2   2.0000      -1.144395       -31.1406
   3   2.0000      -0.788632       -21.4598
   4   2.0000      -0.610788       -16.6204
   5   2.0000      -0.549873       -14.9628
   6   2.0000      -0.523875       -14.2554
   7   2.0000      -0.437850       -11.9145
   8   2.0000      -0.372767       -10.1435
   9   0.0000       0.078170         2.1271
  10   0.0000       0.115211         3.1350
  11   0.0000       0.155569         4.2333
  12   0.0000       0.157100         4.2749
  13   0.0000       0.189744         5.1632

MULLIKEN ATOMIC CHARGES
-----------------------
   0 C :   -0.000442
   1 O :    0.000001
   2 H :   -0.000090
   3 H :    0.000025
   4 H :   -0.000022
   5 H :   -0.000130
   6 C :   -0.175219
   7 O :   -0.459944
   8 H :    0.313269
   9 H :    0.105119
  10 H :    0.115682
  11 H :    0.101751
Sum of atomic charges:    0.0000000

LOEWDIN ATOMIC CHARGES
----------------------
   0 C :   -0.000877
   1 O :   -0.000986
   2 H :   -0.000234
   3 H :   -0.000028
   4 H :   -0.000012
   5 H :   -0.000259
   6 C :   -0.402352
   7 O :   -0.071594
   8 H :    0.175246
   9 H :    0.095406
  10 H :    0.112689
  11 H :    0.093000

  Mayer bond orders larger than 0.1
B(  6-C ,  7-O ) :   0.9973 B(  6-C ,  9-H ) :   0.9713 B(  6-C , 10-H ) :   0.9712
B(  6-C , 11-H ) :   0.9862 B(  7-O ,  8-H ) :   0.9037

Dispersion correction           -0.000206830
FINAL SINGLE POINT ENERGY      -115.732924559183

DIPOLE MOMENT
-------------
                                X             Y             Z
Electronic contribution:      0.58858       0.26202      -1.70632
Nuclear contribution   :     -0.24233      -0.29523       2.33091
                        -----------------------------------------
Total Dipole Moment    :      0.34625      -0.03321       0.62459
                        -----------------------------------------
Magnitude (a.u.)       :      0.71492
Magnitude (Debye)      :      1.81718

Rotational constants in cm-1:     4.146568     0.856998     0.822183
Rotational constants in MHz : 124310.976395 25692.144594 24648.428727

                             ****ORCA TERMINATED NORMALLY****
TOTAL RUN TIME: 0 days 0 hours 1 minutes 3 seconds 270 msec
