                         Program Version 4.1.2  - RELEASE  -
|  1> #Run DFT-D3 single point of the dimer
|  2> ! wB97X-D3 def2-TZVP TIGHTSCF CHELPG PMODEL PAL8
|  3>
|  4> %base "6-62_DFT_AB"
|  5>
|  6> %scf
|  7> MaxIter 1000
|  8> end
|  9>
| 10> * xyz 0 1
| 11>   C                      -6.106169            -7.139025            5.478536
| 12>   O                      -7.250673            -6.358448            5.904261
| 13>   H                      -7.580413            -5.854131            5.158850
| 14>   H                      -5.225424            -6.537199            5.228452
| 15>   H                      -5.853161            -7.888103            6.266709
| 16>   H                      -6.381485            -7.683977            4.536477
| 17>   C                      -5.980910            -6.072627            9.643054
| 18>   O                      -6.813412            -5.834637            10.689906
| 19>   H                      -7.673645            -6.189773            10.494568
| 20>   H                      -6.049551            -7.056883            9.235231
| 21>   H                      -6.180648            -5.286836            8.917874
| 22>   H                      -4.922055            -5.871984            9.914417
| 23> *
| 24>
| 25> #Run DFT-D3 single point of the molecule with dimer basis set
| 26> $new_job
| 27> %base "6-62_DFT_A"
| 28> ! wB97X-D3 def2-TZVP TIGHTSCF CHELPG PMODEL
| 29>
| 30> %scf
| 31> MaxIter 1000
| 32> end
| 33>
| 34> * xyz 0 1
| 35>   C                      -6.106169            -7.139025            5.478536
| 36>   O                      -7.250673            -6.358448            5.904261
| 37>   H                      -7.580413            -5.854131            5.158850
| 38>   H                      -5.225424            -6.537199            5.228452
| 39>   H                      -5.853161            -7.888103            6.266709
| 40>   H                      -6.381485            -7.683977            4.536477
| 41>   C                    : -5.980910            -6.072627            9.643054
| 42>   O                    : -6.813412            -5.834637            10.689906
| 43>   H                    : -7.673645            -6.189773            10.494568
| 44>   H                    : -6.049551            -7.056883            9.235231
| 45>   H                    : -6.180648            -5.286836            8.917874
| 46>   H                    : -4.922055            -5.871984            9.914417
| 47> *
| 48>
| 49> #Run DFT-D3 single point of the particle with dimer basis set
| 50> $new_job
| 51> %base "6-62_DFT_B"
| 52> ! wB97X-D3 def2-TZVP TIGHTSCF CHELPG PMODEL
| 53>
| 54> %scf
| 55> MaxIter 1000
| 56> end
| 57>
| 58> * xyz 0 1
| 59>   C                    : -6.106169            -7.139025            5.478536
| 60>   O                    : -7.250673            -6.358448            5.904261
| 61>   H                    : -7.580413            -5.854131            5.158850
| 62>   H                    : -5.225424            -6.537199            5.228452
| 63>   H                    : -5.853161            -7.888103            6.266709
| 64>   H                    : -6.381485            -7.683977            4.536477
| 65>   C                      -5.980910            -6.072627            9.643054
| 66>   O                      -6.813412            -5.834637            10.689906
| 67>   H                      -7.673645            -6.189773            10.494568
| 68>   H                      -6.049551            -7.056883            9.235231
| 69>   H                      -6.180648            -5.286836            8.917874
| 70>   H                      -4.922055            -5.871984            9.914417
| 71> *
| 72>
| 73>                          ****END OF INPUT****
 Total Charge           Charge          ....    0
 Multiplicity           Mult            ....    1
 Number of Electrons    NEL             ....   36
Dispersion correction           -0.001297258
FINAL SINGLE POINT ENERGY      -231.467608331911
Dispersion correction           -0.000261243
FINAL SINGLE POINT ENERGY      -115.734881481277

CARTESIAN COORDINATES (ANGSTROEM)
---------------------------------
  C     -6.106169   -7.139025    5.478536
  O     -7.250673   -6.358448    5.904261
  H     -7.580413   -5.854131    5.158850
  H     -5.225424   -6.537199    5.228452
  H     -5.853161   -7.888103    6.266709
  H     -6.381485   -7.683977    4.536477
  C     -5.980910   -6.072627    9.643054
  O     -6.813412   -5.834637   10.689906
  H     -7.673645   -6.189773   10.494568
  H     -6.049551   -7.056883    9.235231
  H     -6.180648   -5.286836    8.917874
  H     -4.922055   -5.871984    9.914417

 Multiplicity           Mult            ....    1
 Number of Electrons    NEL             ....   18
 Basis Dimension        Dim             ....  172

ORBITAL ENERGIES
----------------

  NO   OCC          E(Eh)            E(eV)
   0   2.0000     -19.226608      -523.1826
   1   2.0000     -10.305541      -280.4280
   2   2.0000      -1.154918       -31.4269
   3   2.0000      -0.795442       -21.6451
   4   2.0000      -0.621502       -16.9119
   5   2.0000      -0.554273       -15.0825
   6   2.0000      -0.534129       -14.5344
   7   2.0000      -0.426834       -11.6148
   8   2.0000      -0.367739       -10.0067
   9   0.0000       0.080564         2.1923
  10   0.0000       0.118797         3.2326
  11   0.0000       0.152021         4.1367
  12   0.0000       0.160612         4.3705
  13   0.0000       0.189709         5.1622

MULLIKEN ATOMIC CHARGES
-----------------------
   0 C :   -0.000891
   1 O :    0.000202
   2 H :   -0.000009
   3 H :    0.000067
   4 H :   -0.000505
   5 H :   -0.000035
   6 C :   -0.152941
   7 O :   -0.464437
   8 H :    0.315997
   9 H :    0.100871
  10 H :    0.094752
  11 H :    0.106930
Sum of atomic charges:   -0.0000000

LOEWDIN ATOMIC CHARGES
----------------------
   0 C :   -0.001265
   1 O :   -0.000557
   2 H :   -0.000058
   3 H :   -0.000043
   4 H :   -0.000770
   5 H :   -0.000019
   6 C :   -0.427038
   7 O :   -0.032705
   8 H :    0.168081
   9 H :    0.088796
  10 H :    0.094184
  11 H :    0.111394

  Mayer bond orders larger than 0.1
B(  6-C ,  7-O ) :   1.0058 B(  6-C ,  9-H ) :   0.9778 B(  6-C , 10-H ) :   0.9886
B(  6-C , 11-H ) :   0.9697 B(  7-O ,  8-H ) :   0.8971

Dispersion correction           -0.000212154
FINAL SINGLE POINT ENERGY      -115.731361558411

DIPOLE MOMENT
-------------
                                X             Y             Z
Electronic contribution:     -1.05756       0.21545       1.46054
Nuclear contribution   :      0.81422      -0.53841      -1.96211
                        -----------------------------------------
Total Dipole Moment    :     -0.24335      -0.32296      -0.50158
                        -----------------------------------------
Magnitude (a.u.)       :      0.64429
Magnitude (Debye)      :      1.63765

Rotational constants in cm-1:     4.376104     0.888286     0.856187
Rotational constants in MHz : 131192.283488 26630.143079 25667.844071

                             ****ORCA TERMINATED NORMALLY****
TOTAL RUN TIME: 0 days 0 hours 0 minutes 57 seconds 301 msec
