                         Program Version 4.1.2  - RELEASE  -
|  1> #Run DFT-D3 single point of the dimer
|  2> ! wB97X-D3 def2-TZVP TIGHTSCF CHELPG PMODEL PAL8
|  3>
|  4> %base "2-121_DFT_AB"
|  5>
|  6> %scf
|  7> MaxIter 1000
|  8> end
|  9>
| 10> * xyz 0 1
| 11>   C                      4.903913             0.406796             5.553629
| 12>   O                      4.965341             0.096374             6.927694
| 13>   H                      4.245651             0.443145             7.449929
| 14>   H                      3.890953             0.251996             5.036663
| 15>   H                      5.294555             1.436939             5.352639
| 16>   H                      5.521654             -0.336337            5.032475
| 17>   C                      8.183127             -1.590778            8.344374
| 18>   O                      9.134027             -1.824891            9.329483
| 19>   H                      8.751075             -1.529543            10.182636
| 20>   H                      7.735898             -0.566056            8.358222
| 21>   H                      8.580933             -1.749564            7.346575
| 22>   H                      7.375607             -2.287565            8.354644
| 23> *
| 24>
| 25> #Run DFT-D3 single point of the molecule with dimer basis set
| 26> $new_job
| 27> %base "2-121_DFT_A"
| 28> ! wB97X-D3 def2-TZVP TIGHTSCF CHELPG PMODEL
| 29>
| 30> %scf
| 31> MaxIter 1000
| 32> end
| 33>
| 34> * xyz 0 1
| 35>   C                      4.903913             0.406796             5.553629
| 36>   O                      4.965341             0.096374             6.927694
| 37>   H                      4.245651             0.443145             7.449929
| 38>   H                      3.890953             0.251996             5.036663
| 39>   H                      5.294555             1.436939             5.352639
| 40>   H                      5.521654             -0.336337            5.032475
| 41>   C                    : 8.183127             -1.590778            8.344374
| 42>   O                    : 9.134027             -1.824891            9.329483
| 43>   H                    : 8.751075             -1.529543            10.182636
| 44>   H                    : 7.735898             -0.566056            8.358222
| 45>   H                    : 8.580933             -1.749564            7.346575
| 46>   H                    : 7.375607             -2.287565            8.354644
| 47> *
| 48>
| 49> #Run DFT-D3 single point of the particle with dimer basis set
| 50> $new_job
| 51> %base "2-121_DFT_B"
| 52> ! wB97X-D3 def2-TZVP TIGHTSCF CHELPG PMODEL
| 53>
| 54> %scf
| 55> MaxIter 1000
| 56> end
| 57>
| 58> * xyz 0 1
| 59>   C                    : 4.903913             0.406796             5.553629
| 60>   O                    : 4.965341             0.096374             6.927694
| 61>   H                    : 4.245651             0.443145             7.449929
| 62>   H                    : 3.890953             0.251996             5.036663
| 63>   H                    : 5.294555             1.436939             5.352639
| 64>   H                    : 5.521654             -0.336337            5.032475
| 65>   C                      8.183127             -1.590778            8.344374
| 66>   O                      9.134027             -1.824891            9.329483
| 67>   H                      8.751075             -1.529543            10.182636
| 68>   H                      7.735898             -0.566056            8.358222
| 69>   H                      8.580933             -1.749564            7.346575
| 70>   H                      7.375607             -2.287565            8.354644
| 71> *
| 72>
| 73>                          ****END OF INPUT****
 Total Charge           Charge          ....    0
 Multiplicity           Mult            ....    1
 Number of Electrons    NEL             ....   36
Dispersion correction           -0.001175963
FINAL SINGLE POINT ENERGY      -231.468472031698
Dispersion correction           -0.000283545
FINAL SINGLE POINT ENERGY      -115.733146647175

CARTESIAN COORDINATES (ANGSTROEM)
---------------------------------
  C      4.903913    0.406796    5.553629
  O      4.965341    0.096374    6.927694
  H      4.245651    0.443145    7.449929
  H      3.890953    0.251996    5.036663
  H      5.294555    1.436939    5.352639
  H      5.521654   -0.336337    5.032475
  C      8.183127   -1.590778    8.344374
  O      9.134027   -1.824891    9.329483
  H      8.751075   -1.529543   10.182636
  H      7.735898   -0.566056    8.358222
  H      8.580933   -1.749564    7.346575
  H      7.375607   -2.287565    8.354644

 Multiplicity           Mult            ....    1
 Number of Electrons    NEL             ....   18
 Basis Dimension        Dim             ....  172

ORBITAL ENERGIES
----------------

  NO   OCC          E(Eh)            E(eV)
   0   2.0000     -19.235232      -523.4173
   1   2.0000     -10.308947      -280.5207
   2   2.0000      -1.141849       -31.0713
   3   2.0000      -0.795855       -21.6563
   4   2.0000      -0.614504       -16.7215
   5   2.0000      -0.543294       -14.7838
   6   2.0000      -0.530907       -14.4467
   7   2.0000      -0.431532       -11.7426
   8   2.0000      -0.373476       -10.1628
   9   0.0000       0.079029         2.1505
  10   0.0000       0.114359         3.1119
  11   0.0000       0.145135         3.9493
  12   0.0000       0.160701         4.3729
  13   0.0000       0.189697         5.1619

MULLIKEN ATOMIC CHARGES
-----------------------
   0 C :   -0.000277
   1 O :   -0.000082
   2 H :   -0.000071
   3 H :   -0.000002
   4 H :    0.000010
   5 H :    0.000014
   6 C :   -0.161023
   7 O :   -0.466806
   8 H :    0.319592
   9 H :    0.095486
  10 H :    0.115536
  11 H :    0.097623
Sum of atomic charges:    0.0000000

LOEWDIN ATOMIC CHARGES
----------------------
   0 C :   -0.000280
   1 O :   -0.000833
   2 H :   -0.000111
   3 H :   -0.000007
   4 H :   -0.000010
   5 H :   -0.000028
   6 C :   -0.413070
   7 O :   -0.063429
   8 H :    0.185670
   9 H :    0.098133
  10 H :    0.107191
  11 H :    0.086773

  Mayer bond orders larger than 0.1
B(  6-C ,  7-O ) :   1.0123 B(  6-C ,  9-H ) :   0.9791 B(  6-C , 10-H ) :   0.9734
B(  6-C , 11-H ) :   0.9759 B(  7-O ,  8-H ) :   0.8932

Dispersion correction           -0.000242491
FINAL SINGLE POINT ENERGY      -115.733936346604

DIPOLE MOMENT
-------------
                                X             Y             Z
Electronic contribution:      1.41458      -0.36818       1.28206
Nuclear contribution   :     -2.01161       0.62578      -1.12992
                        -----------------------------------------
Total Dipole Moment    :     -0.59703       0.25760       0.15214
                        -----------------------------------------
Magnitude (a.u.)       :      0.66780
Magnitude (Debye)      :      1.69740

Rotational constants in cm-1:     4.409847     0.846979     0.812872
Rotational constants in MHz : 132203.890055 25391.781846 24369.304219

                             ****ORCA TERMINATED NORMALLY****
TOTAL RUN TIME: 0 days 0 hours 6 minutes 21 seconds 327 msec
