                         Program Version 4.1.2  - RELEASE  -
|  1> #Run DFT-D3 single point of the dimer
|  2> ! wB97X-D3 def2-TZVP TIGHTSCF CHELPG PMODEL PAL8
|  3>
|  4> %base "1-28_DFT_AB"
|  5>
|  6> %scf
|  7> MaxIter 1000
|  8> end
|  9>
| 10> * xyz 0 1
| 11>   C                      -2.881200            5.269052             1.066537
| 12>   O                      -2.445104            4.075524             0.341486
| 13>   H                      -2.756895            4.205874             -0.534556
| 14>   H                      -3.832270            5.165989             1.402556
| 15>   H                      -2.191036            5.618454             1.900053
| 16>   H                      -2.957396            6.094008             0.292697
| 17>   C                      -0.914828            10.289450            -0.296619
| 18>   O                      -0.264873            9.845473             -1.417564
| 19>   H                      0.282445             9.135165             -1.073404
| 20>   H                      -1.731806            10.938854            -0.510970
| 21>   H                      -1.192972            9.332177             0.157957
| 22>   H                      -0.219820            10.825538            0.457156
| 23> *
| 24>
| 25> #Run DFT-D3 single point of the molecule with dimer basis set
| 26> $new_job
| 27> %base "1-28_DFT_A"
| 28> ! wB97X-D3 def2-TZVP TIGHTSCF CHELPG PMODEL
| 29>
| 30> %scf
| 31> MaxIter 1000
| 32> end
| 33>
| 34> * xyz 0 1
| 35>   C                      -2.881200            5.269052             1.066537
| 36>   O                      -2.445104            4.075524             0.341486
| 37>   H                      -2.756895            4.205874             -0.534556
| 38>   H                      -3.832270            5.165989             1.402556
| 39>   H                      -2.191036            5.618454             1.900053
| 40>   H                      -2.957396            6.094008             0.292697
| 41>   C                    : -0.914828            10.289450            -0.296619
| 42>   O                    : -0.264873            9.845473             -1.417564
| 43>   H                    : 0.282445             9.135165             -1.073404
| 44>   H                    : -1.731806            10.938854            -0.510970
| 45>   H                    : -1.192972            9.332177             0.157957
| 46>   H                    : -0.219820            10.825538            0.457156
| 47> *
| 48>
| 49> #Run DFT-D3 single point of the particle with dimer basis set
| 50> $new_job
| 51> %base "1-28_DFT_B"
| 52> ! wB97X-D3 def2-TZVP TIGHTSCF CHELPG PMODEL
| 53>
| 54> %scf
| 55> MaxIter 1000
| 56> end
| 57>
| 58> * xyz 0 1
| 59>   C                    : -2.881200            5.269052             1.066537
| 60>   O                    : -2.445104            4.075524             0.341486
| 61>   H                    : -2.756895            4.205874             -0.534556
| 62>   H                    : -3.832270            5.165989             1.402556
| 63>   H                    : -2.191036            5.618454             1.900053
| 64>   H                    : -2.957396            6.094008             0.292697
| 65>   C                      -0.914828            10.289450            -0.296619
| 66>   O                      -0.264873            9.845473             -1.417564
| 67>   H                      0.282445             9.135165             -1.073404
| 68>   H                      -1.731806            10.938854            -0.510970
| 69>   H                      -1.192972            9.332177             0.157957
| 70>   H                      -0.219820            10.825538            0.457156
| 71> *
| 72>
| 73>                          ****END OF INPUT****
 Total Charge           Charge          ....    0
 Multiplicity           Mult            ....    1
 Number of Electrons    NEL             ....   36
Dispersion correction           -0.000661502
FINAL SINGLE POINT ENERGY      -231.450015010433
Dispersion correction           -0.000244874
FINAL SINGLE POINT ENERGY      -115.724515353734

CARTESIAN COORDINATES (ANGSTROEM)
---------------------------------
  C     -2.881200    5.269052    1.066537
  O     -2.445104    4.075524    0.341486
  H     -2.756895    4.205874   -0.534556
  H     -3.832270    5.165989    1.402556
  H     -2.191036    5.618454    1.900053
  H     -2.957396    6.094008    0.292697
  C     -0.914828   10.289450   -0.296619
  O     -0.264873    9.845473   -1.417564
  H      0.282445    9.135165   -1.073404
  H     -1.731806   10.938854   -0.510970
  H     -1.192972    9.332177    0.157957
  H     -0.219820   10.825538    0.457156

 Multiplicity           Mult            ....    1
 Number of Electrons    NEL             ....   18
 Basis Dimension        Dim             ....  172

ORBITAL ENERGIES
----------------

  NO   OCC          E(Eh)            E(eV)
   0   2.0000     -19.229362      -523.2575
   1   2.0000     -10.314080      -280.6604
   2   2.0000      -1.156341       -31.4657
   3   2.0000      -0.786686       -21.4068
   4   2.0000      -0.618629       -16.8337
   5   2.0000      -0.550285       -14.9740
   6   2.0000      -0.535566       -14.5735
   7   2.0000      -0.435709       -11.8563
   8   2.0000      -0.364398        -9.9158
   9   0.0000       0.080408         2.1880
  10   0.0000       0.111414         3.0317
  11   0.0000       0.155012         4.2181
  12   0.0000       0.164854         4.4859
  13   0.0000       0.183475         4.9926

MULLIKEN ATOMIC CHARGES
-----------------------
   0 C :   -0.000147
   1 O :   -0.000000
   2 H :   -0.000000
   3 H :    0.000010
   4 H :   -0.000031
   5 H :    0.000125
   6 C :   -0.161466
   7 O :   -0.451441
   8 H :    0.316569
   9 H :    0.122484
  10 H :    0.091907
  11 H :    0.081991
Sum of atomic charges:    0.0000000

LOEWDIN ATOMIC CHARGES
----------------------
   0 C :   -0.000113
   1 O :   -0.000001
   2 H :   -0.000000
   3 H :   -0.000000
   4 H :   -0.000029
   5 H :   -0.000114
   6 C :   -0.422840
   7 O :   -0.048024
   8 H :    0.177261
   9 H :    0.099489
  10 H :    0.096629
  11 H :    0.097743

  Mayer bond orders larger than 0.1
B(  6-C ,  7-O ) :   1.0010 B(  6-C ,  9-H ) :   0.9706 B(  6-C , 10-H ) :   1.0035
B(  6-C , 11-H ) :   0.9652 B(  7-O ,  8-H ) :   0.9006

Dispersion correction           -0.000199725
FINAL SINGLE POINT ENERGY      -115.725119932333

DIPOLE MOMENT
-------------
                                X             Y             Z
Electronic contribution:      0.63907      -0.36370      -1.68518
Nuclear contribution   :     -0.55966       0.06957       2.27014
                        -----------------------------------------
Total Dipole Moment    :      0.07941      -0.29413       0.58496
                        -----------------------------------------
Magnitude (a.u.)       :      0.65955
Magnitude (Debye)      :      1.67643

Rotational constants in cm-1:     4.138791     0.890979     0.852079
Rotational constants in MHz : 124077.832559 26710.889992 25544.680553

                             ****ORCA TERMINATED NORMALLY****
TOTAL RUN TIME: 0 days 0 hours 4 minutes 18 seconds 612 msec
