                         Program Version 4.1.2  - RELEASE  -
|  1> #Run DFT geometry optimization
|  2> ! wB97X-D3 def2-TZVP TIGHTSCF Grid5 FinalGrid6 Opt CHELPG PAL4
|  3>
|  4> %base "0_geo_opt"
|  5> %geom MaxIter 500
|  6> end
|  7>
|  8> %geom
|  9>   Constraints
| 10>     { A 2 1 0 C }
| 11>   end
| 12> end
| 13>
| 14>
| 15> * xyz 0 1
| 16>   C                    3.010805             -1.185906            0.602040
| 17>   O                    4.394673             -1.128050            0.874308
| 18>   H                    4.775957             -0.379973            0.414044
| 19>   H                    2.806434             -1.318965            -0.469350
| 20>   H                    2.611632             -2.040265            1.135898
| 21>   H                    2.484757             -0.284491            0.945659
| 22> *
| 23>
| 24>                          ****END OF INPUT****
 Total Charge           Charge          ....    0
 Multiplicity           Mult            ....    1
 Number of Electrons    NEL             ....   18
Dispersion correction           -0.000240005
FINAL SINGLE POINT ENERGY      -115.738004233007
Dispersion correction            ... done
Dispersion correction           -0.000240005
FINAL SINGLE POINT ENERGY      -115.738041333284
Dispersion correction            ... done
Dispersion correction           -0.000240270
FINAL SINGLE POINT ENERGY      -115.738044375561
Dispersion correction            ... done
                    ***********************HURRAY********************

CARTESIAN COORDINATES (ANGSTROEM)
---------------------------------
  C      3.011017   -1.181717    0.599007
  O      4.393793   -1.128038    0.874024
  H      4.778081   -0.380798    0.415225
  H      2.805107   -1.319958   -0.468626
  H      2.612683   -2.041400    1.136994
  H      2.483578   -0.285740    0.945975

 Multiplicity           Mult            ....    1
 Number of Electrons    NEL             ....   18
 Basis Dimension        Dim             ....   86

ORBITAL ENERGIES
----------------

  NO   OCC          E(Eh)            E(eV)
   0   2.0000     -19.227885      -523.2174
   1   2.0000     -10.315084      -280.6877
   2   2.0000      -1.136692       -30.9310
   3   2.0000      -0.795559       -21.6482
   4   2.0000      -0.611820       -16.6485
   5   2.0000      -0.541669       -14.7396
   6   2.0000      -0.526527       -14.3275
   7   2.0000      -0.433188       -11.7876
   8   2.0000      -0.373503       -10.1635
   9   0.0000       0.116764         3.1773
  10   0.0000       0.156618         4.2618
  11   0.0000       0.202625         5.5137
  12   0.0000       0.205229         5.5846
  13   0.0000       0.226527         6.1641

MULLIKEN ATOMIC CHARGES
-----------------------
   0 C :   -0.149688
   1 O :   -0.478589
   2 H :    0.313175
   3 H :    0.098418
   4 H :    0.118261
   5 H :    0.098423
Sum of atomic charges:   -0.0000000

LOEWDIN ATOMIC CHARGES
----------------------
   0 C :   -0.385347
   1 O :   -0.075670
   2 H :    0.165528
   3 H :    0.093355
   4 H :    0.108780
   5 H :    0.093354

  Mayer bond orders larger than 0.1
B(  0-C ,  1-O ) :   0.9985 B(  0-C ,  3-H ) :   0.9755 B(  0-C ,  4-H ) :   0.9749
B(  0-C ,  5-H ) :   0.9755 B(  1-O ,  2-H ) :   0.8998

Dispersion correction           -0.000240405
FINAL SINGLE POINT ENERGY      -115.738044710234

DIPOLE MOMENT
-------------
                                X             Y             Z
Electronic contribution:      1.75461      -0.02545       0.41737
Nuclear contribution   :     -2.05998       0.47273      -0.81366
                        -----------------------------------------
Total Dipole Moment    :     -0.30537       0.44728      -0.39629
                        -----------------------------------------
Magnitude (a.u.)       :      0.67108
Magnitude (Debye)      :      1.70576

Rotational constants in cm-1:     4.299144     0.833812     0.805074
Rotational constants in MHz : 128885.106485 24997.042611 24135.501124

                             ****ORCA TERMINATED NORMALLY****
TOTAL RUN TIME: 0 days 0 hours 0 minutes 50 seconds 463 msec
