                         Program Version 4.1.2  - RELEASE  -
|  1> #Run DFT-D3 single point of the dimer
|  2> ! wB97X-D3 def2-TZVP TIGHTSCF CHELPG PMODEL PAL8
|  3>
|  4> %base "5-69_DFT_AB"
|  5>
|  6> %scf
|  7> MaxIter 1000
|  8> end
|  9>
| 10> * xyz 0 1
| 11>   C                      0.496941             1.392049             5.026981
| 12>   O                      -0.494197            0.337308             5.082726
| 13>   H                      -0.689183            0.394878             4.127763
| 14>   H                      1.282604             1.248695             5.776744
| 15>   H                      1.032644             1.416140             4.066925
| 16>   H                      -0.013328            2.353019             5.225455
| 17>   C                      0.534572             0.495947             8.676563
| 18>   O                      1.690393             -0.365875            8.602682
| 19>   H                      2.464209             0.012256             9.062328
| 20>   H                      0.153508             0.665837             9.678537
| 21>   H                      0.823250             1.449918             8.180328
| 22>   H                      -0.256776            0.093347             7.990062
| 23> *
| 24>
| 25> #Run DFT-D3 single point of the molecule with dimer basis set
| 26> $new_job
| 27> %base "5-69_DFT_A"
| 28> ! wB97X-D3 def2-TZVP TIGHTSCF CHELPG PMODEL
| 29>
| 30> %scf
| 31> MaxIter 1000
| 32> end
| 33>
| 34> * xyz 0 1
| 35>   C                      0.496941             1.392049             5.026981
| 36>   O                      -0.494197            0.337308             5.082726
| 37>   H                      -0.689183            0.394878             4.127763
| 38>   H                      1.282604             1.248695             5.776744
| 39>   H                      1.032644             1.416140             4.066925
| 40>   H                      -0.013328            2.353019             5.225455
| 41>   C                    : 0.534572             0.495947             8.676563
| 42>   O                    : 1.690393             -0.365875            8.602682
| 43>   H                    : 2.464209             0.012256             9.062328
| 44>   H                    : 0.153508             0.665837             9.678537
| 45>   H                    : 0.823250             1.449918             8.180328
| 46>   H                    : -0.256776            0.093347             7.990062
| 47> *
| 48>
| 49> #Run DFT-D3 single point of the particle with dimer basis set
| 50> $new_job
| 51> %base "5-69_DFT_B"
| 52> ! wB97X-D3 def2-TZVP TIGHTSCF CHELPG PMODEL
| 53>
| 54> %scf
| 55> MaxIter 1000
| 56> end
| 57>
| 58> * xyz 0 1
| 59>   C                    : 0.496941             1.392049             5.026981
| 60>   O                    : -0.494197            0.337308             5.082726
| 61>   H                    : -0.689183            0.394878             4.127763
| 62>   H                    : 1.282604             1.248695             5.776744
| 63>   H                    : 1.032644             1.416140             4.066925
| 64>   H                    : -0.013328            2.353019             5.225455
| 65>   C                      0.534572             0.495947             8.676563
| 66>   O                      1.690393             -0.365875            8.602682
| 67>   H                      2.464209             0.012256             9.062328
| 68>   H                      0.153508             0.665837             9.678537
| 69>   H                      0.823250             1.449918             8.180328
| 70>   H                      -0.256776            0.093347             7.990062
| 71> *
| 72>
| 73>                          ****END OF INPUT****
 Total Charge           Charge          ....    0
 Multiplicity           Mult            ....    1
 Number of Electrons    NEL             ....   36
Dispersion correction           -0.001841340
FINAL SINGLE POINT ENERGY      -231.463373084642
Dispersion correction           -0.000226452
FINAL SINGLE POINT ENERGY      -115.728924313346

CARTESIAN COORDINATES (ANGSTROEM)
---------------------------------
  C      0.496941    1.392049    5.026981
  O     -0.494197    0.337308    5.082726
  H     -0.689183    0.394878    4.127763
  H      1.282604    1.248695    5.776744
  H      1.032644    1.416140    4.066925
  H     -0.013328    2.353019    5.225455
  C      0.534572    0.495947    8.676563
  O      1.690393   -0.365875    8.602682
  H      2.464209    0.012256    9.062328
  H      0.153508    0.665837    9.678537
  H      0.823250    1.449918    8.180328
  H     -0.256776    0.093347    7.990062

 Multiplicity           Mult            ....    1
 Number of Electrons    NEL             ....   18
 Basis Dimension        Dim             ....  172

ORBITAL ENERGIES
----------------

  NO   OCC          E(Eh)            E(eV)
   0   2.0000     -19.228741      -523.2406
   1   2.0000     -10.320129      -280.8250
   2   2.0000      -1.120850       -30.4999
   3   2.0000      -0.793445       -21.5907
   4   2.0000      -0.601651       -16.3718
   5   2.0000      -0.542885       -14.7727
   6   2.0000      -0.519337       -14.1319
   7   2.0000      -0.425589       -11.5809
   8   2.0000      -0.373518       -10.1639
   9   0.0000       0.087657         2.3853
  10   0.0000       0.117512         3.1977
  11   0.0000       0.153799         4.1851
  12   0.0000       0.163674         4.4538
  13   0.0000       0.195950         5.3321

MULLIKEN ATOMIC CHARGES
-----------------------
   0 C :   -0.004885
   1 O :    0.000607
   2 H :    0.000009
   3 H :    0.002764
   4 H :    0.000064
   5 H :    0.000414
   6 C :   -0.162208
   7 O :   -0.494819
   8 H :    0.316871
   9 H :    0.114420
  10 H :    0.104463
  11 H :    0.122301
Sum of atomic charges:    0.0000000

LOEWDIN ATOMIC CHARGES
----------------------
   0 C :   -0.005024
   1 O :   -0.001177
   2 H :   -0.000044
   3 H :   -0.003052
   4 H :   -0.000035
   5 H :   -0.000345
   6 C :   -0.365980
   7 O :   -0.110132
   8 H :    0.173480
   9 H :    0.092605
  10 H :    0.102130
  11 H :    0.117575

  Mayer bond orders larger than 0.1
B(  6-C ,  7-O ) :   0.9841 B(  6-C ,  9-H ) :   0.9649 B(  6-C , 10-H ) :   0.9853
B(  6-C , 11-H ) :   0.9714 B(  7-O ,  8-H ) :   0.8934

Dispersion correction           -0.000265093
FINAL SINGLE POINT ENERGY      -115.733047708137

DIPOLE MOMENT
-------------
                                X             Y             Z
Electronic contribution:      1.30689      -1.19664       0.00972
Nuclear contribution   :     -1.29991       1.80321       0.30592
                        -----------------------------------------
Total Dipole Moment    :      0.00698       0.60656       0.31564
                        -----------------------------------------
Magnitude (a.u.)       :      0.68381
Magnitude (Debye)      :      1.73810

Rotational constants in cm-1:     4.212475     0.796013     0.772044
Rotational constants in MHz : 126286.822330 23863.874045 23145.289427

                             ****ORCA TERMINATED NORMALLY****
TOTAL RUN TIME: 0 days 0 hours 1 minutes 5 seconds 766 msec
