                         Program Version 4.1.2  - RELEASE  -
|  1> #Run DFT-D3 single point of the dimer
|  2> ! wB97X-D3 def2-TZVP TIGHTSCF CHELPG PMODEL PAL8
|  3>
|  4> %base "1-141_DFT_AB"
|  5>
|  6> %scf
|  7> MaxIter 1000
|  8> end
|  9>
| 10> * xyz 0 1
| 11>   C                      9.665836             -0.217064            10.196093
| 12>   O                      9.826703             -1.470879            10.780633
| 13>   H                      10.759762            -1.664107            10.755609
| 14>   H                      8.702707             0.283325             10.335303
| 15>   H                      10.272908            0.494257             10.775739
| 16>   H                      9.978906             -0.181398            9.110003
| 17>   C                      8.000907             -3.894884            6.630837
| 18>   O                      8.782931             -2.854972            7.307903
| 19>   H                      8.716286             -2.946058            8.236443
| 20>   H                      8.156421             -4.851604            7.081191
| 21>   H                      6.951393             -3.690725            6.827367
| 22>   H                      8.095811             -3.825377            5.564513
| 23> *
| 24>
| 25> #Run DFT-D3 single point of the molecule with dimer basis set
| 26> $new_job
| 27> %base "1-141_DFT_A"
| 28> ! wB97X-D3 def2-TZVP TIGHTSCF CHELPG PMODEL
| 29>
| 30> %scf
| 31> MaxIter 1000
| 32> end
| 33>
| 34> * xyz 0 1
| 35>   C                      9.665836             -0.217064            10.196093
| 36>   O                      9.826703             -1.470879            10.780633
| 37>   H                      10.759762            -1.664107            10.755609
| 38>   H                      8.702707             0.283325             10.335303
| 39>   H                      10.272908            0.494257             10.775739
| 40>   H                      9.978906             -0.181398            9.110003
| 41>   C                    : 8.000907             -3.894884            6.630837
| 42>   O                    : 8.782931             -2.854972            7.307903
| 43>   H                    : 8.716286             -2.946058            8.236443
| 44>   H                    : 8.156421             -4.851604            7.081191
| 45>   H                    : 6.951393             -3.690725            6.827367
| 46>   H                    : 8.095811             -3.825377            5.564513
| 47> *
| 48>
| 49> #Run DFT-D3 single point of the particle with dimer basis set
| 50> $new_job
| 51> %base "1-141_DFT_B"
| 52> ! wB97X-D3 def2-TZVP TIGHTSCF CHELPG PMODEL
| 53>
| 54> %scf
| 55> MaxIter 1000
| 56> end
| 57>
| 58> * xyz 0 1
| 59>   C                    : 9.665836             -0.217064            10.196093
| 60>   O                    : 9.826703             -1.470879            10.780633
| 61>   H                    : 10.759762            -1.664107            10.755609
| 62>   H                    : 8.702707             0.283325             10.335303
| 63>   H                    : 10.272908            0.494257             10.775739
| 64>   H                    : 9.978906             -0.181398            9.110003
| 65>   C                      8.000907             -3.894884            6.630837
| 66>   O                      8.782931             -2.854972            7.307903
| 67>   H                      8.716286             -2.946058            8.236443
| 68>   H                      8.156421             -4.851604            7.081191
| 69>   H                      6.951393             -3.690725            6.827367
| 70>   H                      8.095811             -3.825377            5.564513
| 71> *
| 72>
| 73>                          ****END OF INPUT****
 Total Charge           Charge          ....    0
 Multiplicity           Mult            ....    1
 Number of Electrons    NEL             ....   36
Dispersion correction           -0.001212086
FINAL SINGLE POINT ENERGY      -231.464067449023
Dispersion correction           -0.000234701
FINAL SINGLE POINT ENERGY      -115.730169406151

CARTESIAN COORDINATES (ANGSTROEM)
---------------------------------
  C      9.665836   -0.217064   10.196093
  O      9.826703   -1.470879   10.780633
  H     10.759762   -1.664107   10.755609
  H      8.702707    0.283325   10.335303
  H     10.272908    0.494257   10.775739
  H      9.978906   -0.181398    9.110003
  C      8.000907   -3.894884    6.630837
  O      8.782931   -2.854972    7.307903
  H      8.716286   -2.946058    8.236443
  H      8.156421   -4.851604    7.081191
  H      6.951393   -3.690725    6.827367
  H      8.095811   -3.825377    5.564513

 Multiplicity           Mult            ....    1
 Number of Electrons    NEL             ....   18
 Basis Dimension        Dim             ....  172

ORBITAL ENERGIES
----------------

  NO   OCC          E(Eh)            E(eV)
   0   2.0000     -19.223718      -523.1040
   1   2.0000     -10.313423      -280.6425
   2   2.0000      -1.122802       -30.5530
   3   2.0000      -0.805212       -21.9109
   4   2.0000      -0.606954       -16.5161
   5   2.0000      -0.540045       -14.6954
   6   2.0000      -0.524342       -14.2681
   7   2.0000      -0.438145       -11.9225
   8   2.0000      -0.370865       -10.0918
   9   0.0000       0.082362         2.2412
  10   0.0000       0.125960         3.4275
  11   0.0000       0.152251         4.1430
  12   0.0000       0.168778         4.5927
  13   0.0000       0.196119         5.3367

MULLIKEN ATOMIC CHARGES
-----------------------
   0 C :   -0.000778
   1 O :   -0.000047
   2 H :   -0.000104
   3 H :    0.000135
   4 H :   -0.000082
   5 H :   -0.001307
   6 C :   -0.174545
   7 O :   -0.486421
   8 H :    0.309219
   9 H :    0.113118
  10 H :    0.107588
  11 H :    0.133224
Sum of atomic charges:   -0.0000000

LOEWDIN ATOMIC CHARGES
----------------------
   0 C :   -0.001408
   1 O :   -0.000384
   2 H :   -0.000110
   3 H :   -0.000030
   4 H :   -0.000027
   5 H :   -0.000929
   6 C :   -0.334897
   7 O :   -0.104073
   8 H :    0.145875
   9 H :    0.092676
  10 H :    0.096624
  11 H :    0.106682

  Mayer bond orders larger than 0.1
B(  6-C ,  7-O ) :   0.9836 B(  6-C ,  9-H ) :   0.9764 B(  6-C , 10-H ) :   0.9813
B(  6-C , 11-H ) :   0.9715 B(  7-O ,  8-H ) :   0.9050

Dispersion correction           -0.000246629
FINAL SINGLE POINT ENERGY      -115.730629760111

DIPOLE MOMENT
-------------
                                X             Y             Z
Electronic contribution:      1.11692       1.20327       0.59202
Nuclear contribution   :     -1.52817      -1.72302      -0.29141
                        -----------------------------------------
Total Dipole Moment    :     -0.41124      -0.51975       0.30062
                        -----------------------------------------
Magnitude (a.u.)       :      0.72776
Magnitude (Debye)      :      1.84981

Rotational constants in cm-1:     4.448258     0.790875     0.756750
Rotational constants in MHz : 133355.420520 23709.821923 22686.807957

                             ****ORCA TERMINATED NORMALLY****
TOTAL RUN TIME: 0 days 0 hours 5 minutes 59 seconds 315 msec
