                         Program Version 4.1.2  - RELEASE  -
|  1> #Run DFT-D3 single point of the dimer
|  2> ! wB97X-D3 def2-TZVP TIGHTSCF CHELPG PMODEL PAL8
|  3>
|  4> %base "15-28_DFT_AB"
|  5>
|  6> %scf
|  7> MaxIter 1000
|  8> end
|  9>
| 10> * xyz 0 1
| 11>   C                      4.420336             -3.631376            1.742753
| 12>   O                      3.162538             -4.207617            1.389367
| 13>   H                      2.908502             -4.657569            2.203867
| 14>   H                      4.810058             -2.966194            0.971924
| 15>   H                      4.419981             -3.156620            2.638260
| 16>   H                      5.257324             -4.385752            1.882703
| 17>   C                      4.268926             -7.873834            -1.842682
| 18>   O                      2.993519             -8.521411            -1.414708
| 19>   H                      2.287486             -7.827666            -1.424785
| 20>   H                      5.038802             -8.653786            -1.944165
| 21>   H                      4.142344             -7.402287            -2.866896
| 22>   H                      4.547688             -7.102339            -1.118456
| 23> *
| 24>
| 25> #Run DFT-D3 single point of the molecule with dimer basis set
| 26> $new_job
| 27> %base "15-28_DFT_A"
| 28> ! wB97X-D3 def2-TZVP TIGHTSCF CHELPG PMODEL
| 29>
| 30> %scf
| 31> MaxIter 1000
| 32> end
| 33>
| 34> * xyz 0 1
| 35>   C                      4.420336             -3.631376            1.742753
| 36>   O                      3.162538             -4.207617            1.389367
| 37>   H                      2.908502             -4.657569            2.203867
| 38>   H                      4.810058             -2.966194            0.971924
| 39>   H                      4.419981             -3.156620            2.638260
| 40>   H                      5.257324             -4.385752            1.882703
| 41>   C                    : 4.268926             -7.873834            -1.842682
| 42>   O                    : 2.993519             -8.521411            -1.414708
| 43>   H                    : 2.287486             -7.827666            -1.424785
| 44>   H                    : 5.038802             -8.653786            -1.944165
| 45>   H                    : 4.142344             -7.402287            -2.866896
| 46>   H                    : 4.547688             -7.102339            -1.118456
| 47> *
| 48>
| 49> #Run DFT-D3 single point of the particle with dimer basis set
| 50> $new_job
| 51> %base "15-28_DFT_B"
| 52> ! wB97X-D3 def2-TZVP TIGHTSCF CHELPG PMODEL
| 53>
| 54> %scf
| 55> MaxIter 1000
| 56> end
| 57>
| 58> * xyz 0 1
| 59>   C                    : 4.420336             -3.631376            1.742753
| 60>   O                    : 3.162538             -4.207617            1.389367
| 61>   H                    : 2.908502             -4.657569            2.203867
| 62>   H                    : 4.810058             -2.966194            0.971924
| 63>   H                    : 4.419981             -3.156620            2.638260
| 64>   H                    : 5.257324             -4.385752            1.882703
| 65>   C                      4.268926             -7.873834            -1.842682
| 66>   O                      2.993519             -8.521411            -1.414708
| 67>   H                      2.287486             -7.827666            -1.424785
| 68>   H                      5.038802             -8.653786            -1.944165
| 69>   H                      4.142344             -7.402287            -2.866896
| 70>   H                      4.547688             -7.102339            -1.118456
| 71> *
| 72>
| 73>                          ****END OF INPUT****
 Total Charge           Charge          ....    0
 Multiplicity           Mult            ....    1
 Number of Electrons    NEL             ....   36
Dispersion correction           -0.000770768
FINAL SINGLE POINT ENERGY      -231.461290957726
Dispersion correction           -0.000239924
FINAL SINGLE POINT ENERGY      -115.728423494372

CARTESIAN COORDINATES (ANGSTROEM)
---------------------------------
  C      4.420336   -3.631376    1.742753
  O      3.162538   -4.207617    1.389367
  H      2.908502   -4.657569    2.203867
  H      4.810058   -2.966194    0.971924
  H      4.419981   -3.156620    2.638260
  H      5.257324   -4.385752    1.882703
  C      4.268926   -7.873834   -1.842682
  O      2.993519   -8.521411   -1.414708
  H      2.287486   -7.827666   -1.424785
  H      5.038802   -8.653786   -1.944165
  H      4.142344   -7.402287   -2.866896
  H      4.547688   -7.102339   -1.118456

 Multiplicity           Mult            ....    1
 Number of Electrons    NEL             ....   18
 Basis Dimension        Dim             ....  172

ORBITAL ENERGIES
----------------

  NO   OCC          E(Eh)            E(eV)
   0   2.0000     -19.230914      -523.2998
   1   2.0000     -10.325499      -280.9711
   2   2.0000      -1.107272       -30.1304
   3   2.0000      -0.791866       -21.5478
   4   2.0000      -0.590328       -16.0636
   5   2.0000      -0.534984       -14.5577
   6   2.0000      -0.515796       -14.0355
   7   2.0000      -0.436058       -11.8657
   8   2.0000      -0.373981       -10.1765
   9   0.0000       0.078988         2.1494
  10   0.0000       0.112311         3.0561
  11   0.0000       0.145859         3.9690
  12   0.0000       0.164384         4.4731
  13   0.0000       0.179555         4.8859

MULLIKEN ATOMIC CHARGES
-----------------------
   0 C :    0.000005
   1 O :   -0.000002
   2 H :   -0.000003
   3 H :   -0.000011
   4 H :   -0.000005
   5 H :   -0.000054
   6 C :   -0.178121
   7 O :   -0.490738
   8 H :    0.313360
   9 H :    0.128316
  10 H :    0.108941
  11 H :    0.118312
Sum of atomic charges:    0.0000000

LOEWDIN ATOMIC CHARGES
----------------------
   0 C :   -0.000094
   1 O :   -0.000019
   2 H :   -0.000007
   3 H :   -0.000004
   4 H :   -0.000002
   5 H :   -0.000038
   6 C :   -0.338307
   7 O :   -0.149328
   8 H :    0.177818
   9 H :    0.109765
  10 H :    0.103639
  11 H :    0.096579

  Mayer bond orders larger than 0.1
B(  6-C ,  7-O ) :   0.9870 B(  6-C ,  9-H ) :   0.9713 B(  6-C , 10-H ) :   0.9729
B(  6-C , 11-H ) :   0.9701 B(  7-O ,  8-H ) :   0.8985

Dispersion correction           -0.000276328
FINAL SINGLE POINT ENERGY      -115.731760520685

DIPOLE MOMENT
-------------
                                X             Y             Z
Electronic contribution:     -1.38584      -0.92267       0.59245
Nuclear contribution   :      1.51205       1.62604      -0.78529
                        -----------------------------------------
Total Dipole Moment    :      0.12621       0.70336      -0.19285
                        -----------------------------------------
Magnitude (a.u.)       :      0.74016
Magnitude (Debye)      :      1.88134

Rotational constants in cm-1:     4.077240     0.760097     0.734040
Rotational constants in MHz : 122232.575511 22787.127137 22005.971438

                             ****ORCA TERMINATED NORMALLY****
TOTAL RUN TIME: 0 days 0 hours 0 minutes 58 seconds 726 msec
