                         Program Version 4.1.2  - RELEASE  -
|  1> #Run DFT-D3 single point of the dimer
|  2> ! wB97X-D3 def2-TZVP TIGHTSCF CHELPG PMODEL PAL8
|  3>
|  4> %base "15-77_DFT_AB"
|  5>
|  6> %scf
|  7> MaxIter 1000
|  8> end
|  9>
| 10> * xyz 0 1
| 11>   C                      3.160590             5.904719             1.409526
| 12>   O                      1.952229             6.513314             1.905539
| 13>   H                      2.203480             7.011722             2.707374
| 14>   H                      3.131705             5.037513             0.685736
| 15>   H                      3.800379             6.728786             1.090960
| 16>   H                      3.782874             5.542182             2.299754
| 17>   C                      3.467180             1.393242             0.592832
| 18>   O                      3.199770             2.200727             -0.571443
| 19>   H                      2.595145             1.775491             -1.163679
| 20>   H                      3.979197             0.438904             0.292025
| 21>   H                      4.181762             1.851568             1.262663
| 22>   H                      2.615667             1.283709             1.299601
| 23> *
| 24>
| 25> #Run DFT-D3 single point of the molecule with dimer basis set
| 26> $new_job
| 27> %base "15-77_DFT_A"
| 28> ! wB97X-D3 def2-TZVP TIGHTSCF CHELPG PMODEL
| 29>
| 30> %scf
| 31> MaxIter 1000
| 32> end
| 33>
| 34> * xyz 0 1
| 35>   C                      3.160590             5.904719             1.409526
| 36>   O                      1.952229             6.513314             1.905539
| 37>   H                      2.203480             7.011722             2.707374
| 38>   H                      3.131705             5.037513             0.685736
| 39>   H                      3.800379             6.728786             1.090960
| 40>   H                      3.782874             5.542182             2.299754
| 41>   C                    : 3.467180             1.393242             0.592832
| 42>   O                    : 3.199770             2.200727             -0.571443
| 43>   H                    : 2.595145             1.775491             -1.163679
| 44>   H                    : 3.979197             0.438904             0.292025
| 45>   H                    : 4.181762             1.851568             1.262663
| 46>   H                    : 2.615667             1.283709             1.299601
| 47> *
| 48>
| 49> #Run DFT-D3 single point of the particle with dimer basis set
| 50> $new_job
| 51> %base "15-77_DFT_B"
| 52> ! wB97X-D3 def2-TZVP TIGHTSCF CHELPG PMODEL
| 53>
| 54> %scf
| 55> MaxIter 1000
| 56> end
| 57>
| 58> * xyz 0 1
| 59>   C                    : 3.160590             5.904719             1.409526
| 60>   O                    : 1.952229             6.513314             1.905539
| 61>   H                    : 2.203480             7.011722             2.707374
| 62>   H                    : 3.131705             5.037513             0.685736
| 63>   H                    : 3.800379             6.728786             1.090960
| 64>   H                    : 3.782874             5.542182             2.299754
| 65>   C                      3.467180             1.393242             0.592832
| 66>   O                      3.199770             2.200727             -0.571443
| 67>   H                      2.595145             1.775491             -1.163679
| 68>   H                      3.979197             0.438904             0.292025
| 69>   H                      4.181762             1.851568             1.262663
| 70>   H                      2.615667             1.283709             1.299601
| 71> *
| 72>
| 73>                          ****END OF INPUT****
 Total Charge           Charge          ....    0
 Multiplicity           Mult            ....    1
 Number of Electrons    NEL             ....   36
Dispersion correction           -0.001178580
FINAL SINGLE POINT ENERGY      -231.456233008504
Dispersion correction           -0.000248475
FINAL SINGLE POINT ENERGY      -115.723573555222

CARTESIAN COORDINATES (ANGSTROEM)
---------------------------------
  C      3.160590    5.904719    1.409526
  O      1.952229    6.513314    1.905539
  H      2.203480    7.011722    2.707374
  H      3.131705    5.037513    0.685736
  H      3.800379    6.728786    1.090960
  H      3.782874    5.542182    2.299754
  C      3.467180    1.393242    0.592832
  O      3.199770    2.200727   -0.571443
  H      2.595145    1.775491   -1.163679
  H      3.979197    0.438904    0.292025
  H      4.181762    1.851568    1.262663
  H      2.615667    1.283709    1.299601

 Multiplicity           Mult            ....    1
 Number of Electrons    NEL             ....   18
 Basis Dimension        Dim             ....  172

ORBITAL ENERGIES
----------------

  NO   OCC          E(Eh)            E(eV)
   0   2.0000     -19.230168      -523.2795
   1   2.0000     -10.320444      -280.8335
   2   2.0000      -1.128679       -30.7129
   3   2.0000      -0.799996       -21.7690
   4   2.0000      -0.604406       -16.4467
   5   2.0000      -0.543940       -14.8014
   6   2.0000      -0.523241       -14.2381
   7   2.0000      -0.422783       -11.5045
   8   2.0000      -0.378593       -10.3020
   9   0.0000       0.092496         2.5169
  10   0.0000       0.119790         3.2596
  11   0.0000       0.145783         3.9669
  12   0.0000       0.174401         4.7457
  13   0.0000       0.198098         5.3905

MULLIKEN ATOMIC CHARGES
-----------------------
   0 C :    0.000813
   1 O :    0.000029
   2 H :    0.000002
   3 H :   -0.004318
   4 H :   -0.000040
   5 H :   -0.000069
   6 C :   -0.168217
   7 O :   -0.481281
   8 H :    0.314053
   9 H :    0.107641
  10 H :    0.125941
  11 H :    0.105447
Sum of atomic charges:   -0.0000000

LOEWDIN ATOMIC CHARGES
----------------------
   0 C :   -0.000687
   1 O :   -0.000014
   2 H :   -0.000000
   3 H :   -0.003508
   4 H :   -0.000004
   5 H :   -0.000057
   6 C :   -0.375053
   7 O :   -0.088130
   8 H :    0.157353
   9 H :    0.103888
  10 H :    0.106268
  11 H :    0.099943

  Mayer bond orders larger than 0.1
B(  6-C ,  7-O ) :   0.9931 B(  6-C ,  9-H ) :   0.9755 B(  6-C , 10-H ) :   0.9739
B(  6-C , 11-H ) :   0.9703 B(  7-O ,  8-H ) :   0.8989

Dispersion correction           -0.000284390
FINAL SINGLE POINT ENERGY      -115.730864923961

DIPOLE MOMENT
-------------
                                X             Y             Z
Electronic contribution:     -0.34322       1.09499      -1.49309
Nuclear contribution   :      0.09176      -1.69009       1.61502
                        -----------------------------------------
Total Dipole Moment    :     -0.25146      -0.59510       0.12193
                        -----------------------------------------
Magnitude (a.u.)       :      0.65745
Magnitude (Debye)      :      1.67112

Rotational constants in cm-1:     4.393838     0.782472     0.772406
Rotational constants in MHz : 131723.962876 23457.917703 23156.152176

                             ****ORCA TERMINATED NORMALLY****
TOTAL RUN TIME: 0 days 0 hours 1 minutes 5 seconds 59 msec
