                         Program Version 4.1.2  - RELEASE  -
|  1> #Run DFT-D3 single point of the dimer
|  2> ! wB97X-D3 def2-TZVP TIGHTSCF CHELPG PMODEL PAL8
|  3>
|  4> %base "16-129_DFT_AB"
|  5>
|  6> %scf
|  7> MaxIter 1000
|  8> end
|  9>
| 10> * xyz 0 1
| 11>   C                      -5.423742            -0.385399            -2.568477
| 12>   O                      -6.072185            -0.124848            -3.822119
| 13>   H                      -6.889635            0.328356             -3.630966
| 14>   H                      -5.797947            -1.302258            -2.110480
| 15>   H                      -4.343157            -0.522965            -2.760718
| 16>   H                      -5.495436            0.461736             -1.828739
| 17>   C                      -7.316454            2.519714             -5.714495
| 18>   O                      -8.253568            3.568823             -5.868071
| 19>   H                      -8.943469            3.628476             -5.171581
| 20>   H                      -6.661630            2.451363             -6.563210
| 21>   H                      -6.733230            2.598841             -4.811686
| 22>   H                      -7.876300            1.578366             -5.571679
| 23> *
| 24>
| 25> #Run DFT-D3 single point of the molecule with dimer basis set
| 26> $new_job
| 27> %base "16-129_DFT_A"
| 28> ! wB97X-D3 def2-TZVP TIGHTSCF CHELPG PMODEL
| 29>
| 30> %scf
| 31> MaxIter 1000
| 32> end
| 33>
| 34> * xyz 0 1
| 35>   C                      -5.423742            -0.385399            -2.568477
| 36>   O                      -6.072185            -0.124848            -3.822119
| 37>   H                      -6.889635            0.328356             -3.630966
| 38>   H                      -5.797947            -1.302258            -2.110480
| 39>   H                      -4.343157            -0.522965            -2.760718
| 40>   H                      -5.495436            0.461736             -1.828739
| 41>   C                    : -7.316454            2.519714             -5.714495
| 42>   O                    : -8.253568            3.568823             -5.868071
| 43>   H                    : -8.943469            3.628476             -5.171581
| 44>   H                    : -6.661630            2.451363             -6.563210
| 45>   H                    : -6.733230            2.598841             -4.811686
| 46>   H                    : -7.876300            1.578366             -5.571679
| 47> *
| 48>
| 49> #Run DFT-D3 single point of the particle with dimer basis set
| 50> $new_job
| 51> %base "16-129_DFT_B"
| 52> ! wB97X-D3 def2-TZVP TIGHTSCF CHELPG PMODEL
| 53>
| 54> %scf
| 55> MaxIter 1000
| 56> end
| 57>
| 58> * xyz 0 1
| 59>   C                    : -5.423742            -0.385399            -2.568477
| 60>   O                    : -6.072185            -0.124848            -3.822119
| 61>   H                    : -6.889635            0.328356             -3.630966
| 62>   H                    : -5.797947            -1.302258            -2.110480
| 63>   H                    : -4.343157            -0.522965            -2.760718
| 64>   H                    : -5.495436            0.461736             -1.828739
| 65>   C                      -7.316454            2.519714             -5.714495
| 66>   O                      -8.253568            3.568823             -5.868071
| 67>   H                      -8.943469            3.628476             -5.171581
| 68>   H                      -6.661630            2.451363             -6.563210
| 69>   H                      -6.733230            2.598841             -4.811686
| 70>   H                      -7.876300            1.578366             -5.571679
| 71> *
| 72>
| 73>                          ****END OF INPUT****
 Total Charge           Charge          ....    0
 Multiplicity           Mult            ....    1
 Number of Electrons    NEL             ....   36
Dispersion correction           -0.001484430
FINAL SINGLE POINT ENERGY      -231.469818434920
Dispersion correction           -0.000261530
FINAL SINGLE POINT ENERGY      -115.736245600114

CARTESIAN COORDINATES (ANGSTROEM)
---------------------------------
  C     -5.423742   -0.385399   -2.568477
  O     -6.072185   -0.124848   -3.822119
  H     -6.889635    0.328356   -3.630966
  H     -5.797947   -1.302258   -2.110480
  H     -4.343157   -0.522965   -2.760718
  H     -5.495436    0.461736   -1.828739
  C     -7.316454    2.519714   -5.714495
  O     -8.253568    3.568823   -5.868071
  H     -8.943469    3.628476   -5.171581
  H     -6.661630    2.451363   -6.563210
  H     -6.733230    2.598841   -4.811686
  H     -7.876300    1.578366   -5.571679

 Multiplicity           Mult            ....    1
 Number of Electrons    NEL             ....   18
 Basis Dimension        Dim             ....  172

ORBITAL ENERGIES
----------------

  NO   OCC          E(Eh)            E(eV)
   0   2.0000     -19.227116      -523.1964
   1   2.0000     -10.310951      -280.5753
   2   2.0000      -1.125777       -30.6339
   3   2.0000      -0.798417       -21.7260
   4   2.0000      -0.610849       -16.6220
   5   2.0000      -0.536566       -14.6007
   6   2.0000      -0.533158       -14.5080
   7   2.0000      -0.426466       -11.6047
   8   2.0000      -0.368005       -10.0139
   9   0.0000       0.082436         2.2432
  10   0.0000       0.114245         3.1088
  11   0.0000       0.144943         3.9441
  12   0.0000       0.179946         4.8966
  13   0.0000       0.191676         5.2158

MULLIKEN ATOMIC CHARGES
-----------------------
   0 C :    0.000253
   1 O :   -0.000293
   2 H :   -0.002899
   3 H :   -0.000015
   4 H :    0.000024
   5 H :   -0.000141
   6 C :   -0.145308
   7 O :   -0.494163
   8 H :    0.319907
   9 H :    0.124555
  10 H :    0.101343
  11 H :    0.096737
Sum of atomic charges:   -0.0000000

LOEWDIN ATOMIC CHARGES
----------------------
   0 C :   -0.000332
   1 O :   -0.001931
   2 H :   -0.004987
   3 H :   -0.000006
   4 H :   -0.000004
   5 H :   -0.000055
   6 C :   -0.376104
   7 O :   -0.091939
   8 H :    0.179471
   9 H :    0.105893
  10 H :    0.091320
  11 H :    0.098674

  Mayer bond orders larger than 0.1
B(  6-C ,  7-O ) :   0.9973 B(  6-C ,  9-H ) :   0.9663 B(  6-C , 10-H ) :   0.9744
B(  6-C , 11-H ) :   0.9855 B(  7-O ,  8-H ) :   0.8883

Dispersion correction           -0.000250197
FINAL SINGLE POINT ENERGY      -115.733052956620

DIPOLE MOMENT
-------------
                                X             Y             Z
Electronic contribution:     -1.02731       1.41769      -0.37938
Nuclear contribution   :      0.97130      -1.81197       0.89303
                        -----------------------------------------
Total Dipole Moment    :     -0.05601      -0.39428       0.51365
                        -----------------------------------------
Magnitude (a.u.)       :      0.64995
Magnitude (Debye)      :      1.65205

Rotational constants in cm-1:     4.413917     0.824758     0.790456
Rotational constants in MHz : 132325.910779 24725.633315 23697.272981

                             ****ORCA TERMINATED NORMALLY****
TOTAL RUN TIME: 0 days 0 hours 1 minutes 3 seconds 721 msec
