                         Program Version 4.1.2  - RELEASE  -
|  1> #Run DFT-D3 single point of the dimer
|  2> ! wB97X-D3 def2-TZVP TIGHTSCF CHELPG PMODEL PAL8
|  3>
|  4> %base "20-171_DFT_AB"
|  5>
|  6> %scf
|  7> MaxIter 1000
|  8> end
|  9>
| 10> * xyz 0 1
| 11>   C                      2.302825             5.372533             -7.243400
| 12>   O                      3.642213             4.939602             -6.990858
| 13>   H                      4.230001             5.532004             -7.423894
| 14>   H                      1.829396             4.900507             -8.072251
| 15>   H                      1.624187             5.072687             -6.452229
| 16>   H                      2.318800             6.441176             -7.319937
| 17>   C                      4.454285             8.442810             -10.203848
| 18>   O                      4.742119             7.468918             -9.203027
| 19>   H                      5.619634             7.120077             -9.380963
| 20>   H                      3.502124             8.966420             -10.208412
| 21>   H                      5.283847             9.216820             -10.153765
| 22>   H                      4.534951             7.926899             -11.162787
| 23> *
| 24>
| 25> #Run DFT-D3 single point of the molecule with dimer basis set
| 26> $new_job
| 27> %base "20-171_DFT_A"
| 28> ! wB97X-D3 def2-TZVP TIGHTSCF CHELPG PMODEL
| 29>
| 30> %scf
| 31> MaxIter 1000
| 32> end
| 33>
| 34> * xyz 0 1
| 35>   C                      2.302825             5.372533             -7.243400
| 36>   O                      3.642213             4.939602             -6.990858
| 37>   H                      4.230001             5.532004             -7.423894
| 38>   H                      1.829396             4.900507             -8.072251
| 39>   H                      1.624187             5.072687             -6.452229
| 40>   H                      2.318800             6.441176             -7.319937
| 41>   C                    : 4.454285             8.442810             -10.203848
| 42>   O                    : 4.742119             7.468918             -9.203027
| 43>   H                    : 5.619634             7.120077             -9.380963
| 44>   H                    : 3.502124             8.966420             -10.208412
| 45>   H                    : 5.283847             9.216820             -10.153765
| 46>   H                    : 4.534951             7.926899             -11.162787
| 47> *
| 48>
| 49> #Run DFT-D3 single point of the particle with dimer basis set
| 50> $new_job
| 51> %base "20-171_DFT_B"
| 52> ! wB97X-D3 def2-TZVP TIGHTSCF CHELPG PMODEL
| 53>
| 54> %scf
| 55> MaxIter 1000
| 56> end
| 57>
| 58> * xyz 0 1
| 59>   C                    : 2.302825             5.372533             -7.243400
| 60>   O                    : 3.642213             4.939602             -6.990858
| 61>   H                    : 4.230001             5.532004             -7.423894
| 62>   H                    : 1.829396             4.900507             -8.072251
| 63>   H                    : 1.624187             5.072687             -6.452229
| 64>   H                    : 2.318800             6.441176             -7.319937
| 65>   C                      4.454285             8.442810             -10.203848
| 66>   O                      4.742119             7.468918             -9.203027
| 67>   H                      5.619634             7.120077             -9.380963
| 68>   H                      3.502124             8.966420             -10.208412
| 69>   H                      5.283847             9.216820             -10.153765
| 70>   H                      4.534951             7.926899             -11.162787
| 71> *
| 72>
| 73>                          ****END OF INPUT****
 Total Charge           Charge          ....    0
 Multiplicity           Mult            ....    1
 Number of Electrons    NEL             ....   36
Dispersion correction           -0.001427024
FINAL SINGLE POINT ENERGY      -231.466293122877
Dispersion correction           -0.000242844
FINAL SINGLE POINT ENERGY      -115.732131831792

CARTESIAN COORDINATES (ANGSTROEM)
---------------------------------
  C      2.302825    5.372533   -7.243400
  O      3.642213    4.939602   -6.990858
  H      4.230001    5.532004   -7.423894
  H      1.829396    4.900507   -8.072251
  H      1.624187    5.072687   -6.452229
  H      2.318800    6.441176   -7.319937
  C      4.454285    8.442810  -10.203848
  O      4.742119    7.468918   -9.203027
  H      5.619634    7.120077   -9.380963
  H      3.502124    8.966420  -10.208412
  H      5.283847    9.216820  -10.153765
  H      4.534951    7.926899  -11.162787

 Multiplicity           Mult            ....    1
 Number of Electrons    NEL             ....   18
 Basis Dimension        Dim             ....  172

ORBITAL ENERGIES
----------------

  NO   OCC          E(Eh)            E(eV)
   0   2.0000     -19.229182      -523.2526
   1   2.0000     -10.319222      -280.8003
   2   2.0000      -1.133087       -30.8329
   3   2.0000      -0.793719       -21.5982
   4   2.0000      -0.605071       -16.4648
   5   2.0000      -0.539005       -14.6671
   6   2.0000      -0.537873       -14.6363
   7   2.0000      -0.428556       -11.6616
   8   2.0000      -0.369942       -10.0666
   9   0.0000       0.099444         2.7060
  10   0.0000       0.120837         3.2882
  11   0.0000       0.149116         4.0577
  12   0.0000       0.189845         5.1659
  13   0.0000       0.196448         5.3456

MULLIKEN ATOMIC CHARGES
-----------------------
   0 C :    0.001158
   1 O :    0.000366
   2 H :   -0.005240
   3 H :   -0.000273
   4 H :   -0.000233
   5 H :   -0.002967
   6 C :   -0.175949
   7 O :   -0.469594
   8 H :    0.318243
   9 H :    0.131257
  10 H :    0.098361
  11 H :    0.104870
Sum of atomic charges:   -0.0000000

LOEWDIN ATOMIC CHARGES
----------------------
   0 C :   -0.003294
   1 O :   -0.000558
   2 H :   -0.008054
   3 H :   -0.000124
   4 H :   -0.000045
   5 H :   -0.001563
   6 C :   -0.379032
   7 O :   -0.083092
   8 H :    0.171699
   9 H :    0.106924
  10 H :    0.102059
  11 H :    0.095079

  Mayer bond orders larger than 0.1
B(  6-C ,  7-O ) :   0.9798 B(  6-C ,  9-H ) :   0.9679 B(  6-C , 10-H ) :   0.9804
B(  6-C , 11-H ) :   0.9830 B(  7-O ,  8-H ) :   0.8940

Dispersion correction           -0.000231906
FINAL SINGLE POINT ENERGY      -115.729656038612

DIPOLE MOMENT
-------------
                                X             Y             Z
Electronic contribution:      0.04063      -1.19629       1.40470
Nuclear contribution   :      0.38361       1.37419      -1.94211
                        -----------------------------------------
Total Dipole Moment    :      0.42424       0.17791      -0.53741
                        -----------------------------------------
Magnitude (a.u.)       :      0.70742
Magnitude (Debye)      :      1.79811

Rotational constants in cm-1:     4.279994     0.815639     0.789618
Rotational constants in MHz : 128310.993085 24452.254858 23672.138910

                             ****ORCA TERMINATED NORMALLY****
TOTAL RUN TIME: 0 days 0 hours 1 minutes 8 seconds 654 msec
