                         Program Version 4.1.2  - RELEASE  -
|  1> #Run DFT-D3 single point of the dimer
|  2> ! wB97X-D3 def2-TZVP TIGHTSCF CHELPG PMODEL PAL8
|  3>
|  4> %base "10-36_DFT_AB"
|  5>
|  6> %scf
|  7> MaxIter 1000
|  8> end
|  9>
| 10> * xyz 0 1
| 11>   C                      -0.107336            -6.761295            -6.715591
| 12>   O                      -0.840736            -7.925506            -6.762882
| 13>   H                      -0.625648            -8.537022            -6.098598
| 14>   H                      0.918834             -6.900276            -6.443235
| 15>   H                      -0.136207            -6.196261            -7.628469
| 16>   H                      -0.460480            -6.062073            -5.931819
| 17>   C                      -1.628526            -10.375005           -9.102687
| 18>   O                      -1.132023            -9.083415            -9.327182
| 19>   H                      -1.163365            -8.582984            -8.526550
| 20>   H                      -2.603047            -10.197544           -8.616572
| 21>   H                      -1.761198            -10.908630           -10.061052
| 22>   H                      -0.896033            -10.918688           -8.564937
| 23> *
| 24>
| 25> #Run DFT-D3 single point of the molecule with dimer basis set
| 26> $new_job
| 27> %base "10-36_DFT_A"
| 28> ! wB97X-D3 def2-TZVP TIGHTSCF CHELPG PMODEL
| 29>
| 30> %scf
| 31> MaxIter 1000
| 32> end
| 33>
| 34> * xyz 0 1
| 35>   C                      -0.107336            -6.761295            -6.715591
| 36>   O                      -0.840736            -7.925506            -6.762882
| 37>   H                      -0.625648            -8.537022            -6.098598
| 38>   H                      0.918834             -6.900276            -6.443235
| 39>   H                      -0.136207            -6.196261            -7.628469
| 40>   H                      -0.460480            -6.062073            -5.931819
| 41>   C                    : -1.628526            -10.375005           -9.102687
| 42>   O                    : -1.132023            -9.083415            -9.327182
| 43>   H                    : -1.163365            -8.582984            -8.526550
| 44>   H                    : -2.603047            -10.197544           -8.616572
| 45>   H                    : -1.761198            -10.908630           -10.061052
| 46>   H                    : -0.896033            -10.918688           -8.564937
| 47> *
| 48>
| 49> #Run DFT-D3 single point of the particle with dimer basis set
| 50> $new_job
| 51> %base "10-36_DFT_B"
| 52> ! wB97X-D3 def2-TZVP TIGHTSCF CHELPG PMODEL
| 53>
| 54> %scf
| 55> MaxIter 1000
| 56> end
| 57>
| 58> * xyz 0 1
| 59>   C                    : -0.107336            -6.761295            -6.715591
| 60>   O                    : -0.840736            -7.925506            -6.762882
| 61>   H                    : -0.625648            -8.537022            -6.098598
| 62>   H                    : 0.918834             -6.900276            -6.443235
| 63>   H                    : -0.136207            -6.196261            -7.628469
| 64>   H                    : -0.460480            -6.062073            -5.931819
| 65>   C                      -1.628526            -10.375005           -9.102687
| 66>   O                      -1.132023            -9.083415            -9.327182
| 67>   H                      -1.163365            -8.582984            -8.526550
| 68>   H                      -2.603047            -10.197544           -8.616572
| 69>   H                      -1.761198            -10.908630           -10.061052
| 70>   H                      -0.896033            -10.918688           -8.564937
| 71> *
| 72>
| 73>                          ****END OF INPUT****
 Total Charge           Charge          ....    0
 Multiplicity           Mult            ....    1
 Number of Electrons    NEL             ....   36
Dispersion correction           -0.001745074
FINAL SINGLE POINT ENERGY      -231.472203650097
Dispersion correction           -0.000241885
FINAL SINGLE POINT ENERGY      -115.733036359204

CARTESIAN COORDINATES (ANGSTROEM)
---------------------------------
  C     -0.107336   -6.761295   -6.715591
  O     -0.840736   -7.925506   -6.762882
  H     -0.625648   -8.537022   -6.098598
  H      0.918834   -6.900276   -6.443235
  H     -0.136207   -6.196261   -7.628469
  H     -0.460480   -6.062073   -5.931819
  C     -1.628526  -10.375005   -9.102687
  O     -1.132023   -9.083415   -9.327182
  H     -1.163365   -8.582984   -8.526550
  H     -2.603047  -10.197544   -8.616572
  H     -1.761198  -10.908630  -10.061052
  H     -0.896033  -10.918688   -8.564937

 Multiplicity           Mult            ....    1
 Number of Electrons    NEL             ....   18
 Basis Dimension        Dim             ....  172

ORBITAL ENERGIES
----------------

  NO   OCC          E(Eh)            E(eV)
   0   2.0000     -19.222075      -523.0593
   1   2.0000     -10.310331      -280.5584
   2   2.0000      -1.139985       -31.0206
   3   2.0000      -0.796044       -21.6614
   4   2.0000      -0.606443       -16.5021
   5   2.0000      -0.559400       -15.2220
   6   2.0000      -0.530457       -14.4345
   7   2.0000      -0.422484       -11.4964
   8   2.0000      -0.371282       -10.1031
   9   0.0000       0.072098         1.9619
  10   0.0000       0.129012         3.5106
  11   0.0000       0.158091         4.3019
  12   0.0000       0.170154         4.6301
  13   0.0000       0.193812         5.2739

MULLIKEN ATOMIC CHARGES
-----------------------
   0 C :   -0.003690
   1 O :   -0.004775
   2 H :    0.000092
   3 H :    0.000384
   4 H :    0.000132
   5 H :    0.000077
   6 C :   -0.152805
   7 O :   -0.477345
   8 H :    0.312494
   9 H :    0.103088
  10 H :    0.116720
  11 H :    0.105628
Sum of atomic charges:   -0.0000000

LOEWDIN ATOMIC CHARGES
----------------------
   0 C :   -0.005244
   1 O :   -0.021522
   2 H :   -0.001603
   3 H :   -0.000095
   4 H :   -0.000528
   5 H :   -0.000104
   6 C :   -0.383001
   7 O :   -0.057105
   8 H :    0.166898
   9 H :    0.102299
  10 H :    0.111300
  11 H :    0.088707

  Mayer bond orders larger than 0.1
B(  6-C ,  7-O ) :   0.9825 B(  6-C ,  9-H ) :   0.9919 B(  6-C , 10-H ) :   0.9717
B(  6-C , 11-H ) :   0.9763 B(  7-O ,  8-H ) :   0.9066

Dispersion correction           -0.000209502
FINAL SINGLE POINT ENERGY      -115.731639638094

DIPOLE MOMENT
-------------
                                X             Y             Z
Electronic contribution:      0.63878       1.47127      -0.36173
Nuclear contribution   :     -0.85251      -1.67931       0.94491
                        -----------------------------------------
Total Dipole Moment    :     -0.21373      -0.20804       0.58318
                        -----------------------------------------
Magnitude (a.u.)       :      0.65503
Magnitude (Debye)      :      1.66496

Rotational constants in cm-1:     4.255108     0.854519     0.828307
Rotational constants in MHz : 127564.936768 25617.845442 24832.004947

                             ****ORCA TERMINATED NORMALLY****
TOTAL RUN TIME: 0 days 0 hours 1 minutes 5 seconds 726 msec
