                         Program Version 4.1.2  - RELEASE  -
|  1> #Run DFT-D3 single point of the dimer
|  2> ! wB97X-D3 def2-TZVP TIGHTSCF CHELPG PMODEL PAL8
|  3>
|  4> %base "21-115_DFT_AB"
|  5>
|  6> %scf
|  7> MaxIter 1000
|  8> end
|  9>
| 10> * xyz 0 1
| 11>   C                      11.122431            -6.628041            -1.890317
| 12>   O                      9.905243             -7.179315            -1.501402
| 13>   H                      10.068682            -7.746275            -0.749948
| 14>   H                      10.926274            -6.025471            -2.797524
| 15>   H                      11.515017            -5.906287            -1.184463
| 16>   H                      11.829085            -7.345357            -2.185761
| 17>   C                      7.466065             -3.999256            0.827095
| 18>   O                      8.832655             -4.358056            0.492466
| 19>   H                      8.881168             -4.298765            -0.452549
| 20>   H                      6.750486             -4.461312            0.112883
| 21>   H                      7.217903             -4.383547            1.770714
| 22>   H                      7.366971             -2.931192            0.819060
| 23> *
| 24>
| 25> #Run DFT-D3 single point of the molecule with dimer basis set
| 26> $new_job
| 27> %base "21-115_DFT_A"
| 28> ! wB97X-D3 def2-TZVP TIGHTSCF CHELPG PMODEL
| 29>
| 30> %scf
| 31> MaxIter 1000
| 32> end
| 33>
| 34> * xyz 0 1
| 35>   C                      11.122431            -6.628041            -1.890317
| 36>   O                      9.905243             -7.179315            -1.501402
| 37>   H                      10.068682            -7.746275            -0.749948
| 38>   H                      10.926274            -6.025471            -2.797524
| 39>   H                      11.515017            -5.906287            -1.184463
| 40>   H                      11.829085            -7.345357            -2.185761
| 41>   C                    : 7.466065             -3.999256            0.827095
| 42>   O                    : 8.832655             -4.358056            0.492466
| 43>   H                    : 8.881168             -4.298765            -0.452549
| 44>   H                    : 6.750486             -4.461312            0.112883
| 45>   H                    : 7.217903             -4.383547            1.770714
| 46>   H                    : 7.366971             -2.931192            0.819060
| 47> *
| 48>
| 49> #Run DFT-D3 single point of the particle with dimer basis set
| 50> $new_job
| 51> %base "21-115_DFT_B"
| 52> ! wB97X-D3 def2-TZVP TIGHTSCF CHELPG PMODEL
| 53>
| 54> %scf
| 55> MaxIter 1000
| 56> end
| 57>
| 58> * xyz 0 1
| 59>   C                    : 11.122431            -6.628041            -1.890317
| 60>   O                    : 9.905243             -7.179315            -1.501402
| 61>   H                    : 10.068682            -7.746275            -0.749948
| 62>   H                    : 10.926274            -6.025471            -2.797524
| 63>   H                    : 11.515017            -5.906287            -1.184463
| 64>   H                    : 11.829085            -7.345357            -2.185761
| 65>   C                      7.466065             -3.999256            0.827095
| 66>   O                      8.832655             -4.358056            0.492466
| 67>   H                      8.881168             -4.298765            -0.452549
| 68>   H                      6.750486             -4.461312            0.112883
| 69>   H                      7.217903             -4.383547            1.770714
| 70>   H                      7.366971             -2.931192            0.819060
| 71> *
| 72>
| 73>                          ****END OF INPUT****
 Total Charge           Charge          ....    0
 Multiplicity           Mult            ....    1
 Number of Electrons    NEL             ....   36
Dispersion correction           -0.001284487
FINAL SINGLE POINT ENERGY      -231.471136454045
Dispersion correction           -0.000228908
FINAL SINGLE POINT ENERGY      -115.734883229714

CARTESIAN COORDINATES (ANGSTROEM)
---------------------------------
  C     11.122431   -6.628041   -1.890317
  O      9.905243   -7.179315   -1.501402
  H     10.068682   -7.746275   -0.749948
  H     10.926274   -6.025471   -2.797524
  H     11.515017   -5.906287   -1.184463
  H     11.829085   -7.345357   -2.185761
  C      7.466065   -3.999256    0.827095
  O      8.832655   -4.358056    0.492466
  H      8.881168   -4.298765   -0.452549
  H      6.750486   -4.461312    0.112883
  H      7.217903   -4.383547    1.770714
  H      7.366971   -2.931192    0.819060

 Multiplicity           Mult            ....    1
 Number of Electrons    NEL             ....   18
 Basis Dimension        Dim             ....  172

ORBITAL ENERGIES
----------------

  NO   OCC          E(Eh)            E(eV)
   0   2.0000     -19.228309      -523.2289
   1   2.0000     -10.311296      -280.5846
   2   2.0000      -1.128359       -30.7042
   3   2.0000      -0.801161       -21.8007
   4   2.0000      -0.602369       -16.3913
   5   2.0000      -0.546492       -14.8708
   6   2.0000      -0.525322       -14.2947
   7   2.0000      -0.438880       -11.9425
   8   2.0000      -0.376319       -10.2402
   9   0.0000       0.083153         2.2627
  10   0.0000       0.125811         3.4235
  11   0.0000       0.155342         4.2271
  12   0.0000       0.168411         4.5827
  13   0.0000       0.194192         5.2842

MULLIKEN ATOMIC CHARGES
-----------------------
   0 C :   -0.001610
   1 O :   -0.000487
   2 H :   -0.000513
   3 H :    0.000169
   4 H :   -0.000637
   5 H :   -0.000050
   6 C :   -0.168743
   7 O :   -0.475286
   8 H :    0.311928
   9 H :    0.103106
  10 H :    0.121025
  11 H :    0.111098
Sum of atomic charges:    0.0000000

LOEWDIN ATOMIC CHARGES
----------------------
   0 C :   -0.001650
   1 O :   -0.001292
   2 H :   -0.000644
   3 H :   -0.000066
   4 H :   -0.000585
   5 H :   -0.000025
   6 C :   -0.347687
   7 O :   -0.096884
   8 H :    0.158056
   9 H :    0.101102
  10 H :    0.096530
  11 H :    0.093146

  Mayer bond orders larger than 0.1
B(  6-C ,  7-O ) :   0.9960 B(  6-C ,  9-H ) :   0.9802 B(  6-C , 10-H ) :   0.9756
B(  6-C , 11-H ) :   0.9761 B(  7-O ,  8-H ) :   0.9049

Dispersion correction           -0.000237120
FINAL SINGLE POINT ENERGY      -115.734432067222

DIPOLE MOMENT
-------------
                                X             Y             Z
Electronic contribution:      1.70615      -0.42313      -0.19446
Nuclear contribution   :     -2.26183       0.60589      -0.24288
                        -----------------------------------------
Total Dipole Moment    :     -0.55567       0.18277      -0.43734
                        -----------------------------------------
Magnitude (a.u.)       :      0.73037
Magnitude (Debye)      :      1.85646

Rotational constants in cm-1:     4.347798     0.803062     0.779114
Rotational constants in MHz : 130343.691150 24075.190418 23357.241209

                             ****ORCA TERMINATED NORMALLY****
TOTAL RUN TIME: 0 days 0 hours 0 minutes 54 seconds 720 msec
