                         Program Version 4.1.2  - RELEASE  -
|  1> #Run DFT-D3 single point of the dimer
|  2> ! wB97X-D3 def2-TZVP TIGHTSCF CHELPG PMODEL PAL8
|  3>
|  4> %base "16-133_DFT_AB"
|  5>
|  6> %scf
|  7> MaxIter 1000
|  8> end
|  9>
| 10> * xyz 0 1
| 11>   C                      -5.763177            10.794706            6.945043
| 12>   O                      -5.893133            10.454738            8.266319
| 13>   H                      -6.478443            11.113643            8.738808
| 14>   H                      -6.778517            10.830846            6.337616
| 15>   H                      -5.163623            11.696294            6.813743
| 16>   H                      -5.224453            9.985906             6.412803
| 17>   C                      -6.288564            7.321391             9.342525
| 18>   O                      -6.551368            6.072985             8.771686
| 19>   H                      -6.181356            6.100309             7.882743
| 20>   H                      -5.244810            7.621234             9.418924
| 21>   H                      -6.769384            8.110163             8.728446
| 22>   H                      -6.762811            7.352081             10.372824
| 23> *
| 24>
| 25> #Run DFT-D3 single point of the molecule with dimer basis set
| 26> $new_job
| 27> %base "16-133_DFT_A"
| 28> ! wB97X-D3 def2-TZVP TIGHTSCF CHELPG PMODEL
| 29>
| 30> %scf
| 31> MaxIter 1000
| 32> end
| 33>
| 34> * xyz 0 1
| 35>   C                      -5.763177            10.794706            6.945043
| 36>   O                      -5.893133            10.454738            8.266319
| 37>   H                      -6.478443            11.113643            8.738808
| 38>   H                      -6.778517            10.830846            6.337616
| 39>   H                      -5.163623            11.696294            6.813743
| 40>   H                      -5.224453            9.985906             6.412803
| 41>   C                    : -6.288564            7.321391             9.342525
| 42>   O                    : -6.551368            6.072985             8.771686
| 43>   H                    : -6.181356            6.100309             7.882743
| 44>   H                    : -5.244810            7.621234             9.418924
| 45>   H                    : -6.769384            8.110163             8.728446
| 46>   H                    : -6.762811            7.352081             10.372824
| 47> *
| 48>
| 49> #Run DFT-D3 single point of the particle with dimer basis set
| 50> $new_job
| 51> %base "16-133_DFT_B"
| 52> ! wB97X-D3 def2-TZVP TIGHTSCF CHELPG PMODEL
| 53>
| 54> %scf
| 55> MaxIter 1000
| 56> end
| 57>
| 58> * xyz 0 1
| 59>   C                    : -5.763177            10.794706            6.945043
| 60>   O                    : -5.893133            10.454738            8.266319
| 61>   H                    : -6.478443            11.113643            8.738808
| 62>   H                    : -6.778517            10.830846            6.337616
| 63>   H                    : -5.163623            11.696294            6.813743
| 64>   H                    : -5.224453            9.985906             6.412803
| 65>   C                      -6.288564            7.321391             9.342525
| 66>   O                      -6.551368            6.072985             8.771686
| 67>   H                      -6.181356            6.100309             7.882743
| 68>   H                      -5.244810            7.621234             9.418924
| 69>   H                      -6.769384            8.110163             8.728446
| 70>   H                      -6.762811            7.352081             10.372824
| 71> *
| 72>
| 73>                          ****END OF INPUT****
 Total Charge           Charge          ....    0
 Multiplicity           Mult            ....    1
 Number of Electrons    NEL             ....   36
Dispersion correction           -0.001615014
FINAL SINGLE POINT ENERGY      -231.466151332924
Dispersion correction           -0.000259392
FINAL SINGLE POINT ENERGY      -115.730042783779

CARTESIAN COORDINATES (ANGSTROEM)
---------------------------------
  C     -5.763177   10.794706    6.945043
  O     -5.893133   10.454738    8.266319
  H     -6.478443   11.113643    8.738808
  H     -6.778517   10.830846    6.337616
  H     -5.163623   11.696294    6.813743
  H     -5.224453    9.985906    6.412803
  C     -6.288564    7.321391    9.342525
  O     -6.551368    6.072985    8.771686
  H     -6.181356    6.100309    7.882743
  H     -5.244810    7.621234    9.418924
  H     -6.769384    8.110163    8.728446
  H     -6.762811    7.352081   10.372824

 Multiplicity           Mult            ....    1
 Number of Electrons    NEL             ....   18
 Basis Dimension        Dim             ....  172

ORBITAL ENERGIES
----------------

  NO   OCC          E(Eh)            E(eV)
   0   2.0000     -19.233003      -523.3566
   1   2.0000     -10.316534      -280.7272
   2   2.0000      -1.143299       -31.1107
   3   2.0000      -0.789924       -21.4949
   4   2.0000      -0.616861       -16.7856
   5   2.0000      -0.539405       -14.6780
   6   2.0000      -0.524492       -14.2722
   7   2.0000      -0.435834       -11.8596
   8   2.0000      -0.372499       -10.1362
   9   0.0000       0.076819         2.0904
  10   0.0000       0.116853         3.1797
  11   0.0000       0.147138         4.0038
  12   0.0000       0.171713         4.6725
  13   0.0000       0.182039         4.9535

MULLIKEN ATOMIC CHARGES
-----------------------
   0 C :   -0.000760
   1 O :   -0.001138
   2 H :   -0.000365
   3 H :   -0.000105
   4 H :    0.000010
   5 H :    0.000068
   6 C :   -0.159591
   7 O :   -0.464498
   8 H :    0.314106
   9 H :    0.100471
  10 H :    0.097060
  11 H :    0.114741
Sum of atomic charges:   -0.0000000

LOEWDIN ATOMIC CHARGES
----------------------
   0 C :   -0.002243
   1 O :   -0.006271
   2 H :   -0.000815
   3 H :   -0.000110
   4 H :   -0.000042
   5 H :   -0.000189
   6 C :   -0.406721
   7 O :   -0.064000
   8 H :    0.173088
   9 H :    0.091227
  10 H :    0.098591
  11 H :    0.117484

  Mayer bond orders larger than 0.1
B(  6-C ,  7-O ) :   1.0041 B(  6-C ,  9-H ) :   0.9663 B(  6-C , 10-H ) :   0.9846
B(  6-C , 11-H ) :   0.9694 B(  7-O ,  8-H ) :   0.8990

Dispersion correction           -0.000236248
FINAL SINGLE POINT ENERGY      -115.734765964556

DIPOLE MOMENT
-------------
                                X             Y             Z
Electronic contribution:     -0.31911      -1.76251      -0.61914
Nuclear contribution   :      0.65106       2.24657       0.27266
                        -----------------------------------------
Total Dipole Moment    :      0.33194       0.48406      -0.34648
                        -----------------------------------------
Magnitude (a.u.)       :      0.68158
Magnitude (Debye)      :      1.73244

Rotational constants in cm-1:     4.202343     0.847225     0.808469
Rotational constants in MHz : 125983.061796 25399.169006 24237.297237

                             ****ORCA TERMINATED NORMALLY****
TOTAL RUN TIME: 0 days 0 hours 1 minutes 6 seconds 740 msec
