                         Program Version 4.1.2  - RELEASE  -
|  1> #Run DFT-D3 single point of the dimer
|  2> ! wB97X-D3 def2-TZVP TIGHTSCF CHELPG PMODEL PAL8
|  3>
|  4> %base "13-86_DFT_AB"
|  5>
|  6> %scf
|  7> MaxIter 1000
|  8> end
|  9>
| 10> * xyz 0 1
| 11>   C                      -2.473489            2.754382             -3.587635
| 12>   O                      -2.443331            4.137999             -3.468418
| 13>   H                      -2.406738            4.647574             -4.288539
| 14>   H                      -1.822514            2.438176             -4.417710
| 15>   H                      -2.095098            2.370439             -2.644488
| 16>   H                      -3.458589            2.327411             -3.868728
| 17>   C                      -3.597941            7.981117             -3.330310
| 18>   O                      -3.746181            6.622635             -3.215281
| 19>   H                      -2.888624            6.161588             -3.122469
| 20>   H                      -4.486749            8.586821             -3.163398
| 21>   H                      -2.815400            8.344847             -2.598938
| 22>   H                      -3.304377            8.236626             -4.371332
| 23> *
| 24>
| 25> #Run DFT-D3 single point of the molecule with dimer basis set
| 26> $new_job
| 27> %base "13-86_DFT_A"
| 28> ! wB97X-D3 def2-TZVP TIGHTSCF CHELPG PMODEL
| 29>
| 30> %scf
| 31> MaxIter 1000
| 32> end
| 33>
| 34> * xyz 0 1
| 35>   C                      -2.473489            2.754382             -3.587635
| 36>   O                      -2.443331            4.137999             -3.468418
| 37>   H                      -2.406738            4.647574             -4.288539
| 38>   H                      -1.822514            2.438176             -4.417710
| 39>   H                      -2.095098            2.370439             -2.644488
| 40>   H                      -3.458589            2.327411             -3.868728
| 41>   C                    : -3.597941            7.981117             -3.330310
| 42>   O                    : -3.746181            6.622635             -3.215281
| 43>   H                    : -2.888624            6.161588             -3.122469
| 44>   H                    : -4.486749            8.586821             -3.163398
| 45>   H                    : -2.815400            8.344847             -2.598938
| 46>   H                    : -3.304377            8.236626             -4.371332
| 47> *
| 48>
| 49> #Run DFT-D3 single point of the particle with dimer basis set
| 50> $new_job
| 51> %base "13-86_DFT_B"
| 52> ! wB97X-D3 def2-TZVP TIGHTSCF CHELPG PMODEL
| 53>
| 54> %scf
| 55> MaxIter 1000
| 56> end
| 57>
| 58> * xyz 0 1
| 59>   C                    : -2.473489            2.754382             -3.587635
| 60>   O                    : -2.443331            4.137999             -3.468418
| 61>   H                    : -2.406738            4.647574             -4.288539
| 62>   H                    : -1.822514            2.438176             -4.417710
| 63>   H                    : -2.095098            2.370439             -2.644488
| 64>   H                    : -3.458589            2.327411             -3.868728
| 65>   C                      -3.597941            7.981117             -3.330310
| 66>   O                      -3.746181            6.622635             -3.215281
| 67>   H                      -2.888624            6.161588             -3.122469
| 68>   H                      -4.486749            8.586821             -3.163398
| 69>   H                      -2.815400            8.344847             -2.598938
| 70>   H                      -3.304377            8.236626             -4.371332
| 71> *
| 72>
| 73>                          ****END OF INPUT****
 Total Charge           Charge          ....    0
 Multiplicity           Mult            ....    1
 Number of Electrons    NEL             ....   36
Dispersion correction           -0.001330450
FINAL SINGLE POINT ENERGY      -231.466976206491
Dispersion correction           -0.000251151
FINAL SINGLE POINT ENERGY      -115.733759790028

CARTESIAN COORDINATES (ANGSTROEM)
---------------------------------
  C     -2.473489    2.754382   -3.587635
  O     -2.443331    4.137999   -3.468418
  H     -2.406738    4.647574   -4.288539
  H     -1.822514    2.438176   -4.417710
  H     -2.095098    2.370439   -2.644488
  H     -3.458589    2.327411   -3.868728
  C     -3.597941    7.981117   -3.330310
  O     -3.746181    6.622635   -3.215281
  H     -2.888624    6.161588   -3.122469
  H     -4.486749    8.586821   -3.163398
  H     -2.815400    8.344847   -2.598938
  H     -3.304377    8.236626   -4.371332

 Multiplicity           Mult            ....    1
 Number of Electrons    NEL             ....   18
 Basis Dimension        Dim             ....  172

ORBITAL ENERGIES
----------------

  NO   OCC          E(Eh)            E(eV)
   0   2.0000     -19.231403      -523.3131
   1   2.0000     -10.315375      -280.6956
   2   2.0000      -1.145095       -31.1596
   3   2.0000      -0.791678       -21.5426
   4   2.0000      -0.614689       -16.7265
   5   2.0000      -0.544519       -14.8171
   6   2.0000      -0.538821       -14.6621
   7   2.0000      -0.420300       -11.4369
   8   2.0000      -0.369011       -10.0413
   9   0.0000       0.080622         2.1938
  10   0.0000       0.120801         3.2871
  11   0.0000       0.150860         4.1051
  12   0.0000       0.179445         4.8829
  13   0.0000       0.200058         5.4439

MULLIKEN ATOMIC CHARGES
-----------------------
   0 C :    0.000549
   1 O :    0.000440
   2 H :   -0.007290
   3 H :   -0.000035
   4 H :    0.000002
   5 H :   -0.000126
   6 C :   -0.161067
   7 O :   -0.462054
   8 H :    0.324055
   9 H :    0.120203
  10 H :    0.095047
  11 H :    0.090277
Sum of atomic charges:   -0.0000000

LOEWDIN ATOMIC CHARGES
----------------------
   0 C :   -0.000614
   1 O :   -0.013166
   2 H :   -0.009405
   3 H :   -0.000012
   4 H :   -0.000021
   5 H :   -0.000031
   6 C :   -0.423334
   7 O :   -0.045263
   8 H :    0.192709
   9 H :    0.105287
  10 H :    0.099743
  11 H :    0.094107

  Mayer bond orders larger than 0.1
B(  6-C ,  7-O ) :   1.0115 B(  6-C ,  9-H ) :   0.9674 B(  6-C , 10-H ) :   0.9870
B(  6-C , 11-H ) :   0.9778 B(  7-O ,  8-H ) :   0.8856

Dispersion correction           -0.000239076
FINAL SINGLE POINT ENERGY      -115.731848413871

DIPOLE MOMENT
-------------
                                X             Y             Z
Electronic contribution:     -0.43257      -1.82646       0.19233
Nuclear contribution   :      1.01159       2.04808      -0.16132
                        -----------------------------------------
Total Dipole Moment    :      0.57901       0.22161       0.03100
                        -----------------------------------------
Magnitude (a.u.)       :      0.62075
Magnitude (Debye)      :      1.57782

Rotational constants in cm-1:     4.287673     0.857280     0.829562
Rotational constants in MHz : 128541.193942 25700.605036 24869.648963

                             ****ORCA TERMINATED NORMALLY****
TOTAL RUN TIME: 0 days 0 hours 1 minutes 7 seconds 794 msec
