                         Program Version 4.1.2  - RELEASE  -
|  1> #Run DFT-D3 single point of the dimer
|  2> ! wB97X-D3 def2-TZVP TIGHTSCF CHELPG PMODEL PAL8
|  3>
|  4> %base "9-149_DFT_AB"
|  5>
|  6> %scf
|  7> MaxIter 1000
|  8> end
|  9>
| 10> * xyz 0 1
| 11>   C                      -6.866469            4.421683             8.464910
| 12>   O                      -6.557333            3.411897             9.441500
| 13>   H                      -6.710428            3.816482             10.311803
| 14>   H                      -7.837406            4.893763             8.627305
| 15>   H                      -6.044514            5.202240             8.393130
| 16>   H                      -7.024447            3.977563             7.509543
| 17>   C                      -6.479219            -1.361711            9.804237
| 18>   O                      -7.633055            -0.737605            10.280932
| 19>   H                      -7.871351            -1.024000            11.174917
| 20>   H                      -5.711295            -1.646732            10.593939
| 21>   H                      -6.731494            -2.359005            9.360139
| 22>   H                      -5.839508            -0.816338            9.086842
| 23> *
| 24>
| 25> #Run DFT-D3 single point of the molecule with dimer basis set
| 26> $new_job
| 27> %base "9-149_DFT_A"
| 28> ! wB97X-D3 def2-TZVP TIGHTSCF CHELPG PMODEL
| 29>
| 30> %scf
| 31> MaxIter 1000
| 32> end
| 33>
| 34> * xyz 0 1
| 35>   C                      -6.866469            4.421683             8.464910
| 36>   O                      -6.557333            3.411897             9.441500
| 37>   H                      -6.710428            3.816482             10.311803
| 38>   H                      -7.837406            4.893763             8.627305
| 39>   H                      -6.044514            5.202240             8.393130
| 40>   H                      -7.024447            3.977563             7.509543
| 41>   C                    : -6.479219            -1.361711            9.804237
| 42>   O                    : -7.633055            -0.737605            10.280932
| 43>   H                    : -7.871351            -1.024000            11.174917
| 44>   H                    : -5.711295            -1.646732            10.593939
| 45>   H                    : -6.731494            -2.359005            9.360139
| 46>   H                    : -5.839508            -0.816338            9.086842
| 47> *
| 48>
| 49> #Run DFT-D3 single point of the particle with dimer basis set
| 50> $new_job
| 51> %base "9-149_DFT_B"
| 52> ! wB97X-D3 def2-TZVP TIGHTSCF CHELPG PMODEL
| 53>
| 54> %scf
| 55> MaxIter 1000
| 56> end
| 57>
| 58> * xyz 0 1
| 59>   C                    : -6.866469            4.421683             8.464910
| 60>   O                    : -6.557333            3.411897             9.441500
| 61>   H                    : -6.710428            3.816482             10.311803
| 62>   H                    : -7.837406            4.893763             8.627305
| 63>   H                    : -6.044514            5.202240             8.393130
| 64>   H                    : -7.024447            3.977563             7.509543
| 65>   C                      -6.479219            -1.361711            9.804237
| 66>   O                      -7.633055            -0.737605            10.280932
| 67>   H                      -7.871351            -1.024000            11.174917
| 68>   H                      -5.711295            -1.646732            10.593939
| 69>   H                      -6.731494            -2.359005            9.360139
| 70>   H                      -5.839508            -0.816338            9.086842
| 71> *
| 72>
| 73>                          ****END OF INPUT****
 Total Charge           Charge          ....    0
 Multiplicity           Mult            ....    1
 Number of Electrons    NEL             ....   36
Dispersion correction           -0.000759708
FINAL SINGLE POINT ENERGY      -231.462628392722
Dispersion correction           -0.000260128
FINAL SINGLE POINT ENERGY      -115.733675976591

CARTESIAN COORDINATES (ANGSTROEM)
---------------------------------
  C     -6.866469    4.421683    8.464910
  O     -6.557333    3.411897    9.441500
  H     -6.710428    3.816482   10.311803
  H     -7.837406    4.893763    8.627305
  H     -6.044514    5.202240    8.393130
  H     -7.024447    3.977563    7.509543
  C     -6.479219   -1.361711    9.804237
  O     -7.633055   -0.737605   10.280932
  H     -7.871351   -1.024000   11.174917
  H     -5.711295   -1.646732   10.593939
  H     -6.731494   -2.359005    9.360139
  H     -5.839508   -0.816338    9.086842

 Multiplicity           Mult            ....    1
 Number of Electrons    NEL             ....   18
 Basis Dimension        Dim             ....  172

ORBITAL ENERGIES
----------------

  NO   OCC          E(Eh)            E(eV)
   0   2.0000     -19.234765      -523.4046
   1   2.0000     -10.321461      -280.8612
   2   2.0000      -1.139976       -31.0203
   3   2.0000      -0.793100       -21.5814
   4   2.0000      -0.618563       -16.8320
   5   2.0000      -0.540101       -14.6969
   6   2.0000      -0.524025       -14.2594
   7   2.0000      -0.423699       -11.5294
   8   2.0000      -0.372278       -10.1302
   9   0.0000       0.091774         2.4973
  10   0.0000       0.113216         3.0808
  11   0.0000       0.146562         3.9882
  12   0.0000       0.169660         4.6167
  13   0.0000       0.191121         5.2007

MULLIKEN ATOMIC CHARGES
-----------------------
   0 C :   -0.000075
   1 O :   -0.000113
   2 H :   -0.000080
   3 H :    0.000005
   4 H :    0.000001
   5 H :    0.000003
   6 C :   -0.169642
   7 O :   -0.476076
   8 H :    0.326149
   9 H :    0.098078
  10 H :    0.099215
  11 H :    0.122536
Sum of atomic charges:   -0.0000000

LOEWDIN ATOMIC CHARGES
----------------------
   0 C :   -0.000017
   1 O :   -0.000128
   2 H :   -0.000071
   3 H :   -0.000000
   4 H :   -0.000000
   5 H :   -0.000001
   6 C :   -0.416420
   7 O :   -0.066764
   8 H :    0.178472
   9 H :    0.099957
  10 H :    0.097250
  11 H :    0.107721

  Mayer bond orders larger than 0.1
B(  6-C ,  7-O ) :   1.0041 B(  6-C ,  9-H ) :   0.9766 B(  6-C , 10-H ) :   0.9774
B(  6-C , 11-H ) :   0.9671 B(  7-O ,  8-H ) :   0.8877

Dispersion correction           -0.000274497
FINAL SINGLE POINT ENERGY      -115.729707154961

DIPOLE MOMENT
-------------
                                X             Y             Z
Electronic contribution:     -1.65768       1.07549       0.48707
Nuclear contribution   :      1.95941      -1.49205      -0.07094
                        -----------------------------------------
Total Dipole Moment    :      0.30173      -0.41656       0.41612
                        -----------------------------------------
Magnitude (a.u.)       :      0.66161
Magnitude (Debye)      :      1.68167

Rotational constants in cm-1:     4.378053     0.819048     0.794371
Rotational constants in MHz : 131250.715300 24554.454076 23814.634161

                             ****ORCA TERMINATED NORMALLY****
TOTAL RUN TIME: 0 days 0 hours 0 minutes 39 seconds 513 msec
