                         Program Version 4.1.2  - RELEASE  -
|  1> #Run DFT-D3 single point of the dimer
|  2> ! wB97X-D3 def2-TZVP TIGHTSCF CHELPG PMODEL PAL8
|  3>
|  4> %base "2-161_DFT_AB"
|  5>
|  6> %scf
|  7> MaxIter 1000
|  8> end
|  9>
| 10> * xyz 0 1
| 11>   C                      -0.158356            9.506197             3.981543
| 12>   O                      -0.410471            8.158518             3.815830
| 13>   H                      0.393744             7.667537             4.016496
| 14>   H                      0.655024             9.876577             3.386324
| 15>   H                      -1.039333            10.052744            3.675761
| 16>   H                      0.122370             9.895403             4.954957
| 17>   C                      -2.401199            3.960669             4.937113
| 18>   O                      -1.213836            4.477502             4.306087
| 19>   H                      -0.537656            4.605466             5.001750
| 20>   H                      -2.507452            2.873042             4.620303
| 21>   H                      -2.425411            4.028014             5.979842
| 22>   H                      -3.293349            4.527857             4.574455
| 23> *
| 24>
| 25> #Run DFT-D3 single point of the molecule with dimer basis set
| 26> $new_job
| 27> %base "2-161_DFT_A"
| 28> ! wB97X-D3 def2-TZVP TIGHTSCF CHELPG PMODEL
| 29>
| 30> %scf
| 31> MaxIter 1000
| 32> end
| 33>
| 34> * xyz 0 1
| 35>   C                      -0.158356            9.506197             3.981543
| 36>   O                      -0.410471            8.158518             3.815830
| 37>   H                      0.393744             7.667537             4.016496
| 38>   H                      0.655024             9.876577             3.386324
| 39>   H                      -1.039333            10.052744            3.675761
| 40>   H                      0.122370             9.895403             4.954957
| 41>   C                    : -2.401199            3.960669             4.937113
| 42>   O                    : -1.213836            4.477502             4.306087
| 43>   H                    : -0.537656            4.605466             5.001750
| 44>   H                    : -2.507452            2.873042             4.620303
| 45>   H                    : -2.425411            4.028014             5.979842
| 46>   H                    : -3.293349            4.527857             4.574455
| 47> *
| 48>
| 49> #Run DFT-D3 single point of the particle with dimer basis set
| 50> $new_job
| 51> %base "2-161_DFT_B"
| 52> ! wB97X-D3 def2-TZVP TIGHTSCF CHELPG PMODEL
| 53>
| 54> %scf
| 55> MaxIter 1000
| 56> end
| 57>
| 58> * xyz 0 1
| 59>   C                    : -0.158356            9.506197             3.981543
| 60>   O                    : -0.410471            8.158518             3.815830
| 61>   H                    : 0.393744             7.667537             4.016496
| 62>   H                    : 0.655024             9.876577             3.386324
| 63>   H                    : -1.039333            10.052744            3.675761
| 64>   H                    : 0.122370             9.895403             4.954957
| 65>   C                      -2.401199            3.960669             4.937113
| 66>   O                      -1.213836            4.477502             4.306087
| 67>   H                      -0.537656            4.605466             5.001750
| 68>   H                      -2.507452            2.873042             4.620303
| 69>   H                      -2.425411            4.028014             5.979842
| 70>   H                      -3.293349            4.527857             4.574455
| 71> *
| 72>
| 73>                          ****END OF INPUT****
 Total Charge           Charge          ....    0
 Multiplicity           Mult            ....    1
 Number of Electrons    NEL             ....   36
Dispersion correction           -0.000925889
FINAL SINGLE POINT ENERGY      -231.464361253090
Dispersion correction           -0.000242739
FINAL SINGLE POINT ENERGY      -115.733524701978

CARTESIAN COORDINATES (ANGSTROEM)
---------------------------------
  C     -0.158356    9.506197    3.981543
  O     -0.410471    8.158518    3.815830
  H      0.393744    7.667537    4.016496
  H      0.655024    9.876577    3.386324
  H     -1.039333   10.052744    3.675761
  H      0.122370    9.895403    4.954957
  C     -2.401199    3.960669    4.937113
  O     -1.213836    4.477502    4.306087
  H     -0.537656    4.605466    5.001750
  H     -2.507452    2.873042    4.620303
  H     -2.425411    4.028014    5.979842
  H     -3.293349    4.527857    4.574455

 Multiplicity           Mult            ....    1
 Number of Electrons    NEL             ....   18
 Basis Dimension        Dim             ....  172

ORBITAL ENERGIES
----------------

  NO   OCC          E(Eh)            E(eV)
   0   2.0000     -19.232360      -523.3391
   1   2.0000     -10.316605      -280.7291
   2   2.0000      -1.125157       -30.6171
   3   2.0000      -0.794065       -21.6076
   4   2.0000      -0.610077       -16.6010
   5   2.0000      -0.532877       -14.5003
   6   2.0000      -0.518241       -14.1021
   7   2.0000      -0.440566       -11.9884
   8   2.0000      -0.371820       -10.1177
   9   0.0000       0.088691         2.4134
  10   0.0000       0.113052         3.0763
  11   0.0000       0.148650         4.0450
  12   0.0000       0.181470         4.9380
  13   0.0000       0.190843         5.1931

MULLIKEN ATOMIC CHARGES
-----------------------
   0 C :   -0.000103
   1 O :   -0.000650
   2 H :   -0.001502
   3 H :   -0.000004
   4 H :    0.000025
   5 H :   -0.000015
   6 C :   -0.178385
   7 O :   -0.475766
   8 H :    0.315982
   9 H :    0.107083
  10 H :    0.119708
  11 H :    0.113627
Sum of atomic charges:   -0.0000000

LOEWDIN ATOMIC CHARGES
----------------------
   0 C :   -0.000064
   1 O :   -0.001082
   2 H :   -0.001277
   3 H :   -0.000002
   4 H :   -0.000001
   5 H :   -0.000002
   6 C :   -0.370751
   7 O :   -0.104589
   8 H :    0.177345
   9 H :    0.107940
  10 H :    0.084094
  11 H :    0.108389

  Mayer bond orders larger than 0.1
B(  6-C ,  7-O ) :   1.0057 B(  6-C ,  9-H ) :   0.9770 B(  6-C , 10-H ) :   0.9737
B(  6-C , 11-H ) :   0.9740 B(  7-O ,  8-H ) :   0.8980

Dispersion correction           -0.000264146
FINAL SINGLE POINT ENERGY      -115.731830626425

DIPOLE MOMENT
-------------
                                X             Y             Z
Electronic contribution:      1.47427       0.69283      -0.79440
Nuclear contribution   :     -1.52679      -0.80747       1.52846
                        -----------------------------------------
Total Dipole Moment    :     -0.05252      -0.11464       0.73405
                        -----------------------------------------
Magnitude (a.u.)       :      0.74481
Magnitude (Debye)      :      1.89315

Rotational constants in cm-1:     4.218432     0.800405     0.778947
Rotational constants in MHz : 126465.404778 23995.531397 23352.252041

                             ****ORCA TERMINATED NORMALLY****
TOTAL RUN TIME: 0 days 0 hours 6 minutes 24 seconds 253 msec
