                         Program Version 4.1.2  - RELEASE  -
|  1> #Run DFT-D3 single point of the dimer
|  2> ! wB97X-D3 def2-TZVP TIGHTSCF CHELPG PMODEL PAL8
|  3>
|  4> %base "6-39_DFT_AB"
|  5>
|  6> %scf
|  7> MaxIter 1000
|  8> end
|  9>
| 10> * xyz 0 1
| 11>   C                      -8.806139            -3.804200            -0.537785
| 12>   O                      -9.024071            -2.496550            -1.017201
| 13>   H                      -9.353899            -2.559543            -1.944128
| 14>   H                      -8.922862            -3.712289            0.568426
| 15>   H                      -9.480058            -4.616308            -0.979368
| 16>   H                      -7.833328            -4.174835            -0.732438
| 17>   C                      -6.008489            -4.587720            -4.525131
| 18>   O                      -5.657151            -3.490434            -5.323309
| 19>   H                      -4.759430            -3.178681            -5.161051
| 20>   H                      -6.094564            -4.278882            -3.454936
| 21>   H                      -6.943216            -4.900228            -4.978512
| 22>   H                      -5.366793            -5.404057            -4.591604
| 23> *
| 24>
| 25> #Run DFT-D3 single point of the molecule with dimer basis set
| 26> $new_job
| 27> %base "6-39_DFT_A"
| 28> ! wB97X-D3 def2-TZVP TIGHTSCF CHELPG PMODEL
| 29>
| 30> %scf
| 31> MaxIter 1000
| 32> end
| 33>
| 34> * xyz 0 1
| 35>   C                      -8.806139            -3.804200            -0.537785
| 36>   O                      -9.024071            -2.496550            -1.017201
| 37>   H                      -9.353899            -2.559543            -1.944128
| 38>   H                      -8.922862            -3.712289            0.568426
| 39>   H                      -9.480058            -4.616308            -0.979368
| 40>   H                      -7.833328            -4.174835            -0.732438
| 41>   C                    : -6.008489            -4.587720            -4.525131
| 42>   O                    : -5.657151            -3.490434            -5.323309
| 43>   H                    : -4.759430            -3.178681            -5.161051
| 44>   H                    : -6.094564            -4.278882            -3.454936
| 45>   H                    : -6.943216            -4.900228            -4.978512
| 46>   H                    : -5.366793            -5.404057            -4.591604
| 47> *
| 48>
| 49> #Run DFT-D3 single point of the particle with dimer basis set
| 50> $new_job
| 51> %base "6-39_DFT_B"
| 52> ! wB97X-D3 def2-TZVP TIGHTSCF CHELPG PMODEL
| 53>
| 54> %scf
| 55> MaxIter 1000
| 56> end
| 57>
| 58> * xyz 0 1
| 59>   C                    : -8.806139            -3.804200            -0.537785
| 60>   O                    : -9.024071            -2.496550            -1.017201
| 61>   H                    : -9.353899            -2.559543            -1.944128
| 62>   H                    : -8.922862            -3.712289            0.568426
| 63>   H                    : -9.480058            -4.616308            -0.979368
| 64>   H                    : -7.833328            -4.174835            -0.732438
| 65>   C                      -6.008489            -4.587720            -4.525131
| 66>   O                      -5.657151            -3.490434            -5.323309
| 67>   H                      -4.759430            -3.178681            -5.161051
| 68>   H                      -6.094564            -4.278882            -3.454936
| 69>   H                      -6.943216            -4.900228            -4.978512
| 70>   H                      -5.366793            -5.404057            -4.591604
| 71> *
| 72>
| 73>                          ****END OF INPUT****
 Total Charge           Charge          ....    0
 Multiplicity           Mult            ....    1
 Number of Electrons    NEL             ....   36
Dispersion correction           -0.000913392
FINAL SINGLE POINT ENERGY      -231.465084392517
Dispersion correction           -0.000258192
FINAL SINGLE POINT ENERGY      -115.731665217318

CARTESIAN COORDINATES (ANGSTROEM)
---------------------------------
  C     -8.806139   -3.804200   -0.537785
  O     -9.024071   -2.496550   -1.017201
  H     -9.353899   -2.559543   -1.944128
  H     -8.922862   -3.712289    0.568426
  H     -9.480058   -4.616308   -0.979368
  H     -7.833328   -4.174835   -0.732438
  C     -6.008489   -4.587720   -4.525131
  O     -5.657151   -3.490434   -5.323309
  H     -4.759430   -3.178681   -5.161051
  H     -6.094564   -4.278882   -3.454936
  H     -6.943216   -4.900228   -4.978512
  H     -5.366793   -5.404057   -4.591604

 Multiplicity           Mult            ....    1
 Number of Electrons    NEL             ....   18
 Basis Dimension        Dim             ....  172

ORBITAL ENERGIES
----------------

  NO   OCC          E(Eh)            E(eV)
   0   2.0000     -19.226005      -523.1662
   1   2.0000     -10.306925      -280.4657
   2   2.0000      -1.134900       -30.8822
   3   2.0000      -0.799293       -21.7499
   4   2.0000      -0.616638       -16.7796
   5   2.0000      -0.546528       -14.8718
   6   2.0000      -0.521134       -14.1808
   7   2.0000      -0.429297       -11.6818
   8   2.0000      -0.372385       -10.1331
   9   0.0000       0.085318         2.3216
  10   0.0000       0.117961         3.2099
  11   0.0000       0.155625         4.2348
  12   0.0000       0.165689         4.5086
  13   0.0000       0.187196         5.0939

MULLIKEN ATOMIC CHARGES
-----------------------
   0 C :    0.000456
   1 O :   -0.000009
   2 H :    0.000006
   3 H :   -0.000021
   4 H :   -0.000055
   5 H :   -0.000862
   6 C :   -0.138734
   7 O :   -0.486064
   8 H :    0.312091
   9 H :    0.095565
  10 H :    0.113773
  11 H :    0.103853
Sum of atomic charges:    0.0000000

LOEWDIN ATOMIC CHARGES
----------------------
   0 C :   -0.000423
   1 O :   -0.000006
   2 H :   -0.000022
   3 H :   -0.000003
   4 H :   -0.000017
   5 H :   -0.000736
   6 C :   -0.384660
   7 O :   -0.072718
   8 H :    0.166358
   9 H :    0.099578
  10 H :    0.111870
  11 H :    0.080780

  Mayer bond orders larger than 0.1
B(  6-C ,  7-O ) :   0.9932 B(  6-C ,  9-H ) :   0.9782 B(  6-C , 10-H ) :   0.9774
B(  6-C , 11-H ) :   0.9711 B(  7-O ,  8-H ) :   0.8975

Dispersion correction           -0.000239175
FINAL SINGLE POINT ENERGY      -115.732789154367

DIPOLE MOMENT
-------------
                                X             Y             Z
Electronic contribution:      0.39470       1.30597      -1.02174
Nuclear contribution   :      0.05733      -1.56514       1.41955
                        -----------------------------------------
Total Dipole Moment    :      0.45204      -0.25917       0.39781
                        -----------------------------------------
Magnitude (a.u.)       :      0.65556
Magnitude (Debye)      :      1.66630

Rotational constants in cm-1:     4.361085     0.847500     0.817236
Rotational constants in MHz : 130742.043063 25407.421108 24500.126783

                             ****ORCA TERMINATED NORMALLY****
TOTAL RUN TIME: 0 days 0 hours 0 minutes 54 seconds 606 msec
