                         Program Version 4.1.2  - RELEASE  -
|  1> #Run DFT-D3 single point of the dimer
|  2> ! wB97X-D3 def2-TZVP TIGHTSCF CHELPG PMODEL PAL8
|  3>
|  4> %base "10-146_DFT_AB"
|  5>
|  6> %scf
|  7> MaxIter 1000
|  8> end
|  9>
| 10> * xyz 0 1
| 11>   C                      -2.728455            -8.294067            -3.970005
| 12>   O                      -1.346350            -8.753726            -4.049427
| 13>   H                      -1.341560            -9.587864            -3.613665
| 14>   H                      -3.399248            -9.087153            -4.171375
| 15>   H                      -2.930991            -7.956123            -2.995674
| 16>   H                      -2.988727            -7.505298            -4.671363
| 17>   C                      1.237218             -10.571253           -4.731252
| 18>   O                      2.090663             -11.620678           -4.301068
| 19>   H                      1.684505             -12.049990           -3.539937
| 20>   H                      1.738121             -9.896252            -5.432714
| 21>   H                      0.298399             -10.936982           -5.241484
| 22>   H                      0.890046             -9.963813            -3.901905
| 23> *
| 24>
| 25> #Run DFT-D3 single point of the molecule with dimer basis set
| 26> $new_job
| 27> %base "10-146_DFT_A"
| 28> ! wB97X-D3 def2-TZVP TIGHTSCF CHELPG PMODEL
| 29>
| 30> %scf
| 31> MaxIter 1000
| 32> end
| 33>
| 34> * xyz 0 1
| 35>   C                      -2.728455            -8.294067            -3.970005
| 36>   O                      -1.346350            -8.753726            -4.049427
| 37>   H                      -1.341560            -9.587864            -3.613665
| 38>   H                      -3.399248            -9.087153            -4.171375
| 39>   H                      -2.930991            -7.956123            -2.995674
| 40>   H                      -2.988727            -7.505298            -4.671363
| 41>   C                    : 1.237218             -10.571253           -4.731252
| 42>   O                    : 2.090663             -11.620678           -4.301068
| 43>   H                    : 1.684505             -12.049990           -3.539937
| 44>   H                    : 1.738121             -9.896252            -5.432714
| 45>   H                    : 0.298399             -10.936982           -5.241484
| 46>   H                    : 0.890046             -9.963813            -3.901905
| 47> *
| 48>
| 49> #Run DFT-D3 single point of the particle with dimer basis set
| 50> $new_job
| 51> %base "10-146_DFT_B"
| 52> ! wB97X-D3 def2-TZVP TIGHTSCF CHELPG PMODEL
| 53>
| 54> %scf
| 55> MaxIter 1000
| 56> end
| 57>
| 58> * xyz 0 1
| 59>   C                    : -2.728455            -8.294067            -3.970005
| 60>   O                    : -1.346350            -8.753726            -4.049427
| 61>   H                    : -1.341560            -9.587864            -3.613665
| 62>   H                    : -3.399248            -9.087153            -4.171375
| 63>   H                    : -2.930991            -7.956123            -2.995674
| 64>   H                    : -2.988727            -7.505298            -4.671363
| 65>   C                      1.237218             -10.571253           -4.731252
| 66>   O                      2.090663             -11.620678           -4.301068
| 67>   H                      1.684505             -12.049990           -3.539937
| 68>   H                      1.738121             -9.896252            -5.432714
| 69>   H                      0.298399             -10.936982           -5.241484
| 70>   H                      0.890046             -9.963813            -3.901905
| 71> *
| 72>
| 73>                          ****END OF INPUT****
 Total Charge           Charge          ....    0
 Multiplicity           Mult            ....    1
 Number of Electrons    NEL             ....   36
Dispersion correction           -0.001508873
FINAL SINGLE POINT ENERGY      -231.468012896147
Dispersion correction           -0.000236137
FINAL SINGLE POINT ENERGY      -115.731911756638

CARTESIAN COORDINATES (ANGSTROEM)
---------------------------------
  C     -2.728455   -8.294067   -3.970005
  O     -1.346350   -8.753726   -4.049427
  H     -1.341560   -9.587864   -3.613665
  H     -3.399248   -9.087153   -4.171375
  H     -2.930991   -7.956123   -2.995674
  H     -2.988727   -7.505298   -4.671363
  C      1.237218  -10.571253   -4.731252
  O      2.090663  -11.620678   -4.301068
  H      1.684505  -12.049990   -3.539937
  H      1.738121   -9.896252   -5.432714
  H      0.298399  -10.936982   -5.241484
  H      0.890046   -9.963813   -3.901905

 Multiplicity           Mult            ....    1
 Number of Electrons    NEL             ....   18
 Basis Dimension        Dim             ....  172

ORBITAL ENERGIES
----------------

  NO   OCC          E(Eh)            E(eV)
   0   2.0000     -19.232585      -523.3452
   1   2.0000     -10.316908      -280.7373
   2   2.0000      -1.134597       -30.8739
   3   2.0000      -0.794676       -21.6242
   4   2.0000      -0.611709       -16.6455
   5   2.0000      -0.533726       -14.5234
   6   2.0000      -0.529358       -14.4046
   7   2.0000      -0.435377       -11.8472
   8   2.0000      -0.373346       -10.1593
   9   0.0000       0.082196         2.2367
  10   0.0000       0.115369         3.1394
  11   0.0000       0.144715         3.9379
  12   0.0000       0.182028         4.9532
  13   0.0000       0.189073         5.1449

MULLIKEN ATOMIC CHARGES
-----------------------
   0 C :   -0.000106
   1 O :   -0.001190
   2 H :   -0.002032
   3 H :   -0.000074
   4 H :   -0.000000
   5 H :    0.000032
   6 C :   -0.164538
   7 O :   -0.472994
   8 H :    0.316038
   9 H :    0.122333
  10 H :    0.094526
  11 H :    0.108005
Sum of atomic charges:    0.0000000

LOEWDIN ATOMIC CHARGES
----------------------
   0 C :   -0.000268
   1 O :   -0.006079
   2 H :   -0.006324
   3 H :   -0.000014
   4 H :   -0.000006
   5 H :   -0.000005
   6 C :   -0.384439
   7 O :   -0.079747
   8 H :    0.171423
   9 H :    0.108729
  10 H :    0.100291
  11 H :    0.096440

  Mayer bond orders larger than 0.1
B(  6-C ,  7-O ) :   1.0045 B(  6-C ,  9-H ) :   0.9686 B(  6-C , 10-H ) :   0.9722
B(  6-C , 11-H ) :   0.9794 B(  7-O ,  8-H ) :   0.8979

Dispersion correction           -0.000254987
FINAL SINGLE POINT ENERGY      -115.735724247430

DIPOLE MOMENT
-------------
                                X             Y             Z
Electronic contribution:      1.29007      -1.33715       0.46785
Nuclear contribution   :     -1.86973       1.49795      -0.13981
                        -----------------------------------------
Total Dipole Moment    :     -0.57965       0.16080       0.32804
                        -----------------------------------------
Magnitude (a.u.)       :      0.68518
Magnitude (Debye)      :      1.74158

Rotational constants in cm-1:     4.312742     0.817094     0.787912
Rotational constants in MHz : 129292.737916 24495.859909 23620.998965

                             ****ORCA TERMINATED NORMALLY****
TOTAL RUN TIME: 0 days 0 hours 1 minutes 4 seconds 528 msec
