                         Program Version 4.1.2  - RELEASE  -
|  1> #Run DFT-D3 single point of the dimer
|  2> ! wB97X-D3 def2-TZVP TIGHTSCF CHELPG PMODEL PAL8
|  3>
|  4> %base "1-163_DFT_AB"
|  5>
|  6> %scf
|  7> MaxIter 1000
|  8> end
|  9>
| 10> * xyz 0 1
| 11>   C                      -5.673843            9.678529             0.887699
| 12>   O                      -5.079798            8.484025             1.211510
| 13>   H                      -4.231268            8.659638             1.607767
| 14>   H                      -5.775124            10.359576            1.647475
| 15>   H                      -5.041630            10.146954            0.099919
| 16>   H                      -6.710823            9.493351             0.457744
| 17>   C                      -8.141431            10.120982            5.609422
| 18>   O                      -6.883457            9.926488             5.013537
| 19>   H                      -6.746002            9.087086             4.583543
| 20>   H                      -8.833033            10.492227            4.872045
| 21>   H                      -8.543352            9.177834             6.082713
| 22>   H                      -8.084201            10.899987            6.355994
| 23> *
| 24>
| 25> #Run DFT-D3 single point of the molecule with dimer basis set
| 26> $new_job
| 27> %base "1-163_DFT_A"
| 28> ! wB97X-D3 def2-TZVP TIGHTSCF CHELPG PMODEL
| 29>
| 30> %scf
| 31> MaxIter 1000
| 32> end
| 33>
| 34> * xyz 0 1
| 35>   C                      -5.673843            9.678529             0.887699
| 36>   O                      -5.079798            8.484025             1.211510
| 37>   H                      -4.231268            8.659638             1.607767
| 38>   H                      -5.775124            10.359576            1.647475
| 39>   H                      -5.041630            10.146954            0.099919
| 40>   H                      -6.710823            9.493351             0.457744
| 41>   C                    : -8.141431            10.120982            5.609422
| 42>   O                    : -6.883457            9.926488             5.013537
| 43>   H                    : -6.746002            9.087086             4.583543
| 44>   H                    : -8.833033            10.492227            4.872045
| 45>   H                    : -8.543352            9.177834             6.082713
| 46>   H                    : -8.084201            10.899987            6.355994
| 47> *
| 48>
| 49> #Run DFT-D3 single point of the particle with dimer basis set
| 50> $new_job
| 51> %base "1-163_DFT_B"
| 52> ! wB97X-D3 def2-TZVP TIGHTSCF CHELPG PMODEL
| 53>
| 54> %scf
| 55> MaxIter 1000
| 56> end
| 57>
| 58> * xyz 0 1
| 59>   C                    : -5.673843            9.678529             0.887699
| 60>   O                    : -5.079798            8.484025             1.211510
| 61>   H                    : -4.231268            8.659638             1.607767
| 62>   H                    : -5.775124            10.359576            1.647475
| 63>   H                    : -5.041630            10.146954            0.099919
| 64>   H                    : -6.710823            9.493351             0.457744
| 65>   C                      -8.141431            10.120982            5.609422
| 66>   O                      -6.883457            9.926488             5.013537
| 67>   H                      -6.746002            9.087086             4.583543
| 68>   H                      -8.833033            10.492227            4.872045
| 69>   H                      -8.543352            9.177834             6.082713
| 70>   H                      -8.084201            10.899987            6.355994
| 71> *
| 72>
| 73>                          ****END OF INPUT****
 Total Charge           Charge          ....    0
 Multiplicity           Mult            ....    1
 Number of Electrons    NEL             ....   36
Dispersion correction           -0.000993332
FINAL SINGLE POINT ENERGY      -231.466206285200
Dispersion correction           -0.000215787
FINAL SINGLE POINT ENERGY      -115.730092219023

CARTESIAN COORDINATES (ANGSTROEM)
---------------------------------
  C     -5.673843    9.678529    0.887699
  O     -5.079798    8.484025    1.211510
  H     -4.231268    8.659638    1.607767
  H     -5.775124   10.359576    1.647475
  H     -5.041630   10.146954    0.099919
  H     -6.710823    9.493351    0.457744
  C     -8.141431   10.120982    5.609422
  O     -6.883457    9.926488    5.013537
  H     -6.746002    9.087086    4.583543
  H     -8.833033   10.492227    4.872045
  H     -8.543352    9.177834    6.082713
  H     -8.084201   10.899987    6.355994

 Multiplicity           Mult            ....    1
 Number of Electrons    NEL             ....   18
 Basis Dimension        Dim             ....  172

ORBITAL ENERGIES
----------------

  NO   OCC          E(Eh)            E(eV)
   0   2.0000     -19.225561      -523.1541
   1   2.0000     -10.313986      -280.6578
   2   2.0000      -1.134254       -30.8646
   3   2.0000      -0.799919       -21.7669
   4   2.0000      -0.611710       -16.6455
   5   2.0000      -0.541611       -14.7380
   6   2.0000      -0.533352       -14.5132
   7   2.0000      -0.423154       -11.5146
   8   2.0000      -0.371266       -10.1027
   9   0.0000       0.083721         2.2782
  10   0.0000       0.123823         3.3694
  11   0.0000       0.152316         4.1447
  12   0.0000       0.168139         4.5753
  13   0.0000       0.196238         5.3399

MULLIKEN ATOMIC CHARGES
-----------------------
   0 C :    0.000091
   1 O :    0.000134
   2 H :    0.000001
   3 H :   -0.003565
   4 H :   -0.000174
   5 H :    0.000188
   6 C :   -0.142218
   7 O :   -0.491550
   8 H :    0.320423
   9 H :    0.104148
  10 H :    0.095927
  11 H :    0.116597
Sum of atomic charges:   -0.0000000

LOEWDIN ATOMIC CHARGES
----------------------
   0 C :   -0.001113
   1 O :   -0.000031
   2 H :   -0.000017
   3 H :   -0.001573
   4 H :   -0.000027
   5 H :   -0.000017
   6 C :   -0.384809
   7 O :   -0.071774
   8 H :    0.162446
   9 H :    0.091697
  10 H :    0.101197
  11 H :    0.104024

  Mayer bond orders larger than 0.1
B(  6-C ,  7-O ) :   0.9962 B(  6-C ,  9-H ) :   0.9778 B(  6-C , 10-H ) :   0.9794
B(  6-C , 11-H ) :   0.9728 B(  7-O ,  8-H ) :   0.8920

Dispersion correction           -0.000256456
FINAL SINGLE POINT ENERGY      -115.734235512589

DIPOLE MOMENT
-------------
                                X             Y             Z
Electronic contribution:      1.62721      -0.15178      -0.69554
Nuclear contribution   :     -2.05348      -0.31469       0.66675
                        -----------------------------------------
Total Dipole Moment    :     -0.42627      -0.46647      -0.02879
                        -----------------------------------------
Magnitude (a.u.)       :      0.63256
Magnitude (Debye)      :      1.60783

Rotational constants in cm-1:     4.394329     0.830920     0.801482
Rotational constants in MHz : 131738.680493 24910.348748 24027.823450

                             ****ORCA TERMINATED NORMALLY****
TOTAL RUN TIME: 0 days 0 hours 6 minutes 11 seconds 335 msec
