                         Program Version 4.1.2  - RELEASE  -
|  1> #Run DFT-D3 single point of the dimer
|  2> ! wB97X-D3 def2-TZVP TIGHTSCF CHELPG PMODEL PAL8
|  3>
|  4> %base "20-0_DFT_AB"
|  5>
|  6> %scf
|  7> MaxIter 1000
|  8> end
|  9>
| 10> * xyz 0 1
| 11>   C                      -4.029221            8.344015             5.610913
| 12>   O                      -2.999871            7.977746             4.667712
| 13>   H                      -3.310125            8.320182             3.789893
| 14>   H                      -3.622109            8.473960             6.626864
| 15>   H                      -4.597087            9.250479             5.314208
| 16>   H                      -4.851451            7.575020             5.727861
| 17>   C                      -1.641794            5.307331             1.637861
| 18>   O                      -2.575965            4.229584             1.491744
| 19>   H                      -2.767324            3.875175             2.374490
| 20>   H                      -1.946451            5.984514             2.464272
| 21>   H                      -0.555480            5.066071             1.793109
| 22>   H                      -1.550788            5.846078             0.708489
| 23> *
| 24>
| 25> #Run DFT-D3 single point of the molecule with dimer basis set
| 26> $new_job
| 27> %base "20-0_DFT_A"
| 28> ! wB97X-D3 def2-TZVP TIGHTSCF CHELPG PMODEL
| 29>
| 30> %scf
| 31> MaxIter 1000
| 32> end
| 33>
| 34> * xyz 0 1
| 35>   C                      -4.029221            8.344015             5.610913
| 36>   O                      -2.999871            7.977746             4.667712
| 37>   H                      -3.310125            8.320182             3.789893
| 38>   H                      -3.622109            8.473960             6.626864
| 39>   H                      -4.597087            9.250479             5.314208
| 40>   H                      -4.851451            7.575020             5.727861
| 41>   C                    : -1.641794            5.307331             1.637861
| 42>   O                    : -2.575965            4.229584             1.491744
| 43>   H                    : -2.767324            3.875175             2.374490
| 44>   H                    : -1.946451            5.984514             2.464272
| 45>   H                    : -0.555480            5.066071             1.793109
| 46>   H                    : -1.550788            5.846078             0.708489
| 47> *
| 48>
| 49> #Run DFT-D3 single point of the particle with dimer basis set
| 50> $new_job
| 51> %base "20-0_DFT_B"
| 52> ! wB97X-D3 def2-TZVP TIGHTSCF CHELPG PMODEL
| 53>
| 54> %scf
| 55> MaxIter 1000
| 56> end
| 57>
| 58> * xyz 0 1
| 59>   C                    : -4.029221            8.344015             5.610913
| 60>   O                    : -2.999871            7.977746             4.667712
| 61>   H                    : -3.310125            8.320182             3.789893
| 62>   H                    : -3.622109            8.473960             6.626864
| 63>   H                    : -4.597087            9.250479             5.314208
| 64>   H                    : -4.851451            7.575020             5.727861
| 65>   C                      -1.641794            5.307331             1.637861
| 66>   O                      -2.575965            4.229584             1.491744
| 67>   H                      -2.767324            3.875175             2.374490
| 68>   H                      -1.946451            5.984514             2.464272
| 69>   H                      -0.555480            5.066071             1.793109
| 70>   H                      -1.550788            5.846078             0.708489
| 71> *
| 72>
| 73>                          ****END OF INPUT****
 Total Charge           Charge          ....    0
 Multiplicity           Mult            ....    1
 Number of Electrons    NEL             ....   36
Dispersion correction           -0.001031283
FINAL SINGLE POINT ENERGY      -231.466115726826
Dispersion correction           -0.000277109
FINAL SINGLE POINT ENERGY      -115.732291270905

CARTESIAN COORDINATES (ANGSTROEM)
---------------------------------
  C     -4.029221    8.344015    5.610913
  O     -2.999871    7.977746    4.667712
  H     -3.310125    8.320182    3.789893
  H     -3.622109    8.473960    6.626864
  H     -4.597087    9.250479    5.314208
  H     -4.851451    7.575020    5.727861
  C     -1.641794    5.307331    1.637861
  O     -2.575965    4.229584    1.491744
  H     -2.767324    3.875175    2.374490
  H     -1.946451    5.984514    2.464272
  H     -0.555480    5.066071    1.793109
  H     -1.550788    5.846078    0.708489

 Multiplicity           Mult            ....    1
 Number of Electrons    NEL             ....   18
 Basis Dimension        Dim             ....  172

ORBITAL ENERGIES
----------------

  NO   OCC          E(Eh)            E(eV)
   0   2.0000     -19.235361      -523.4208
   1   2.0000     -10.318135      -280.7707
   2   2.0000      -1.130048       -30.7502
   3   2.0000      -0.795950       -21.6589
   4   2.0000      -0.607448       -16.5295
   5   2.0000      -0.541520       -14.7355
   6   2.0000      -0.517709       -14.0876
   7   2.0000      -0.436574       -11.8798
   8   2.0000      -0.374409       -10.1882
   9   0.0000       0.081837         2.2269
  10   0.0000       0.115310         3.1377
  11   0.0000       0.141268         3.8441
  12   0.0000       0.168051         4.5729
  13   0.0000       0.189857         5.1663

MULLIKEN ATOMIC CHARGES
-----------------------
   0 C :   -0.000051
   1 O :    0.000004
   2 H :   -0.000186
   3 H :    0.000002
   4 H :   -0.000000
   5 H :   -0.000000
   6 C :   -0.180495
   7 O :   -0.469971
   8 H :    0.317200
   9 H :    0.108199
  10 H :    0.098124
  11 H :    0.127174
Sum of atomic charges:    0.0000000

LOEWDIN ATOMIC CHARGES
----------------------
   0 C :   -0.000058
   1 O :   -0.000831
   2 H :   -0.000934
   3 H :   -0.000001
   4 H :   -0.000001
   5 H :   -0.000002
   6 C :   -0.384730
   7 O :   -0.091230
   8 H :    0.174179
   9 H :    0.099841
  10 H :    0.098400
  11 H :    0.105367

  Mayer bond orders larger than 0.1
B(  6-C ,  7-O ) :   1.0060 B(  6-C ,  9-H ) :   0.9796 B(  6-C , 10-H ) :   0.9636
B(  6-C , 11-H ) :   0.9755 B(  7-O ,  8-H ) :   0.8972

Dispersion correction           -0.000275766
FINAL SINGLE POINT ENERGY      -115.732326538040

DIPOLE MOMENT
-------------
                                X             Y             Z
Electronic contribution:     -1.28889      -1.42105      -0.32502
Nuclear contribution   :      1.53625       1.63650       0.91935
                        -----------------------------------------
Total Dipole Moment    :      0.24735       0.21544       0.59432
                        -----------------------------------------
Magnitude (a.u.)       :      0.67884
Magnitude (Debye)      :      1.72547

Rotational constants in cm-1:     4.350224     0.801633     0.769957
Rotational constants in MHz : 130416.446357 24032.338453 23082.729056

                             ****ORCA TERMINATED NORMALLY****
TOTAL RUN TIME: 0 days 0 hours 0 minutes 55 seconds 493 msec
