                         Program Version 4.1.2  - RELEASE  -
|  1> #Run DFT-D3 single point of the dimer
|  2> ! wB97X-D3 def2-TZVP TIGHTSCF CHELPG PMODEL PAL8
|  3>
|  4> %base "2-166_DFT_AB"
|  5>
|  6> %scf
|  7> MaxIter 1000
|  8> end
|  9>
| 10> * xyz 0 1
| 11>   C                      -5.133653            6.341155             4.742406
| 12>   O                      -5.119965            5.757814             5.996789
| 13>   H                      -4.614317            6.391830             6.569836
| 14>   H                      -5.439715            7.357164             4.755278
| 15>   H                      -4.234583            6.205325             4.158552
| 16>   H                      -5.880882            5.822539             4.108501
| 17>   C                      -5.872700            2.986529             10.267093
| 18>   O                      -5.865862            4.344613             10.571159
| 19>   H                      -5.098697            4.792286             10.334538
| 20>   H                      -6.569282            2.379499             10.765227
| 21>   H                      -6.025662            2.776042             9.205481
| 22>   H                      -4.916978            2.548329             10.496843
| 23> *
| 24>
| 25> #Run DFT-D3 single point of the molecule with dimer basis set
| 26> $new_job
| 27> %base "2-166_DFT_A"
| 28> ! wB97X-D3 def2-TZVP TIGHTSCF CHELPG PMODEL
| 29>
| 30> %scf
| 31> MaxIter 1000
| 32> end
| 33>
| 34> * xyz 0 1
| 35>   C                      -5.133653            6.341155             4.742406
| 36>   O                      -5.119965            5.757814             5.996789
| 37>   H                      -4.614317            6.391830             6.569836
| 38>   H                      -5.439715            7.357164             4.755278
| 39>   H                      -4.234583            6.205325             4.158552
| 40>   H                      -5.880882            5.822539             4.108501
| 41>   C                    : -5.872700            2.986529             10.267093
| 42>   O                    : -5.865862            4.344613             10.571159
| 43>   H                    : -5.098697            4.792286             10.334538
| 44>   H                    : -6.569282            2.379499             10.765227
| 45>   H                    : -6.025662            2.776042             9.205481
| 46>   H                    : -4.916978            2.548329             10.496843
| 47> *
| 48>
| 49> #Run DFT-D3 single point of the particle with dimer basis set
| 50> $new_job
| 51> %base "2-166_DFT_B"
| 52> ! wB97X-D3 def2-TZVP TIGHTSCF CHELPG PMODEL
| 53>
| 54> %scf
| 55> MaxIter 1000
| 56> end
| 57>
| 58> * xyz 0 1
| 59>   C                    : -5.133653            6.341155             4.742406
| 60>   O                    : -5.119965            5.757814             5.996789
| 61>   H                    : -4.614317            6.391830             6.569836
| 62>   H                    : -5.439715            7.357164             4.755278
| 63>   H                    : -4.234583            6.205325             4.158552
| 64>   H                    : -5.880882            5.822539             4.108501
| 65>   C                      -5.872700            2.986529             10.267093
| 66>   O                      -5.865862            4.344613             10.571159
| 67>   H                      -5.098697            4.792286             10.334538
| 68>   H                      -6.569282            2.379499             10.765227
| 69>   H                      -6.025662            2.776042             9.205481
| 70>   H                      -4.916978            2.548329             10.496843
| 71> *
| 72>
| 73>                          ****END OF INPUT****
 Total Charge           Charge          ....    0
 Multiplicity           Mult            ....    1
 Number of Electrons    NEL             ....   36
Dispersion correction           -0.000655626
FINAL SINGLE POINT ENERGY      -231.462148042714
Dispersion correction           -0.000231123
FINAL SINGLE POINT ENERGY      -115.732707954418

CARTESIAN COORDINATES (ANGSTROEM)
---------------------------------
  C     -5.133653    6.341155    4.742406
  O     -5.119965    5.757814    5.996789
  H     -4.614317    6.391830    6.569836
  H     -5.439715    7.357164    4.755278
  H     -4.234583    6.205325    4.158552
  H     -5.880882    5.822539    4.108501
  C     -5.872700    2.986529   10.267093
  O     -5.865862    4.344613   10.571159
  H     -5.098697    4.792286   10.334538
  H     -6.569282    2.379499   10.765227
  H     -6.025662    2.776042    9.205481
  H     -4.916978    2.548329   10.496843

 Multiplicity           Mult            ....    1
 Number of Electrons    NEL             ....   18
 Basis Dimension        Dim             ....  172

ORBITAL ENERGIES
----------------

  NO   OCC          E(Eh)            E(eV)
   0   2.0000     -19.224582      -523.1275
   1   2.0000     -10.306013      -280.4409
   2   2.0000      -1.146540       -31.1989
   3   2.0000      -0.809323       -22.0228
   4   2.0000      -0.625641       -17.0246
   5   2.0000      -0.542008       -14.7488
   6   2.0000      -0.539830       -14.6895
   7   2.0000      -0.424911       -11.5624
   8   2.0000      -0.372653       -10.1404
   9   0.0000       0.084399         2.2966
  10   0.0000       0.116711         3.1759
  11   0.0000       0.153719         4.1829
  12   0.0000       0.169337         4.6079
  13   0.0000       0.195307         5.3146

MULLIKEN ATOMIC CHARGES
-----------------------
   0 C :    0.000007
   1 O :   -0.000006
   2 H :   -0.000125
   3 H :   -0.000001
   4 H :   -0.000000
   5 H :   -0.000000
   6 C :   -0.143978
   7 O :   -0.480614
   8 H :    0.314559
   9 H :    0.120478
  10 H :    0.093302
  11 H :    0.096378
Sum of atomic charges:    0.0000000

LOEWDIN ATOMIC CHARGES
----------------------
   0 C :   -0.000002
   1 O :   -0.000020
   2 H :   -0.000083
   3 H :   -0.000000
   4 H :   -0.000000
   5 H :   -0.000000
   6 C :   -0.388585
   7 O :   -0.040055
   8 H :    0.143483
   9 H :    0.098376
  10 H :    0.094113
  11 H :    0.092774

  Mayer bond orders larger than 0.1
B(  6-C ,  7-O ) :   0.9998 B(  6-C ,  9-H ) :   0.9722 B(  6-C , 10-H ) :   0.9776
B(  6-C , 11-H ) :   0.9888 B(  7-O ,  8-H ) :   0.9013

Dispersion correction           -0.000242525
FINAL SINGLE POINT ENERGY      -115.729459690895

DIPOLE MOMENT
-------------
                                X             Y             Z
Electronic contribution:     -0.18810       1.81747       0.52265
Nuclear contribution   :      0.70868      -2.08385      -0.78576
                        -----------------------------------------
Total Dipole Moment    :      0.52059      -0.26637      -0.26311
                        -----------------------------------------
Magnitude (a.u.)       :      0.64124
Magnitude (Debye)      :      1.62990

Rotational constants in cm-1:     4.766694     0.837319     0.814728
Rotational constants in MHz : 142901.884382 25102.186779 24424.932020

                             ****ORCA TERMINATED NORMALLY****
TOTAL RUN TIME: 0 days 0 hours 6 minutes 26 seconds 295 msec
