                         Program Version 4.1.2  - RELEASE  -
|  1> #Run DFT-D3 single point of the dimer
|  2> ! wB97X-D3 def2-TZVP TIGHTSCF CHELPG PMODEL PAL8
|  3>
|  4> %base "14-58_DFT_AB"
|  5>
|  6> %scf
|  7> MaxIter 1000
|  8> end
|  9>
| 10> * xyz 0 1
| 11>   C                      4.463888             10.329483            8.452455
| 12>   O                      5.053410             11.626280            8.445353
| 13>   H                      5.107064             11.999492            9.351809
| 14>   H                      3.465351             10.341592            8.955897
| 15>   H                      4.478914             10.000706            7.463618
| 16>   H                      5.187701             9.732460             8.978266
| 17>   C                      4.388726             9.552347             4.107769
| 18>   O                      3.658373             10.791199            3.972399
| 19>   H                      4.131844             11.185046            3.315847
| 20>   H                      5.271606             9.540053             4.751610
| 21>   H                      3.759184             8.694023             4.459924
| 22>   H                      4.778763             9.165243             3.156276
| 23> *
| 24>
| 25> #Run DFT-D3 single point of the molecule with dimer basis set
| 26> $new_job
| 27> %base "14-58_DFT_A"
| 28> ! wB97X-D3 def2-TZVP TIGHTSCF CHELPG PMODEL
| 29>
| 30> %scf
| 31> MaxIter 1000
| 32> end
| 33>
| 34> * xyz 0 1
| 35>   C                      4.463888             10.329483            8.452455
| 36>   O                      5.053410             11.626280            8.445353
| 37>   H                      5.107064             11.999492            9.351809
| 38>   H                      3.465351             10.341592            8.955897
| 39>   H                      4.478914             10.000706            7.463618
| 40>   H                      5.187701             9.732460             8.978266
| 41>   C                    : 4.388726             9.552347             4.107769
| 42>   O                    : 3.658373             10.791199            3.972399
| 43>   H                    : 4.131844             11.185046            3.315847
| 44>   H                    : 5.271606             9.540053             4.751610
| 45>   H                    : 3.759184             8.694023             4.459924
| 46>   H                    : 4.778763             9.165243             3.156276
| 47> *
| 48>
| 49> #Run DFT-D3 single point of the particle with dimer basis set
| 50> $new_job
| 51> %base "14-58_DFT_B"
| 52> ! wB97X-D3 def2-TZVP TIGHTSCF CHELPG PMODEL
| 53>
| 54> %scf
| 55> MaxIter 1000
| 56> end
| 57>
| 58> * xyz 0 1
| 59>   C                    : 4.463888             10.329483            8.452455
| 60>   O                    : 5.053410             11.626280            8.445353
| 61>   H                    : 5.107064             11.999492            9.351809
| 62>   H                    : 3.465351             10.341592            8.955897
| 63>   H                    : 4.478914             10.000706            7.463618
| 64>   H                    : 5.187701             9.732460             8.978266
| 65>   C                      4.388726             9.552347             4.107769
| 66>   O                      3.658373             10.791199            3.972399
| 67>   H                      4.131844             11.185046            3.315847
| 68>   H                      5.271606             9.540053             4.751610
| 69>   H                      3.759184             8.694023             4.459924
| 70>   H                      4.778763             9.165243             3.156276
| 71> *
| 72>
| 73>                          ****END OF INPUT****
 Total Charge           Charge          ....    0
 Multiplicity           Mult            ....    1
 Number of Electrons    NEL             ....   36
Dispersion correction           -0.001150523
FINAL SINGLE POINT ENERGY      -231.457241668696
Dispersion correction           -0.000225182
FINAL SINGLE POINT ENERGY      -115.730649467149

CARTESIAN COORDINATES (ANGSTROEM)
---------------------------------
  C      4.463888   10.329483    8.452455
  O      5.053410   11.626280    8.445353
  H      5.107064   11.999492    9.351809
  H      3.465351   10.341592    8.955897
  H      4.478914   10.000706    7.463618
  H      5.187701    9.732460    8.978266
  C      4.388726    9.552347    4.107769
  O      3.658373   10.791199    3.972399
  H      4.131844   11.185046    3.315847
  H      5.271606    9.540053    4.751610
  H      3.759184    8.694023    4.459924
  H      4.778763    9.165243    3.156276

 Multiplicity           Mult            ....    1
 Number of Electrons    NEL             ....   18
 Basis Dimension        Dim             ....  172

ORBITAL ENERGIES
----------------

  NO   OCC          E(Eh)            E(eV)
   0   2.0000     -19.233742      -523.3767
   1   2.0000     -10.320483      -280.8346
   2   2.0000      -1.149380       -31.2762
   3   2.0000      -0.799930       -21.7672
   4   2.0000      -0.616204       -16.7678
   5   2.0000      -0.534815       -14.5531
   6   2.0000      -0.524439       -14.2707
   7   2.0000      -0.444610       -12.0984
   8   2.0000      -0.382165       -10.3992
   9   0.0000       0.090744         2.4693
  10   0.0000       0.120644         3.2829
  11   0.0000       0.146306         3.9812
  12   0.0000       0.175108         4.7649
  13   0.0000       0.189282         5.1506

MULLIKEN ATOMIC CHARGES
-----------------------
   0 C :   -0.002455
   1 O :    0.000023
   2 H :   -0.000001
   3 H :    0.000031
   4 H :    0.004193
   5 H :    0.000100
   6 C :   -0.202588
   7 O :   -0.443587
   8 H :    0.302218
   9 H :    0.108959
  10 H :    0.121155
  11 H :    0.111951
Sum of atomic charges:   -0.0000000

LOEWDIN ATOMIC CHARGES
----------------------
   0 C :   -0.000588
   1 O :   -0.000012
   2 H :   -0.000001
   3 H :   -0.000003
   4 H :   -0.000889
   5 H :   -0.000007
   6 C :   -0.376672
   7 O :   -0.057275
   8 H :    0.130402
   9 H :    0.094580
  10 H :    0.113144
  11 H :    0.097321

  Mayer bond orders larger than 0.1
B(  6-C ,  7-O ) :   1.0081 B(  6-C ,  9-H ) :   0.9663 B(  6-C , 10-H ) :   0.9763
B(  6-C , 11-H ) :   0.9805 B(  7-O ,  8-H ) :   0.9179

Dispersion correction           -0.000264577
FINAL SINGLE POINT ENERGY      -115.726298174485

DIPOLE MOMENT
-------------
                                X             Y             Z
Electronic contribution:     -1.08545       1.75426      -0.02985
Nuclear contribution   :      1.67990      -2.00481      -0.35998
                        -----------------------------------------
Total Dipole Moment    :      0.59445      -0.25055      -0.38982
                        -----------------------------------------
Magnitude (a.u.)       :      0.75373
Magnitude (Debye)      :      1.91583

Rotational constants in cm-1:     4.497451     0.793590     0.767663
Rotational constants in MHz : 134830.187026 23791.220805 23013.958190

                             ****ORCA TERMINATED NORMALLY****
TOTAL RUN TIME: 0 days 0 hours 0 minutes 55 seconds 872 msec
