                         Program Version 4.1.2  - RELEASE  -
|  1> #Run DFT-D3 single point of the dimer
|  2> ! wB97X-D3 def2-TZVP TIGHTSCF CHELPG PMODEL PAL8
|  3>
|  4> %base "17-63_DFT_AB"
|  5>
|  6> %scf
|  7> MaxIter 1000
|  8> end
|  9>
| 10> * xyz 0 1
| 11>   C                      3.428928             8.666497             5.285069
| 12>   O                      4.762131             8.230754             5.347500
| 13>   H                      4.851017             7.570642             4.577961
| 14>   H                      3.003292             8.738284             4.342669
| 15>   H                      2.793504             7.932422             5.811546
| 16>   H                      3.320919             9.639837             5.807513
| 17>   C                      1.263298             8.071151             1.297706
| 18>   O                      1.107930             8.673241             2.604837
| 19>   H                      1.560115             9.489564             2.538540
| 20>   H                      2.336274             7.912194             1.074222
| 21>   H                      0.795633             7.135600             1.198332
| 22>   H                      0.729675             8.716011             0.583347
| 23> *
| 24>
| 25> #Run DFT-D3 single point of the molecule with dimer basis set
| 26> $new_job
| 27> %base "17-63_DFT_A"
| 28> ! wB97X-D3 def2-TZVP TIGHTSCF CHELPG PMODEL
| 29>
| 30> %scf
| 31> MaxIter 1000
| 32> end
| 33>
| 34> * xyz 0 1
| 35>   C                      3.428928             8.666497             5.285069
| 36>   O                      4.762131             8.230754             5.347500
| 37>   H                      4.851017             7.570642             4.577961
| 38>   H                      3.003292             8.738284             4.342669
| 39>   H                      2.793504             7.932422             5.811546
| 40>   H                      3.320919             9.639837             5.807513
| 41>   C                    : 1.263298             8.071151             1.297706
| 42>   O                    : 1.107930             8.673241             2.604837
| 43>   H                    : 1.560115             9.489564             2.538540
| 44>   H                    : 2.336274             7.912194             1.074222
| 45>   H                    : 0.795633             7.135600             1.198332
| 46>   H                    : 0.729675             8.716011             0.583347
| 47> *
| 48>
| 49> #Run DFT-D3 single point of the particle with dimer basis set
| 50> $new_job
| 51> %base "17-63_DFT_B"
| 52> ! wB97X-D3 def2-TZVP TIGHTSCF CHELPG PMODEL
| 53>
| 54> %scf
| 55> MaxIter 1000
| 56> end
| 57>
| 58> * xyz 0 1
| 59>   C                    : 3.428928             8.666497             5.285069
| 60>   O                    : 4.762131             8.230754             5.347500
| 61>   H                    : 4.851017             7.570642             4.577961
| 62>   H                    : 3.003292             8.738284             4.342669
| 63>   H                    : 2.793504             7.932422             5.811546
| 64>   H                    : 3.320919             9.639837             5.807513
| 65>   C                      1.263298             8.071151             1.297706
| 66>   O                      1.107930             8.673241             2.604837
| 67>   H                      1.560115             9.489564             2.538540
| 68>   H                      2.336274             7.912194             1.074222
| 69>   H                      0.795633             7.135600             1.198332
| 70>   H                      0.729675             8.716011             0.583347
| 71> *
| 72>
| 73>                          ****END OF INPUT****
 Total Charge           Charge          ....    0
 Multiplicity           Mult            ....    1
 Number of Electrons    NEL             ....   36
Dispersion correction           -0.001397301
FINAL SINGLE POINT ENERGY      -231.463076491329
Dispersion correction           -0.000231716
FINAL SINGLE POINT ENERGY      -115.729368713156

CARTESIAN COORDINATES (ANGSTROEM)
---------------------------------
  C      3.428928    8.666497    5.285069
  O      4.762131    8.230754    5.347500
  H      4.851017    7.570642    4.577961
  H      3.003292    8.738284    4.342669
  H      2.793504    7.932422    5.811546
  H      3.320919    9.639837    5.807513
  C      1.263298    8.071151    1.297706
  O      1.107930    8.673241    2.604837
  H      1.560115    9.489564    2.538540
  H      2.336274    7.912194    1.074222
  H      0.795633    7.135600    1.198332
  H      0.729675    8.716011    0.583347

 Multiplicity           Mult            ....    1
 Number of Electrons    NEL             ....   18
 Basis Dimension        Dim             ....  172

ORBITAL ENERGIES
----------------

  NO   OCC          E(Eh)            E(eV)
   0   2.0000     -19.228612      -523.2371
   1   2.0000     -10.314479      -280.6712
   2   2.0000      -1.133724       -30.8502
   3   2.0000      -0.800802       -21.7909
   4   2.0000      -0.601016       -16.3545
   5   2.0000      -0.547296       -14.8927
   6   2.0000      -0.532105       -14.4793
   7   2.0000      -0.435254       -11.8439
   8   2.0000      -0.376774       -10.2526
   9   0.0000       0.090169         2.4536
  10   0.0000       0.128688         3.5018
  11   0.0000       0.150488         4.0950
  12   0.0000       0.173929         4.7329
  13   0.0000       0.196234         5.3398

MULLIKEN ATOMIC CHARGES
-----------------------
   0 C :    0.018403
   1 O :   -0.000251
   2 H :   -0.000177
   3 H :   -0.032034
   4 H :   -0.001970
   5 H :   -0.000714
   6 C :   -0.173387
   7 O :   -0.460985
   8 H :    0.313533
   9 H :    0.106883
  10 H :    0.124046
  11 H :    0.106652
Sum of atomic charges:   -0.0000000

LOEWDIN ATOMIC CHARGES
----------------------
   0 C :   -0.005510
   1 O :   -0.000034
   2 H :   -0.000024
   3 H :   -0.012709
   4 H :   -0.000416
   5 H :   -0.000079
   6 C :   -0.355905
   7 O :   -0.076756
   8 H :    0.152811
   9 H :    0.100634
  10 H :    0.097641
  11 H :    0.100349

  Mayer bond orders larger than 0.1
B(  6-C ,  7-O ) :   0.9969 B(  6-C ,  9-H ) :   0.9753 B(  6-C , 10-H ) :   0.9738
B(  6-C , 11-H ) :   0.9815 B(  7-O ,  8-H ) :   0.9040

Dispersion correction           -0.000233096
FINAL SINGLE POINT ENERGY      -115.732384774204

DIPOLE MOMENT
-------------
                                X             Y             Z
Electronic contribution:     -0.27676       0.56456       1.67070
Nuclear contribution   :      0.59202      -0.32967      -2.27270
                        -----------------------------------------
Total Dipole Moment    :      0.31526       0.23489      -0.60199
                        -----------------------------------------
Magnitude (a.u.)       :      0.71900
Magnitude (Debye)      :      1.82754

Rotational constants in cm-1:     4.339431     0.801024     0.785940
Rotational constants in MHz : 130092.862704 24014.080986 23561.888263

                             ****ORCA TERMINATED NORMALLY****
TOTAL RUN TIME: 0 days 0 hours 1 minutes 10 seconds 778 msec
