                         Program Version 4.1.2  - RELEASE  -
|  1> #Run DFT-D3 single point of the dimer
|  2> ! wB97X-D3 def2-TZVP TIGHTSCF CHELPG PMODEL PAL8
|  3>
|  4> %base "11-70_DFT_AB"
|  5>
|  6> %scf
|  7> MaxIter 1000
|  8> end
|  9>
| 10> * xyz 0 1
| 11>   C                      11.210682            9.246803             6.188863
| 12>   O                      11.549430            8.223964             5.224175
| 13>   H                      11.164311            8.328825             4.327987
| 14>   H                      10.399351            9.964930             5.876393
| 15>   H                      11.010089            8.837820             7.195674
| 16>   H                      12.169177            9.877960             6.296828
| 17>   C                      9.235937             6.856462             8.979347
| 18>   O                      8.169158             7.760374             9.189008
| 19>   H                      8.528831             8.563876             9.578606
| 20>   H                      9.455103             6.712166             7.905460
| 21>   H                      10.129346            7.193649             9.507493
| 22>   H                      9.047550             5.817017             9.323970
| 23> *
| 24>
| 25> #Run DFT-D3 single point of the molecule with dimer basis set
| 26> $new_job
| 27> %base "11-70_DFT_A"
| 28> ! wB97X-D3 def2-TZVP TIGHTSCF CHELPG PMODEL
| 29>
| 30> %scf
| 31> MaxIter 1000
| 32> end
| 33>
| 34> * xyz 0 1
| 35>   C                      11.210682            9.246803             6.188863
| 36>   O                      11.549430            8.223964             5.224175
| 37>   H                      11.164311            8.328825             4.327987
| 38>   H                      10.399351            9.964930             5.876393
| 39>   H                      11.010089            8.837820             7.195674
| 40>   H                      12.169177            9.877960             6.296828
| 41>   C                    : 9.235937             6.856462             8.979347
| 42>   O                    : 8.169158             7.760374             9.189008
| 43>   H                    : 8.528831             8.563876             9.578606
| 44>   H                    : 9.455103             6.712166             7.905460
| 45>   H                    : 10.129346            7.193649             9.507493
| 46>   H                    : 9.047550             5.817017             9.323970
| 47> *
| 48>
| 49> #Run DFT-D3 single point of the particle with dimer basis set
| 50> $new_job
| 51> %base "11-70_DFT_B"
| 52> ! wB97X-D3 def2-TZVP TIGHTSCF CHELPG PMODEL
| 53>
| 54> %scf
| 55> MaxIter 1000
| 56> end
| 57>
| 58> * xyz 0 1
| 59>   C                    : 11.210682            9.246803             6.188863
| 60>   O                    : 11.549430            8.223964             5.224175
| 61>   H                    : 11.164311            8.328825             4.327987
| 62>   H                    : 10.399351            9.964930             5.876393
| 63>   H                    : 11.010089            8.837820             7.195674
| 64>   H                    : 12.169177            9.877960             6.296828
| 65>   C                      9.235937             6.856462             8.979347
| 66>   O                      8.169158             7.760374             9.189008
| 67>   H                      8.528831             8.563876             9.578606
| 68>   H                      9.455103             6.712166             7.905460
| 69>   H                      10.129346            7.193649             9.507493
| 70>   H                      9.047550             5.817017             9.323970
| 71> *
| 72>
| 73>                          ****END OF INPUT****
 Total Charge           Charge          ....    0
 Multiplicity           Mult            ....    1
 Number of Electrons    NEL             ....   36
Dispersion correction           -0.001438316
FINAL SINGLE POINT ENERGY      -231.463058428188
Dispersion correction           -0.000298088
FINAL SINGLE POINT ENERGY      -115.728240719642

CARTESIAN COORDINATES (ANGSTROEM)
---------------------------------
  C     11.210682    9.246803    6.188863
  O     11.549430    8.223964    5.224175
  H     11.164311    8.328825    4.327987
  H     10.399351    9.964930    5.876393
  H     11.010089    8.837820    7.195674
  H     12.169177    9.877960    6.296828
  C      9.235937    6.856462    8.979347
  O      8.169158    7.760374    9.189008
  H      8.528831    8.563876    9.578606
  H      9.455103    6.712166    7.905460
  H     10.129346    7.193649    9.507493
  H      9.047550    5.817017    9.323970

 Multiplicity           Mult            ....    1
 Number of Electrons    NEL             ....   18
 Basis Dimension        Dim             ....  172

ORBITAL ENERGIES
----------------

  NO   OCC          E(Eh)            E(eV)
   0   2.0000     -19.232137      -523.3331
   1   2.0000     -10.316129      -280.7161
   2   2.0000      -1.136593       -30.9283
   3   2.0000      -0.794180       -21.6107
   4   2.0000      -0.612954       -16.6793
   5   2.0000      -0.537318       -14.6212
   6   2.0000      -0.529511       -14.4087
   7   2.0000      -0.432805       -11.7772
   8   2.0000      -0.372467       -10.1353
   9   0.0000       0.082146         2.2353
  10   0.0000       0.114924         3.1272
  11   0.0000       0.150329         4.0907
  12   0.0000       0.163918         4.4604
  13   0.0000       0.189412         5.1542

MULLIKEN ATOMIC CHARGES
-----------------------
   0 C :    0.000139
   1 O :   -0.000011
   2 H :   -0.000008
   3 H :   -0.000123
   4 H :    0.000104
   5 H :    0.000076
   6 C :   -0.171227
   7 O :   -0.472371
   8 H :    0.320241
   9 H :    0.104428
  10 H :    0.105057
  11 H :    0.113696
Sum of atomic charges:    0.0000000

LOEWDIN ATOMIC CHARGES
----------------------
   0 C :   -0.001580
   1 O :   -0.000092
   2 H :   -0.000016
   3 H :   -0.000028
   4 H :   -0.002114
   5 H :   -0.000003
   6 C :   -0.390750
   7 O :   -0.078177
   8 H :    0.172664
   9 H :    0.099545
  10 H :    0.096436
  11 H :    0.104115

  Mayer bond orders larger than 0.1
B(  6-C ,  7-O ) :   1.0114 B(  6-C ,  9-H ) :   0.9753 B(  6-C , 10-H ) :   0.9871
B(  6-C , 11-H ) :   0.9739 B(  7-O ,  8-H ) :   0.8973

Dispersion correction           -0.000257380
FINAL SINGLE POINT ENERGY      -115.733866464343

DIPOLE MOMENT
-------------
                                X             Y             Z
Electronic contribution:     -1.50685       1.14635       0.25037
Nuclear contribution   :      2.16894      -0.98143      -0.06497
                        -----------------------------------------
Total Dipole Moment    :      0.66209       0.16493       0.18540
                        -----------------------------------------
Magnitude (a.u.)       :      0.70706
Magnitude (Debye)      :      1.79720

Rotational constants in cm-1:     4.339004     0.823796     0.790987
Rotational constants in MHz : 130080.081429 24696.788183 23713.187526

                             ****ORCA TERMINATED NORMALLY****
TOTAL RUN TIME: 0 days 0 hours 1 minutes 11 seconds 496 msec
