                         Program Version 4.1.2  - RELEASE  -
|  1> #Run DFT-D3 single point of the dimer
|  2> ! wB97X-D3 def2-TZVP TIGHTSCF CHELPG PMODEL PAL8
|  3>
|  4> %base "10-99_DFT_AB"
|  5>
|  6> %scf
|  7> MaxIter 1000
|  8> end
|  9>
| 10> * xyz 0 1
| 11>   C                      -6.546840            0.074704             9.038280
| 12>   O                      -6.336000            1.429750             8.808845
| 13>   H                      -5.428613            1.515341             8.559811
| 14>   H                      -7.109638            -0.391232            8.240486
| 15>   H                      -5.589320            -0.496312            9.039589
| 16>   H                      -7.081118            -0.070553            9.995042
| 17>   C                      -9.038781            2.382925             10.671437
| 18>   O                      -9.148881            2.405366             9.247341
| 19>   H                      -8.234195            2.152081             9.055824
| 20>   H                      -9.097969            1.345778             11.088564
| 21>   H                      -8.193476            2.976226             11.111327
| 22>   H                      -9.900120            2.850462             11.183884
| 23> *
| 24>
| 25> #Run DFT-D3 single point of the molecule with dimer basis set
| 26> $new_job
| 27> %base "10-99_DFT_A"
| 28> ! wB97X-D3 def2-TZVP TIGHTSCF CHELPG PMODEL
| 29>
| 30> %scf
| 31> MaxIter 1000
| 32> end
| 33>
| 34> * xyz 0 1
| 35>   C                      -6.546840            0.074704             9.038280
| 36>   O                      -6.336000            1.429750             8.808845
| 37>   H                      -5.428613            1.515341             8.559811
| 38>   H                      -7.109638            -0.391232            8.240486
| 39>   H                      -5.589320            -0.496312            9.039589
| 40>   H                      -7.081118            -0.070553            9.995042
| 41>   C                    : -9.038781            2.382925             10.671437
| 42>   O                    : -9.148881            2.405366             9.247341
| 43>   H                    : -8.234195            2.152081             9.055824
| 44>   H                    : -9.097969            1.345778             11.088564
| 45>   H                    : -8.193476            2.976226             11.111327
| 46>   H                    : -9.900120            2.850462             11.183884
| 47> *
| 48>
| 49> #Run DFT-D3 single point of the particle with dimer basis set
| 50> $new_job
| 51> %base "10-99_DFT_B"
| 52> ! wB97X-D3 def2-TZVP TIGHTSCF CHELPG PMODEL
| 53>
| 54> %scf
| 55> MaxIter 1000
| 56> end
| 57>
| 58> * xyz 0 1
| 59>   C                    : -6.546840            0.074704             9.038280
| 60>   O                    : -6.336000            1.429750             8.808845
| 61>   H                    : -5.428613            1.515341             8.559811
| 62>   H                    : -7.109638            -0.391232            8.240486
| 63>   H                    : -5.589320            -0.496312            9.039589
| 64>   H                    : -7.081118            -0.070553            9.995042
| 65>   C                      -9.038781            2.382925             10.671437
| 66>   O                      -9.148881            2.405366             9.247341
| 67>   H                      -8.234195            2.152081             9.055824
| 68>   H                      -9.097969            1.345778             11.088564
| 69>   H                      -8.193476            2.976226             11.111327
| 70>   H                      -9.900120            2.850462             11.183884
| 71> *
| 72>
| 73>                          ****END OF INPUT****
 Total Charge           Charge          ....    0
 Multiplicity           Mult            ....    1
 Number of Electrons    NEL             ....   36
Dispersion correction           -0.002126193
FINAL SINGLE POINT ENERGY      -231.471397723972
Dispersion correction           -0.000234363
FINAL SINGLE POINT ENERGY      -115.734373463859

CARTESIAN COORDINATES (ANGSTROEM)
---------------------------------
  C     -6.546840    0.074704    9.038280
  O     -6.336000    1.429750    8.808845
  H     -5.428613    1.515341    8.559811
  H     -7.109638   -0.391232    8.240486
  H     -5.589320   -0.496312    9.039589
  H     -7.081118   -0.070553    9.995042
  C     -9.038781    2.382925   10.671437
  O     -9.148881    2.405366    9.247341
  H     -8.234195    2.152081    9.055824
  H     -9.097969    1.345778   11.088564
  H     -8.193476    2.976226   11.111327
  H     -9.900120    2.850462   11.183884

 Multiplicity           Mult            ....    1
 Number of Electrons    NEL             ....   18
 Basis Dimension        Dim             ....  172

ORBITAL ENERGIES
----------------

  NO   OCC          E(Eh)            E(eV)
   0   2.0000     -19.241259      -523.5813
   1   2.0000     -10.321411      -280.8599
   2   2.0000      -1.141254       -31.0551
   3   2.0000      -0.789772       -21.4908
   4   2.0000      -0.603477       -16.4214
   5   2.0000      -0.542245       -14.7552
   6   2.0000      -0.526209       -14.3189
   7   2.0000      -0.436939       -11.8897
   8   2.0000      -0.380317       -10.3490
   9   0.0000       0.070419         1.9162
  10   0.0000       0.135475         3.6865
  11   0.0000       0.143732         3.9111
  12   0.0000       0.160380         4.3641
  13   0.0000       0.196165         5.3379

MULLIKEN ATOMIC CHARGES
-----------------------
   0 C :   -0.007967
   1 O :   -0.001442
   2 H :   -0.000176
   3 H :    0.000880
   4 H :   -0.000204
   5 H :    0.000691
   6 C :   -0.213083
   7 O :   -0.441782
   8 H :    0.317353
   9 H :    0.110837
  10 H :    0.112170
  11 H :    0.122722
Sum of atomic charges:    0.0000000

LOEWDIN ATOMIC CHARGES
----------------------
   0 C :   -0.008722
   1 O :   -0.013961
   2 H :   -0.000547
   3 H :   -0.000575
   4 H :   -0.000160
   5 H :   -0.002325
   6 C :   -0.403471
   7 O :   -0.071232
   8 H :    0.186771
   9 H :    0.102274
  10 H :    0.102941
  11 H :    0.109008

  Mayer bond orders larger than 0.1
B(  6-C ,  7-O ) :   1.0009 B(  6-C ,  9-H ) :   0.9712 B(  6-C , 10-H ) :   0.9708
B(  6-C , 11-H ) :   0.9759 B(  7-O ,  8-H ) :   0.9086

Dispersion correction           -0.000253781
FINAL SINGLE POINT ENERGY      -115.729222800526

DIPOLE MOMENT
-------------
                                X             Y             Z
Electronic contribution:     -0.24658       0.07482      -2.02447
Nuclear contribution   :      0.80331      -0.21168       2.45613
                        -----------------------------------------
Total Dipole Moment    :      0.55674      -0.13686       0.43166
                        -----------------------------------------
Magnitude (a.u.)       :      0.71765
Magnitude (Debye)      :      1.82412

Rotational constants in cm-1:     4.216797     0.807403     0.785937
Rotational constants in MHz : 126416.392252 24205.323603 23561.796300

                             ****ORCA TERMINATED NORMALLY****
TOTAL RUN TIME: 0 days 0 hours 1 minutes 1 seconds 202 msec
