                         Program Version 4.1.2  - RELEASE  -
|  1> #Run DFT-D3 single point of the dimer
|  2> ! wB97X-D3 def2-TZVP TIGHTSCF CHELPG PMODEL PAL8
|  3>
|  4> %base "4-26_DFT_AB"
|  5>
|  6> %scf
|  7> MaxIter 1000
|  8> end
|  9>
| 10> * xyz 0 1
| 11>   C                      1.278964             -10.654822           2.337766
| 12>   O                      1.975469             -10.763566           3.561013
| 13>   H                      2.763265             -11.256909           3.348373
| 14>   H                      0.900062             -11.560758           2.008515
| 15>   H                      0.551293             -9.905268            2.334664
| 16>   H                      2.032881             -10.389157           1.510708
| 17>   C                      -4.010437            -8.683124            2.416926
| 18>   O                      -5.006554            -7.797326            2.937151
| 19>   H                      -4.913729            -7.740225            3.870145
| 20>   H                      -4.399258            -9.748202            2.576099
| 21>   H                      -3.845661            -8.474505            1.361604
| 22>   H                      -3.073147            -8.658348            2.923002
| 23> *
| 24>
| 25> #Run DFT-D3 single point of the molecule with dimer basis set
| 26> $new_job
| 27> %base "4-26_DFT_A"
| 28> ! wB97X-D3 def2-TZVP TIGHTSCF CHELPG PMODEL
| 29>
| 30> %scf
| 31> MaxIter 1000
| 32> end
| 33>
| 34> * xyz 0 1
| 35>   C                      1.278964             -10.654822           2.337766
| 36>   O                      1.975469             -10.763566           3.561013
| 37>   H                      2.763265             -11.256909           3.348373
| 38>   H                      0.900062             -11.560758           2.008515
| 39>   H                      0.551293             -9.905268            2.334664
| 40>   H                      2.032881             -10.389157           1.510708
| 41>   C                    : -4.010437            -8.683124            2.416926
| 42>   O                    : -5.006554            -7.797326            2.937151
| 43>   H                    : -4.913729            -7.740225            3.870145
| 44>   H                    : -4.399258            -9.748202            2.576099
| 45>   H                    : -3.845661            -8.474505            1.361604
| 46>   H                    : -3.073147            -8.658348            2.923002
| 47> *
| 48>
| 49> #Run DFT-D3 single point of the particle with dimer basis set
| 50> $new_job
| 51> %base "4-26_DFT_B"
| 52> ! wB97X-D3 def2-TZVP TIGHTSCF CHELPG PMODEL
| 53>
| 54> %scf
| 55> MaxIter 1000
| 56> end
| 57>
| 58> * xyz 0 1
| 59>   C                    : 1.278964             -10.654822           2.337766
| 60>   O                    : 1.975469             -10.763566           3.561013
| 61>   H                    : 2.763265             -11.256909           3.348373
| 62>   H                    : 0.900062             -11.560758           2.008515
| 63>   H                    : 0.551293             -9.905268            2.334664
| 64>   H                    : 2.032881             -10.389157           1.510708
| 65>   C                      -4.010437            -8.683124            2.416926
| 66>   O                      -5.006554            -7.797326            2.937151
| 67>   H                      -4.913729            -7.740225            3.870145
| 68>   H                      -4.399258            -9.748202            2.576099
| 69>   H                      -3.845661            -8.474505            1.361604
| 70>   H                      -3.073147            -8.658348            2.923002
| 71> *
| 72>
| 73>                          ****END OF INPUT****
 Total Charge           Charge          ....    0
 Multiplicity           Mult            ....    1
 Number of Electrons    NEL             ....   36
Dispersion correction           -0.000614424
FINAL SINGLE POINT ENERGY      -231.462530120367
Dispersion correction           -0.000217317
FINAL SINGLE POINT ENERGY      -115.729162621959

CARTESIAN COORDINATES (ANGSTROEM)
---------------------------------
  C      1.278964  -10.654822    2.337766
  O      1.975469  -10.763566    3.561013
  H      2.763265  -11.256909    3.348373
  H      0.900062  -11.560758    2.008515
  H      0.551293   -9.905268    2.334664
  H      2.032881  -10.389157    1.510708
  C     -4.010437   -8.683124    2.416926
  O     -5.006554   -7.797326    2.937151
  H     -4.913729   -7.740225    3.870145
  H     -4.399258   -9.748202    2.576099
  H     -3.845661   -8.474505    1.361604
  H     -3.073147   -8.658348    2.923002

 Multiplicity           Mult            ....    1
 Number of Electrons    NEL             ....   18
 Basis Dimension        Dim             ....  172

ORBITAL ENERGIES
----------------

  NO   OCC          E(Eh)            E(eV)
   0   2.0000     -19.226876      -523.1899
   1   2.0000     -10.316595      -280.7288
   2   2.0000      -1.134042       -30.8589
   3   2.0000      -0.797475       -21.7004
   4   2.0000      -0.613738       -16.7007
   5   2.0000      -0.536366       -14.5953
   6   2.0000      -0.522600       -14.2207
   7   2.0000      -0.439416       -11.9571
   8   2.0000      -0.370743       -10.0884
   9   0.0000       0.083038         2.2596
  10   0.0000       0.116783         3.1778
  11   0.0000       0.141141         3.8406
  12   0.0000       0.170213         4.6317
  13   0.0000       0.182897         4.9769

MULLIKEN ATOMIC CHARGES
-----------------------
   0 C :    0.000090
   1 O :   -0.000001
   2 H :    0.000000
   3 H :   -0.000003
   4 H :   -0.000211
   5 H :   -0.000004
   6 C :   -0.171221
   7 O :   -0.473646
   8 H :    0.309276
   9 H :    0.098523
  10 H :    0.125238
  11 H :    0.111959
Sum of atomic charges:   -0.0000000

LOEWDIN ATOMIC CHARGES
----------------------
   0 C :   -0.000027
   1 O :   -0.000001
   2 H :   -0.000000
   3 H :   -0.000001
   4 H :   -0.000129
   5 H :   -0.000000
   6 C :   -0.371268
   7 O :   -0.080959
   8 H :    0.152362
   9 H :    0.104527
  10 H :    0.107155
  11 H :    0.088341

  Mayer bond orders larger than 0.1
B(  6-C ,  7-O ) :   0.9944 B(  6-C ,  9-H ) :   0.9798 B(  6-C , 10-H ) :   0.9721
B(  6-C , 11-H ) :   0.9721 B(  7-O ,  8-H ) :   0.9057

Dispersion correction           -0.000248676
FINAL SINGLE POINT ENERGY      -115.733131996574

DIPOLE MOMENT
-------------
                                X             Y             Z
Electronic contribution:     -1.20971       1.26442       0.49989
Nuclear contribution   :      1.70335      -1.56207      -0.09952
                        -----------------------------------------
Total Dipole Moment    :      0.49364      -0.29764       0.40037
                        -----------------------------------------
Magnitude (a.u.)       :      0.70183
Magnitude (Debye)      :      1.78392

Rotational constants in cm-1:     4.289426     0.814047     0.787336
Rotational constants in MHz : 128593.745744 24404.521649 23603.730989

                             ****ORCA TERMINATED NORMALLY****
TOTAL RUN TIME: 0 days 0 hours 1 minutes 34 seconds 71 msec
