                         Program Version 4.1.2  - RELEASE  -
|  1> #Run DFT-D3 single point of the dimer
|  2> ! wB97X-D3 def2-TZVP TIGHTSCF  CHELPG PAL8
|  3>
|  4> %base "22_charges"
|  5>
|  6> %scf
|  7> MaxIter 1000
|  8> end
|  9> %output
| 10>   Print[ P_Mayer ] 1
| 11>   Print[ P_NatPop ] 1
| 12>   Print[ P_Hirshfeld ] 1
| 13>   Print[ P_Mulliken ] 1
| 14>   Print [ P_Loewdin ] 1
| 15> end
| 16>
| 17> * xyz 0 1
| 18>   C                      -1.241054            1.457268             3.839725
| 19>   O                      -0.873117            0.058310             3.815234
| 20>   H                      -0.145246            -0.131075            3.177464
| 21>   H                      -1.977165            1.636098             3.057054
| 22>   H                      -1.673766            1.784762             4.783125
| 23>   H                      -0.398377            2.109404             3.497991
| 24> *
| 25>
| 26>                          ****END OF INPUT****

CARTESIAN COORDINATES (ANGSTROEM)
---------------------------------
  C     -1.241054    1.457268    3.839725
  O     -0.873117    0.058310    3.815234
  H     -0.145246   -0.131075    3.177464
  H     -1.977165    1.636098    3.057054
  H     -1.673766    1.784762    4.783125
  H     -0.398377    2.109404    3.497991

 Total Charge           Charge          ....    0
 Multiplicity           Mult            ....    1
 Number of Electrons    NEL             ....   18
 Basis Dimension        Dim             ....   86

ORBITAL ENERGIES
----------------

  NO   OCC          E(Eh)            E(eV)
   0   2.0000     -19.229617      -523.2645
   1   2.0000     -10.318438      -280.7790
   2   2.0000      -1.117980       -30.4218
   3   2.0000      -0.795810       -21.6551
   4   2.0000      -0.603608       -16.4250
   5   2.0000      -0.534502       -14.5445
   6   2.0000      -0.524471       -14.2716
   7   2.0000      -0.430960       -11.7270
   8   2.0000      -0.369212       -10.0468
   9   0.0000       0.110512         3.0072
  10   0.0000       0.149870         4.0782
  11   0.0000       0.196991         5.3604
  12   0.0000       0.208476         5.6729
  13   0.0000       0.226071         6.1517

MULLIKEN ATOMIC CHARGES
-----------------------
   0 C :   -0.164848
   1 O :   -0.493757
   2 H :    0.319770
   3 H :    0.107319
   4 H :    0.125577
   5 H :    0.105939
Sum of atomic charges:    0.0000000

LOEWDIN ATOMIC CHARGES
----------------------
   0 C :   -0.364341
   1 O :   -0.118015
   2 H :    0.180965
   3 H :    0.094758
   4 H :    0.105253
   5 H :    0.101381

  Mayer bond orders larger than 0.1
B(  0-C ,  1-O ) :   0.9936 B(  0-C ,  3-H ) :   0.9766 B(  0-C ,  4-H ) :   0.9700
B(  0-C ,  5-H ) :   0.9795 B(  1-O ,  2-H ) :   0.8916

Dispersion correction           -0.000268475
FINAL SINGLE POINT ENERGY      -115.730823770191

DIPOLE MOMENT
-------------
                                X             Y             Z
Electronic contribution:      0.36629      -1.78220       0.23510
Nuclear contribution   :     -0.05585       2.25862      -0.64548
                        -----------------------------------------
Total Dipole Moment    :      0.31044       0.47642      -0.41038
                        -----------------------------------------
Magnitude (a.u.)       :      0.70126
Magnitude (Debye)      :      1.78245

Rotational constants in cm-1:     4.302455     0.795718     0.759093
Rotational constants in MHz : 128984.368931 23855.037914 22757.035307

                             ****ORCA TERMINATED NORMALLY****
TOTAL RUN TIME: 0 days 0 hours 0 minutes 40 seconds 233 msec
