                         Program Version 4.1.2  - RELEASE  -
|  1> #Run DFT-D3 single point of the dimer
|  2> ! wB97X-D3 def2-TZVP TIGHTSCF CHELPG PMODEL PAL8
|  3>
|  4> %base "20-203_DFT_AB"
|  5>
|  6> %scf
|  7> MaxIter 1000
|  8> end
|  9>
| 10> * xyz 0 1
| 11>   C                      6.941858             4.561202             3.819420
| 12>   O                      6.036226             3.829826             4.629647
| 13>   H                      6.490337             3.212845             5.236488
| 14>   H                      7.585249             5.221053             4.391091
| 15>   H                      7.546627             3.978698             3.156488
| 16>   H                      6.367427             5.198605             3.139385
| 17>   C                      5.534605             2.185884             8.156706
| 18>   O                      5.318715             1.865475             6.790076
| 19>   H                      4.667424             2.424962             6.448115
| 20>   H                      6.493913             1.733654             8.537385
| 21>   H                      5.628464             3.268883             8.368282
| 22>   H                      4.732055             1.903321             8.799930
| 23> *
| 24>
| 25> #Run DFT-D3 single point of the molecule with dimer basis set
| 26> $new_job
| 27> %base "20-203_DFT_A"
| 28> ! wB97X-D3 def2-TZVP TIGHTSCF CHELPG PMODEL
| 29>
| 30> %scf
| 31> MaxIter 1000
| 32> end
| 33>
| 34> * xyz 0 1
| 35>   C                      6.941858             4.561202             3.819420
| 36>   O                      6.036226             3.829826             4.629647
| 37>   H                      6.490337             3.212845             5.236488
| 38>   H                      7.585249             5.221053             4.391091
| 39>   H                      7.546627             3.978698             3.156488
| 40>   H                      6.367427             5.198605             3.139385
| 41>   C                    : 5.534605             2.185884             8.156706
| 42>   O                    : 5.318715             1.865475             6.790076
| 43>   H                    : 4.667424             2.424962             6.448115
| 44>   H                    : 6.493913             1.733654             8.537385
| 45>   H                    : 5.628464             3.268883             8.368282
| 46>   H                    : 4.732055             1.903321             8.799930
| 47> *
| 48>
| 49> #Run DFT-D3 single point of the particle with dimer basis set
| 50> $new_job
| 51> %base "20-203_DFT_B"
| 52> ! wB97X-D3 def2-TZVP TIGHTSCF CHELPG PMODEL
| 53>
| 54> %scf
| 55> MaxIter 1000
| 56> end
| 57>
| 58> * xyz 0 1
| 59>   C                    : 6.941858             4.561202             3.819420
| 60>   O                    : 6.036226             3.829826             4.629647
| 61>   H                    : 6.490337             3.212845             5.236488
| 62>   H                    : 7.585249             5.221053             4.391091
| 63>   H                    : 7.546627             3.978698             3.156488
| 64>   H                    : 6.367427             5.198605             3.139385
| 65>   C                      5.534605             2.185884             8.156706
| 66>   O                      5.318715             1.865475             6.790076
| 67>   H                      4.667424             2.424962             6.448115
| 68>   H                      6.493913             1.733654             8.537385
| 69>   H                      5.628464             3.268883             8.368282
| 70>   H                      4.732055             1.903321             8.799930
| 71> *
| 72>
| 73>                          ****END OF INPUT****
 Total Charge           Charge          ....    0
 Multiplicity           Mult            ....    1
 Number of Electrons    NEL             ....   36
Dispersion correction           -0.001473741
FINAL SINGLE POINT ENERGY      -231.475173109520
Dispersion correction           -0.000263671
FINAL SINGLE POINT ENERGY      -115.735540148547

CARTESIAN COORDINATES (ANGSTROEM)
---------------------------------
  C      6.941858    4.561202    3.819420
  O      6.036226    3.829826    4.629647
  H      6.490337    3.212845    5.236488
  H      7.585249    5.221053    4.391091
  H      7.546627    3.978698    3.156488
  H      6.367427    5.198605    3.139385
  C      5.534605    2.185884    8.156706
  O      5.318715    1.865475    6.790076
  H      4.667424    2.424962    6.448115
  H      6.493913    1.733654    8.537385
  H      5.628464    3.268883    8.368282
  H      4.732055    1.903321    8.799930

 Multiplicity           Mult            ....    1
 Number of Electrons    NEL             ....   18
 Basis Dimension        Dim             ....  172

ORBITAL ENERGIES
----------------

  NO   OCC          E(Eh)            E(eV)
   0   2.0000     -19.231389      -523.3127
   1   2.0000     -10.316648      -280.7303
   2   2.0000      -1.143255       -31.1095
   3   2.0000      -0.800518       -21.7832
   4   2.0000      -0.620630       -16.8882
   5   2.0000      -0.538156       -14.6440
   6   2.0000      -0.524113       -14.2618
   7   2.0000      -0.436938       -11.8897
   8   2.0000      -0.377030       -10.2595
   9   0.0000       0.089374         2.4320
  10   0.0000       0.122165         3.3243
  11   0.0000       0.150152         4.0859
  12   0.0000       0.192698         5.2436
  13   0.0000       0.193262         5.2589

MULLIKEN ATOMIC CHARGES
-----------------------
   0 C :   -0.000778
   1 O :   -0.003090
   2 H :   -0.009571
   3 H :   -0.000022
   4 H :    0.000017
   5 H :    0.000063
   6 C :   -0.172904
   7 O :   -0.458972
   8 H :    0.311250
   9 H :    0.120157
  10 H :    0.101584
  11 H :    0.112267
Sum of atomic charges:    0.0000000

LOEWDIN ATOMIC CHARGES
----------------------
   0 C :   -0.000341
   1 O :   -0.006261
   2 H :   -0.018684
   3 H :   -0.000008
   4 H :   -0.000006
   5 H :   -0.000009
   6 C :   -0.383440
   7 O :   -0.040216
   8 H :    0.146468
   9 H :    0.116267
  10 H :    0.096901
  11 H :    0.089329

  Mayer bond orders larger than 0.1
B(  6-C ,  7-O ) :   0.9941 B(  6-C ,  9-H ) :   0.9754 B(  6-C , 10-H ) :   0.9753
B(  6-C , 11-H ) :   0.9713 B(  7-O ,  8-H ) :   0.9050

Dispersion correction           -0.000256129
FINAL SINGLE POINT ENERGY      -115.733326269155

DIPOLE MOMENT
-------------
                                X             Y             Z
Electronic contribution:     -0.24679      -0.58505      -1.81490
Nuclear contribution   :     -0.10244       1.07937       2.16285
                        -----------------------------------------
Total Dipole Moment    :     -0.34923       0.49432       0.34795
                        -----------------------------------------
Magnitude (a.u.)       :      0.69813
Magnitude (Debye)      :      1.77450

Rotational constants in cm-1:     4.446190     0.817670     0.784200
Rotational constants in MHz : 133293.432876 24513.115332 23509.739155

                             ****ORCA TERMINATED NORMALLY****
TOTAL RUN TIME: 0 days 0 hours 0 minutes 57 seconds 10 msec
