                         Program Version 4.1.2  - RELEASE  -
|  1> #Run DFT-D3 single point of the dimer
|  2> ! wB97X-D3 def2-TZVP TIGHTSCF CHELPG PMODEL PAL8
|  3>
|  4> %base "8-139_DFT_AB"
|  5>
|  6> %scf
|  7> MaxIter 1000
|  8> end
|  9>
| 10> * xyz 0 1
| 11>   C                      8.283693             3.564489             -7.961779
| 12>   O                      9.208929             4.425566             -8.624489
| 13>   H                      9.989970             4.551249             -8.070807
| 14>   H                      8.733532             2.900308             -7.241755
| 15>   H                      7.574161             4.085482             -7.293596
| 16>   H                      7.764251             3.051280             -8.713159
| 17>   C                      9.588967             6.444306             -11.364758
| 18>   O                      8.512771             6.722435             -10.501509
| 19>   H                      8.719048             6.097591             -9.827282
| 20>   H                      10.533110            6.923681             -11.005367
| 21>   H                      9.706460             5.338926             -11.580068
| 22>   H                      9.328945             6.856368             -12.404818
| 23> *
| 24>
| 25> #Run DFT-D3 single point of the molecule with dimer basis set
| 26> $new_job
| 27> %base "8-139_DFT_A"
| 28> ! wB97X-D3 def2-TZVP TIGHTSCF CHELPG PMODEL
| 29>
| 30> %scf
| 31> MaxIter 1000
| 32> end
| 33>
| 34> * xyz 0 1
| 35>   C                      8.283693             3.564489             -7.961779
| 36>   O                      9.208929             4.425566             -8.624489
| 37>   H                      9.989970             4.551249             -8.070807
| 38>   H                      8.733532             2.900308             -7.241755
| 39>   H                      7.574161             4.085482             -7.293596
| 40>   H                      7.764251             3.051280             -8.713159
| 41>   C                    : 9.588967             6.444306             -11.364758
| 42>   O                    : 8.512771             6.722435             -10.501509
| 43>   H                    : 8.719048             6.097591             -9.827282
| 44>   H                    : 10.533110            6.923681             -11.005367
| 45>   H                    : 9.706460             5.338926             -11.580068
| 46>   H                    : 9.328945             6.856368             -12.404818
| 47> *
| 48>
| 49> #Run DFT-D3 single point of the particle with dimer basis set
| 50> $new_job
| 51> %base "8-139_DFT_B"
| 52> ! wB97X-D3 def2-TZVP TIGHTSCF CHELPG PMODEL
| 53>
| 54> %scf
| 55> MaxIter 1000
| 56> end
| 57>
| 58> * xyz 0 1
| 59>   C                    : 8.283693             3.564489             -7.961779
| 60>   O                    : 9.208929             4.425566             -8.624489
| 61>   H                    : 9.989970             4.551249             -8.070807
| 62>   H                    : 8.733532             2.900308             -7.241755
| 63>   H                    : 7.574161             4.085482             -7.293596
| 64>   H                    : 7.764251             3.051280             -8.713159
| 65>   C                      9.588967             6.444306             -11.364758
| 66>   O                      8.512771             6.722435             -10.501509
| 67>   H                      8.719048             6.097591             -9.827282
| 68>   H                      10.533110            6.923681             -11.005367
| 69>   H                      9.706460             5.338926             -11.580068
| 70>   H                      9.328945             6.856368             -12.404818
| 71> *
| 72>
| 73>                          ****END OF INPUT****
 Total Charge           Charge          ....    0
 Multiplicity           Mult            ....    1
 Number of Electrons    NEL             ....   36
Dispersion correction           -0.001698173
FINAL SINGLE POINT ENERGY      -231.471306606186
Dispersion correction           -0.000254931
FINAL SINGLE POINT ENERGY      -115.732903712796

CARTESIAN COORDINATES (ANGSTROEM)
---------------------------------
  C      8.283693    3.564489   -7.961779
  O      9.208929    4.425566   -8.624489
  H      9.989970    4.551249   -8.070807
  H      8.733532    2.900308   -7.241755
  H      7.574161    4.085482   -7.293596
  H      7.764251    3.051280   -8.713159
  C      9.588967    6.444306  -11.364758
  O      8.512771    6.722435  -10.501509
  H      8.719048    6.097591   -9.827282
  H     10.533110    6.923681  -11.005367
  H      9.706460    5.338926  -11.580068
  H      9.328945    6.856368  -12.404818

 Multiplicity           Mult            ....    1
 Number of Electrons    NEL             ....   18
 Basis Dimension        Dim             ....  172

ORBITAL ENERGIES
----------------

  NO   OCC          E(Eh)            E(eV)
   0   2.0000     -19.234305      -523.3920
   1   2.0000     -10.325487      -280.9708
   2   2.0000      -1.151312       -31.3288
   3   2.0000      -0.783494       -21.3200
   4   2.0000      -0.610231       -16.6052
   5   2.0000      -0.548568       -14.9273
   6   2.0000      -0.520977       -14.1765
   7   2.0000      -0.434512       -11.8237
   8   2.0000      -0.378414       -10.2972
   9   0.0000       0.068637         1.8677
  10   0.0000       0.127186         3.4609
  11   0.0000       0.153587         4.1793
  12   0.0000       0.164693         4.4815
  13   0.0000       0.184331         5.0159

MULLIKEN ATOMIC CHARGES
-----------------------
   0 C :   -0.001750
   1 O :   -0.002018
   2 H :   -0.000115
   3 H :   -0.000006
   4 H :    0.000095
   5 H :    0.000086
   6 C :   -0.185455
   7 O :   -0.443122
   8 H :    0.308965
   9 H :    0.105750
  10 H :    0.104047
  11 H :    0.113524
Sum of atomic charges:   -0.0000000

LOEWDIN ATOMIC CHARGES
----------------------
   0 C :   -0.001899
   1 O :   -0.011922
   2 H :   -0.000883
   3 H :   -0.000047
   4 H :   -0.000073
   5 H :   -0.000105
   6 C :   -0.412342
   7 O :   -0.054093
   8 H :    0.165514
   9 H :    0.098860
  10 H :    0.101243
  11 H :    0.115746

  Mayer bond orders larger than 0.1
B(  6-C ,  7-O ) :   0.9988 B(  6-C ,  9-H ) :   0.9710 B(  6-C , 10-H ) :   0.9723
B(  6-C , 11-H ) :   0.9742 B(  7-O ,  8-H ) :   0.9177

Dispersion correction           -0.000231749
FINAL SINGLE POINT ENERGY      -115.729922707733

DIPOLE MOMENT
-------------
                                X             Y             Z
Electronic contribution:     -1.45021       0.48893       1.17187
Nuclear contribution   :      1.95259      -0.97864      -1.08534
                        -----------------------------------------
Total Dipole Moment    :      0.50238      -0.48971       0.08653
                        -----------------------------------------
Magnitude (a.u.)       :      0.70689
Magnitude (Debye)      :      1.79677

Rotational constants in cm-1:     4.015191     0.837464     0.814041
Rotational constants in MHz : 120372.408804 25106.533957 24404.343973

                             ****ORCA TERMINATED NORMALLY****
TOTAL RUN TIME: 0 days 0 hours 0 minutes 45 seconds 927 msec
