                         Program Version 4.1.2  - RELEASE  -
|  1> #Run DFT-D3 single point of the dimer
|  2> ! wB97X-D3 def2-TZVP TIGHTSCF CHELPG PMODEL PAL8
|  3>
|  4> %base "10-110_DFT_AB"
|  5>
|  6> %scf
|  7> MaxIter 1000
|  8> end
|  9>
| 10> * xyz 0 1
| 11>   C                      5.369477             -6.342536            -0.441178
| 12>   O                      5.334754             -5.019816            0.209316
| 13>   H                      4.689948             -4.385982            -0.258636
| 14>   H                      5.435570             -7.157379            0.285672
| 15>   H                      4.490291             -6.557346            -0.960870
| 16>   H                      6.075459             -6.414477            -1.304671
| 17>   C                      8.580706             -5.871697            1.752565
| 18>   O                      8.562280             -4.673971            1.151042
| 19>   H                      7.793573             -4.541549            0.573534
| 20>   H                      9.506251             -5.941509            2.302807
| 21>   H                      7.777890             -6.099505            2.499697
| 22>   H                      8.603862             -6.758189            1.046684
| 23> *
| 24>
| 25> #Run DFT-D3 single point of the molecule with dimer basis set
| 26> $new_job
| 27> %base "10-110_DFT_A"
| 28> ! wB97X-D3 def2-TZVP TIGHTSCF CHELPG PMODEL
| 29>
| 30> %scf
| 31> MaxIter 1000
| 32> end
| 33>
| 34> * xyz 0 1
| 35>   C                      5.369477             -6.342536            -0.441178
| 36>   O                      5.334754             -5.019816            0.209316
| 37>   H                      4.689948             -4.385982            -0.258636
| 38>   H                      5.435570             -7.157379            0.285672
| 39>   H                      4.490291             -6.557346            -0.960870
| 40>   H                      6.075459             -6.414477            -1.304671
| 41>   C                    : 8.580706             -5.871697            1.752565
| 42>   O                    : 8.562280             -4.673971            1.151042
| 43>   H                    : 7.793573             -4.541549            0.573534
| 44>   H                    : 9.506251             -5.941509            2.302807
| 45>   H                    : 7.777890             -6.099505            2.499697
| 46>   H                    : 8.603862             -6.758189            1.046684
| 47> *
| 48>
| 49> #Run DFT-D3 single point of the particle with dimer basis set
| 50> $new_job
| 51> %base "10-110_DFT_B"
| 52> ! wB97X-D3 def2-TZVP TIGHTSCF CHELPG PMODEL
| 53>
| 54> %scf
| 55> MaxIter 1000
| 56> end
| 57>
| 58> * xyz 0 1
| 59>   C                    : 5.369477             -6.342536            -0.441178
| 60>   O                    : 5.334754             -5.019816            0.209316
| 61>   H                    : 4.689948             -4.385982            -0.258636
| 62>   H                    : 5.435570             -7.157379            0.285672
| 63>   H                    : 4.490291             -6.557346            -0.960870
| 64>   H                    : 6.075459             -6.414477            -1.304671
| 65>   C                      8.580706             -5.871697            1.752565
| 66>   O                      8.562280             -4.673971            1.151042
| 67>   H                      7.793573             -4.541549            0.573534
| 68>   H                      9.506251             -5.941509            2.302807
| 69>   H                      7.777890             -6.099505            2.499697
| 70>   H                      8.603862             -6.758189            1.046684
| 71> *
| 72>
| 73>                          ****END OF INPUT****
 Total Charge           Charge          ....    0
 Multiplicity           Mult            ....    1
 Number of Electrons    NEL             ....   36
Dispersion correction           -0.002012874
FINAL SINGLE POINT ENERGY      -231.461286814801
Dispersion correction           -0.000291350
FINAL SINGLE POINT ENERGY      -115.722852398664

CARTESIAN COORDINATES (ANGSTROEM)
---------------------------------
  C      5.369477   -6.342536   -0.441178
  O      5.334754   -5.019816    0.209316
  H      4.689948   -4.385982   -0.258636
  H      5.435570   -7.157379    0.285672
  H      4.490291   -6.557346   -0.960870
  H      6.075459   -6.414477   -1.304671
  C      8.580706   -5.871697    1.752565
  O      8.562280   -4.673971    1.151042
  H      7.793573   -4.541549    0.573534
  H      9.506251   -5.941509    2.302807
  H      7.777890   -6.099505    2.499697
  H      8.603862   -6.758189    1.046684

 Multiplicity           Mult            ....    1
 Number of Electrons    NEL             ....   18
 Basis Dimension        Dim             ....  172

ORBITAL ENERGIES
----------------

  NO   OCC          E(Eh)            E(eV)
   0   2.0000     -19.235118      -523.4142
   1   2.0000     -10.311617      -280.5934
   2   2.0000      -1.158644       -31.5283
   3   2.0000      -0.794280       -21.6135
   4   2.0000      -0.626287       -17.0421
   5   2.0000      -0.541666       -14.7395
   6   2.0000      -0.538632       -14.6569
   7   2.0000      -0.422389       -11.4938
   8   2.0000      -0.370774       -10.0893
   9   0.0000       0.067266         1.8304
  10   0.0000       0.136227         3.7069
  11   0.0000       0.139176         3.7872
  12   0.0000       0.165940         4.5155
  13   0.0000       0.188974         5.1423

MULLIKEN ATOMIC CHARGES
-----------------------
   0 C :   -0.000049
   1 O :   -0.000841
   2 H :   -0.000099
   3 H :   -0.000886
   4 H :    0.000030
   5 H :   -0.000159
   6 C :   -0.153589
   7 O :   -0.460232
   8 H :    0.320338
   9 H :    0.121539
  10 H :    0.089119
  11 H :    0.084829
Sum of atomic charges:   -0.0000000

LOEWDIN ATOMIC CHARGES
----------------------
   0 C :   -0.003184
   1 O :   -0.004121
   2 H :   -0.000262
   3 H :   -0.000483
   4 H :   -0.000040
   5 H :   -0.000266
   6 C :   -0.454458
   7 O :   -0.014465
   8 H :    0.180579
   9 H :    0.107315
  10 H :    0.093961
  11 H :    0.095424

  Mayer bond orders larger than 0.1
B(  6-C ,  7-O ) :   1.0156 B(  6-C ,  9-H ) :   0.9740 B(  6-C , 10-H ) :   0.9691
B(  6-C , 11-H ) :   0.9768 B(  7-O ,  8-H ) :   0.8943

Dispersion correction           -0.000253304
FINAL SINGLE POINT ENERGY      -115.732318861957

DIPOLE MOMENT
-------------
                                X             Y             Z
Electronic contribution:      0.02793       1.80811      -0.80011
Nuclear contribution   :     -0.49121      -2.11570       0.64109
                        -----------------------------------------
Total Dipole Moment    :     -0.46328      -0.30759      -0.15902
                        -----------------------------------------
Magnitude (a.u.)       :      0.57839
Magnitude (Debye)      :      1.47014

Rotational constants in cm-1:     4.382399     0.880530     0.853913
Rotational constants in MHz : 131381.002534 26397.617285 25599.663564

                             ****ORCA TERMINATED NORMALLY****
TOTAL RUN TIME: 0 days 0 hours 1 minutes 5 seconds 900 msec
