                         Program Version 4.1.2  - RELEASE  -
|  1> #Run DFT-D3 single point of the dimer
|  2> ! wB97X-D3 def2-TZVP TIGHTSCF CHELPG PMODEL PAL8
|  3>
|  4> %base "12-65_DFT_AB"
|  5>
|  6> %scf
|  7> MaxIter 1000
|  8> end
|  9>
| 10> * xyz 0 1
| 11>   C                      6.939438             8.381128             7.470866
| 12>   O                      6.725867             7.125149             6.925908
| 13>   H                      6.458362             6.563001             7.707976
| 14>   H                      6.795791             9.090185             6.659182
| 15>   H                      6.342889             8.682943             8.259780
| 16>   H                      7.982865             8.432314             7.760599
| 17>   C                      8.756345             5.346527             9.124602
| 18>   O                      7.432067             5.202244             8.847964
| 19>   H                      7.096865             4.293952             8.916372
| 20>   H                      9.291302             4.993951             8.215409
| 21>   H                      9.107427             6.443233             9.263130
| 22>   H                      8.972218             4.789132             10.079502
| 23> *
| 24>
| 25> #Run DFT-D3 single point of the molecule with dimer basis set
| 26> $new_job
| 27> %base "12-65_DFT_A"
| 28> ! wB97X-D3 def2-TZVP TIGHTSCF CHELPG PMODEL
| 29>
| 30> %scf
| 31> MaxIter 1000
| 32> end
| 33>
| 34> * xyz 0 1
| 35>   C                      6.939438             8.381128             7.470866
| 36>   O                      6.725867             7.125149             6.925908
| 37>   H                      6.458362             6.563001             7.707976
| 38>   H                      6.795791             9.090185             6.659182
| 39>   H                      6.342889             8.682943             8.259780
| 40>   H                      7.982865             8.432314             7.760599
| 41>   C                    : 8.756345             5.346527             9.124602
| 42>   O                    : 7.432067             5.202244             8.847964
| 43>   H                    : 7.096865             4.293952             8.916372
| 44>   H                    : 9.291302             4.993951             8.215409
| 45>   H                    : 9.107427             6.443233             9.263130
| 46>   H                    : 8.972218             4.789132             10.079502
| 47> *
| 48>
| 49> #Run DFT-D3 single point of the particle with dimer basis set
| 50> $new_job
| 51> %base "12-65_DFT_B"
| 52> ! wB97X-D3 def2-TZVP TIGHTSCF CHELPG PMODEL
| 53>
| 54> %scf
| 55> MaxIter 1000
| 56> end
| 57>
| 58> * xyz 0 1
| 59>   C                    : 6.939438             8.381128             7.470866
| 60>   O                    : 6.725867             7.125149             6.925908
| 61>   H                    : 6.458362             6.563001             7.707976
| 62>   H                    : 6.795791             9.090185             6.659182
| 63>   H                    : 6.342889             8.682943             8.259780
| 64>   H                    : 7.982865             8.432314             7.760599
| 65>   C                      8.756345             5.346527             9.124602
| 66>   O                      7.432067             5.202244             8.847964
| 67>   H                      7.096865             4.293952             8.916372
| 68>   H                      9.291302             4.993951             8.215409
| 69>   H                      9.107427             6.443233             9.263130
| 70>   H                      8.972218             4.789132             10.079502
| 71> *
| 72>
| 73>                          ****END OF INPUT****
 Total Charge           Charge          ....    0
 Multiplicity           Mult            ....    1
 Number of Electrons    NEL             ....   36
Dispersion correction           -0.002025135
FINAL SINGLE POINT ENERGY      -231.462374293000
Dispersion correction           -0.000215229
FINAL SINGLE POINT ENERGY      -115.730220492856

CARTESIAN COORDINATES (ANGSTROEM)
---------------------------------
  C      6.939438    8.381128    7.470866
  O      6.725867    7.125149    6.925908
  H      6.458362    6.563001    7.707976
  H      6.795791    9.090185    6.659182
  H      6.342889    8.682943    8.259780
  H      7.982865    8.432314    7.760599
  C      8.756345    5.346527    9.124602
  O      7.432067    5.202244    8.847964
  H      7.096865    4.293952    8.916372
  H      9.291302    4.993951    8.215409
  H      9.107427    6.443233    9.263130
  H      8.972218    4.789132   10.079502

 Multiplicity           Mult            ....    1
 Number of Electrons    NEL             ....   18
 Basis Dimension        Dim             ....  172

ORBITAL ENERGIES
----------------

  NO   OCC          E(Eh)            E(eV)
   0   2.0000     -19.226322      -523.1748
   1   2.0000     -10.321321      -280.8574
   2   2.0000      -1.147962       -31.2376
   3   2.0000      -0.786577       -21.4038
   4   2.0000      -0.612454       -16.6657
   5   2.0000      -0.553398       -15.0587
   6   2.0000      -0.532218       -14.4824
   7   2.0000      -0.411220       -11.1899
   8   2.0000      -0.366684        -9.9780
   9   0.0000       0.097584         2.6554
  10   0.0000       0.121562         3.3079
  11   0.0000       0.150675         4.1001
  12   0.0000       0.191830         5.2200
  13   0.0000       0.194463         5.2916

MULLIKEN ATOMIC CHARGES
-----------------------
   0 C :    0.001055
   1 O :    0.000353
   2 H :   -0.009031
   3 H :   -0.000047
   4 H :   -0.000560
   5 H :   -0.000447
   6 C :   -0.145221
   7 O :   -0.478206
   8 H :    0.323868
   9 H :    0.098255
  10 H :    0.113614
  11 H :    0.096367
Sum of atomic charges:   -0.0000000

LOEWDIN ATOMIC CHARGES
----------------------
   0 C :   -0.003194
   1 O :   -0.007823
   2 H :   -0.036350
   3 H :   -0.000035
   4 H :   -0.000145
   5 H :   -0.001478
   6 C :   -0.432747
   7 O :   -0.014444
   8 H :    0.179275
   9 H :    0.097244
  10 H :    0.118961
  11 H :    0.100735

  Mayer bond orders larger than 0.1
B(  6-C ,  7-O ) :   0.9809 B(  6-C ,  9-H ) :   0.9832 B(  6-C , 10-H ) :   0.9660
B(  6-C , 11-H ) :   0.9772 B(  7-O ,  8-H ) :   0.8834

Dispersion correction           -0.000233139
FINAL SINGLE POINT ENERGY      -115.726199118679

DIPOLE MOMENT
-------------
                                X             Y             Z
Electronic contribution:     -1.75225      -0.09860      -0.33990
Nuclear contribution   :      2.01458      -0.44041       0.49664
                        -----------------------------------------
Total Dipole Moment    :      0.26234      -0.53901       0.15674
                        -----------------------------------------
Magnitude (a.u.)       :      0.61961
Magnitude (Debye)      :      1.57493

Rotational constants in cm-1:     4.109091     0.869155     0.843877
Rotational constants in MHz : 123187.458673 26056.623804 25298.795681

                             ****ORCA TERMINATED NORMALLY****
TOTAL RUN TIME: 0 days 0 hours 1 minutes 11 seconds 705 msec
