                         Program Version 4.1.2  - RELEASE  -
|  1> #Run DFT-D3 single point of the dimer
|  2> ! wB97X-D3 def2-TZVP TIGHTSCF CHELPG PMODEL PAL8
|  3>
|  4> %base "20-132_DFT_AB"
|  5>
|  6> %scf
|  7> MaxIter 1000
|  8> end
|  9>
| 10> * xyz 0 1
| 11>   C                      2.644582             -4.496149            4.921701
| 12>   O                      1.571882             -5.465876            5.016327
| 13>   H                      0.734321             -5.043278            5.354497
| 14>   H                      3.257729             -4.554362            5.857195
| 15>   H                      3.420873             -4.747145            4.172869
| 16>   H                      2.283139             -3.498105            4.678804
| 17>   C                      -1.450184            -1.622072            3.478730
| 18>   O                      -0.620804            -2.459296            2.638625
| 19>   H                      -1.236569            -2.930839            2.061761
| 20>   H                      -0.843443            -0.982371            4.031398
| 21>   H                      -2.157079            -1.009784            2.875178
| 22>   H                      -2.096073            -2.239981            4.112396
| 23> *
| 24>
| 25> #Run DFT-D3 single point of the molecule with dimer basis set
| 26> $new_job
| 27> %base "20-132_DFT_A"
| 28> ! wB97X-D3 def2-TZVP TIGHTSCF CHELPG PMODEL
| 29>
| 30> %scf
| 31> MaxIter 1000
| 32> end
| 33>
| 34> * xyz 0 1
| 35>   C                      2.644582             -4.496149            4.921701
| 36>   O                      1.571882             -5.465876            5.016327
| 37>   H                      0.734321             -5.043278            5.354497
| 38>   H                      3.257729             -4.554362            5.857195
| 39>   H                      3.420873             -4.747145            4.172869
| 40>   H                      2.283139             -3.498105            4.678804
| 41>   C                    : -1.450184            -1.622072            3.478730
| 42>   O                    : -0.620804            -2.459296            2.638625
| 43>   H                    : -1.236569            -2.930839            2.061761
| 44>   H                    : -0.843443            -0.982371            4.031398
| 45>   H                    : -2.157079            -1.009784            2.875178
| 46>   H                    : -2.096073            -2.239981            4.112396
| 47> *
| 48>
| 49> #Run DFT-D3 single point of the particle with dimer basis set
| 50> $new_job
| 51> %base "20-132_DFT_B"
| 52> ! wB97X-D3 def2-TZVP TIGHTSCF CHELPG PMODEL
| 53>
| 54> %scf
| 55> MaxIter 1000
| 56> end
| 57>
| 58> * xyz 0 1
| 59>   C                    : 2.644582             -4.496149            4.921701
| 60>   O                    : 1.571882             -5.465876            5.016327
| 61>   H                    : 0.734321             -5.043278            5.354497
| 62>   H                    : 3.257729             -4.554362            5.857195
| 63>   H                    : 3.420873             -4.747145            4.172869
| 64>   H                    : 2.283139             -3.498105            4.678804
| 65>   C                      -1.450184            -1.622072            3.478730
| 66>   O                      -0.620804            -2.459296            2.638625
| 67>   H                      -1.236569            -2.930839            2.061761
| 68>   H                      -0.843443            -0.982371            4.031398
| 69>   H                      -2.157079            -1.009784            2.875178
| 70>   H                      -2.096073            -2.239981            4.112396
| 71> *
| 72>
| 73>                          ****END OF INPUT****
 Total Charge           Charge          ....    0
 Multiplicity           Mult            ....    1
 Number of Electrons    NEL             ....   36
Dispersion correction           -0.000975926
FINAL SINGLE POINT ENERGY      -231.465154374490
Dispersion correction           -0.000278783
FINAL SINGLE POINT ENERGY      -115.729779195433

CARTESIAN COORDINATES (ANGSTROEM)
---------------------------------
  C      2.644582   -4.496149    4.921701
  O      1.571882   -5.465876    5.016327
  H      0.734321   -5.043278    5.354497
  H      3.257729   -4.554362    5.857195
  H      3.420873   -4.747145    4.172869
  H      2.283139   -3.498105    4.678804
  C     -1.450184   -1.622072    3.478730
  O     -0.620804   -2.459296    2.638625
  H     -1.236569   -2.930839    2.061761
  H     -0.843443   -0.982371    4.031398
  H     -2.157079   -1.009784    2.875178
  H     -2.096073   -2.239981    4.112396

 Multiplicity           Mult            ....    1
 Number of Electrons    NEL             ....   18
 Basis Dimension        Dim             ....  172

ORBITAL ENERGIES
----------------

  NO   OCC          E(Eh)            E(eV)
   0   2.0000     -19.231318      -523.3108
   1   2.0000     -10.313158      -280.6353
   2   2.0000      -1.126721       -30.6596
   3   2.0000      -0.798747       -21.7350
   4   2.0000      -0.605610       -16.4795
   5   2.0000      -0.537085       -14.6148
   6   2.0000      -0.526198       -14.3186
   7   2.0000      -0.444170       -12.0865
   8   2.0000      -0.373015       -10.1503
   9   0.0000       0.093869         2.5543
  10   0.0000       0.117036         3.1847
  11   0.0000       0.154014         4.1909
  12   0.0000       0.170451         4.6382
  13   0.0000       0.191796         5.2190

MULLIKEN ATOMIC CHARGES
-----------------------
   0 C :    0.000253
   1 O :   -0.000031
   2 H :   -0.000620
   3 H :   -0.000071
   4 H :    0.000045
   5 H :   -0.001570
   6 C :   -0.163959
   7 O :   -0.473372
   8 H :    0.311973
   9 H :    0.126018
  10 H :    0.099003
  11 H :    0.102330
Sum of atomic charges:    0.0000000

LOEWDIN ATOMIC CHARGES
----------------------
   0 C :   -0.000643
   1 O :   -0.000066
   2 H :   -0.000418
   3 H :   -0.000014
   4 H :   -0.000003
   5 H :   -0.000714
   6 C :   -0.355258
   7 O :   -0.102094
   8 H :    0.170302
   9 H :    0.094934
  10 H :    0.098489
  11 H :    0.095485

  Mayer bond orders larger than 0.1
B(  6-C ,  7-O ) :   0.9929 B(  6-C ,  9-H ) :   0.9759 B(  6-C , 10-H ) :   0.9766
B(  6-C , 11-H ) :   0.9768 B(  7-O ,  8-H ) :   0.9021

Dispersion correction           -0.000237979
FINAL SINGLE POINT ENERGY      -115.734317574964

DIPOLE MOMENT
-------------
                                X             Y             Z
Electronic contribution:      1.26097      -0.94676      -0.90010
Nuclear contribution   :     -1.98434       1.00956       0.88420
                        -----------------------------------------
Total Dipole Moment    :     -0.72337       0.06280      -0.01590
                        -----------------------------------------
Magnitude (a.u.)       :      0.72627
Magnitude (Debye)      :      1.84603

Rotational constants in cm-1:     4.291517     0.807967     0.776545
Rotational constants in MHz : 128656.440534 24222.233756 23280.243413

                             ****ORCA TERMINATED NORMALLY****
TOTAL RUN TIME: 0 days 0 hours 0 minutes 54 seconds 971 msec
