                         Program Version 4.1.2  - RELEASE  -
|  1> #Run DFT-D3 single point of the dimer
|  2> ! wB97X-D3 def2-TZVP TIGHTSCF CHELPG PMODEL PAL8
|  3>
|  4> %base "15-201_DFT_AB"
|  5>
|  6> %scf
|  7> MaxIter 1000
|  8> end
|  9>
| 10> * xyz 0 1
| 11>   C                      10.142335            1.302247             1.921414
| 12>   O                      9.078113             1.027545             1.000667
| 13>   H                      9.264941             1.643469             0.317087
| 14>   H                      10.236299            0.491485             2.608424
| 15>   H                      11.089045            1.398064             1.413199
| 16>   H                      9.884949             2.299644             2.479286
| 17>   C                      6.117011             -0.537824            2.319645
| 18>   O                      6.705269             -0.410618            1.052811
| 19>   H                      7.634214             -0.345952            1.299747
| 20>   H                      6.282751             0.344865             2.953731
| 21>   H                      5.042268             -0.805252            2.201874
| 22>   H                      6.552636             -1.415495            2.782392
| 23> *
| 24>
| 25> #Run DFT-D3 single point of the molecule with dimer basis set
| 26> $new_job
| 27> %base "15-201_DFT_A"
| 28> ! wB97X-D3 def2-TZVP TIGHTSCF CHELPG PMODEL
| 29>
| 30> %scf
| 31> MaxIter 1000
| 32> end
| 33>
| 34> * xyz 0 1
| 35>   C                      10.142335            1.302247             1.921414
| 36>   O                      9.078113             1.027545             1.000667
| 37>   H                      9.264941             1.643469             0.317087
| 38>   H                      10.236299            0.491485             2.608424
| 39>   H                      11.089045            1.398064             1.413199
| 40>   H                      9.884949             2.299644             2.479286
| 41>   C                    : 6.117011             -0.537824            2.319645
| 42>   O                    : 6.705269             -0.410618            1.052811
| 43>   H                    : 7.634214             -0.345952            1.299747
| 44>   H                    : 6.282751             0.344865             2.953731
| 45>   H                    : 5.042268             -0.805252            2.201874
| 46>   H                    : 6.552636             -1.415495            2.782392
| 47> *
| 48>
| 49> #Run DFT-D3 single point of the particle with dimer basis set
| 50> $new_job
| 51> %base "15-201_DFT_B"
| 52> ! wB97X-D3 def2-TZVP TIGHTSCF CHELPG PMODEL
| 53>
| 54> %scf
| 55> MaxIter 1000
| 56> end
| 57>
| 58> * xyz 0 1
| 59>   C                    : 10.142335            1.302247             1.921414
| 60>   O                    : 9.078113             1.027545             1.000667
| 61>   H                    : 9.264941             1.643469             0.317087
| 62>   H                    : 10.236299            0.491485             2.608424
| 63>   H                    : 11.089045            1.398064             1.413199
| 64>   H                    : 9.884949             2.299644             2.479286
| 65>   C                      6.117011             -0.537824            2.319645
| 66>   O                      6.705269             -0.410618            1.052811
| 67>   H                      7.634214             -0.345952            1.299747
| 68>   H                      6.282751             0.344865             2.953731
| 69>   H                      5.042268             -0.805252            2.201874
| 70>   H                      6.552636             -1.415495            2.782392
| 71> *
| 72>
| 73>                          ****END OF INPUT****
 Total Charge           Charge          ....    0
 Multiplicity           Mult            ....    1
 Number of Electrons    NEL             ....   36
Dispersion correction           -0.001605413
FINAL SINGLE POINT ENERGY      -231.468899773547
Dispersion correction           -0.000228148
FINAL SINGLE POINT ENERGY      -115.731567767108

CARTESIAN COORDINATES (ANGSTROEM)
---------------------------------
  C     10.142335    1.302247    1.921414
  O      9.078113    1.027545    1.000667
  H      9.264941    1.643469    0.317087
  H     10.236299    0.491485    2.608424
  H     11.089045    1.398064    1.413199
  H      9.884949    2.299644    2.479286
  C      6.117011   -0.537824    2.319645
  O      6.705269   -0.410618    1.052811
  H      7.634214   -0.345952    1.299747
  H      6.282751    0.344865    2.953731
  H      5.042268   -0.805252    2.201874
  H      6.552636   -1.415495    2.782392

 Multiplicity           Mult            ....    1
 Number of Electrons    NEL             ....   18
 Basis Dimension        Dim             ....  172

ORBITAL ENERGIES
----------------

  NO   OCC          E(Eh)            E(eV)
   0   2.0000     -19.231903      -523.3267
   1   2.0000     -10.313615      -280.6477
   2   2.0000      -1.145149       -31.1611
   3   2.0000      -0.789061       -21.4714
   4   2.0000      -0.611390       -16.6368
   5   2.0000      -0.550370       -14.9763
   6   2.0000      -0.524473       -14.2716
   7   2.0000      -0.438486       -11.9318
   8   2.0000      -0.373583       -10.1657
   9   0.0000       0.070124         1.9082
  10   0.0000       0.129456         3.5227
  11   0.0000       0.152339         4.1454
  12   0.0000       0.168797         4.5932
  13   0.0000       0.184622         5.0238

MULLIKEN ATOMIC CHARGES
-----------------------
   0 C :   -0.002287
   1 O :   -0.005440
   2 H :   -0.001003
   3 H :    0.000058
   4 H :    0.000003
   5 H :    0.000073
   6 C :   -0.181218
   7 O :   -0.450366
   8 H :    0.313827
   9 H :    0.105145
  10 H :    0.117498
  11 H :    0.103709
Sum of atomic charges:   -0.0000000

LOEWDIN ATOMIC CHARGES
----------------------
   0 C :   -0.002648
   1 O :   -0.020706
   2 H :   -0.001464
   3 H :   -0.000289
   4 H :   -0.000057
   5 H :   -0.000045
   6 C :   -0.401011
   7 O :   -0.057452
   8 H :    0.181898
   9 H :    0.095511
  10 H :    0.113012
  11 H :    0.093251

  Mayer bond orders larger than 0.1
B(  6-C ,  7-O ) :   1.0023 B(  6-C ,  9-H ) :   0.9664 B(  6-C , 10-H ) :   0.9729
B(  6-C , 11-H ) :   0.9891 B(  7-O ,  8-H ) :   0.9037

Dispersion correction           -0.000206830
FINAL SINGLE POINT ENERGY      -115.733425230299

DIPOLE MOMENT
-------------
                                X             Y             Z
Electronic contribution:      0.57386       0.25774      -1.70471
Nuclear contribution   :     -0.24233      -0.29523       2.33091
                        -----------------------------------------
Total Dipole Moment    :      0.33153      -0.03749       0.62620
                        -----------------------------------------
Magnitude (a.u.)       :      0.70954
Magnitude (Debye)      :      1.80351

Rotational constants in cm-1:     4.146568     0.856998     0.822183
Rotational constants in MHz : 124310.976395 25692.144594 24648.428727

                             ****ORCA TERMINATED NORMALLY****
TOTAL RUN TIME: 0 days 0 hours 1 minutes 4 seconds 700 msec
