                         Program Version 4.1.2  - RELEASE  -
|  1> #Run DFT-D3 single point of the dimer
|  2> ! wB97X-D3 def2-TZVP TIGHTSCF CHELPG PMODEL PAL8
|  3>
|  4> %base "21-145_DFT_AB"
|  5>
|  6> %scf
|  7> MaxIter 1000
|  8> end
|  9>
| 10> * xyz 0 1
| 11>   C                      9.733848             5.729095             -8.103224
| 12>   O                      10.155146            5.046425             -9.199890
| 13>   H                      10.460093            4.157411             -8.977608
| 14>   H                      10.485140            6.467042             -7.724578
| 15>   H                      8.799637             6.380273             -8.238862
| 16>   H                      9.482330             5.100676             -7.208801
| 17>   C                      7.100996             4.184445             -10.717289
| 18>   O                      8.128690             5.123075             -11.097442
| 19>   H                      8.982406             4.783238             -10.782652
| 20>   H                      6.067444             4.537163             -10.843540
| 21>   H                      7.319320             3.210798             -11.247380
| 22>   H                      7.083041             3.865088             -9.682737
| 23> *
| 24>
| 25> #Run DFT-D3 single point of the molecule with dimer basis set
| 26> $new_job
| 27> %base "21-145_DFT_A"
| 28> ! wB97X-D3 def2-TZVP TIGHTSCF CHELPG PMODEL
| 29>
| 30> %scf
| 31> MaxIter 1000
| 32> end
| 33>
| 34> * xyz 0 1
| 35>   C                      9.733848             5.729095             -8.103224
| 36>   O                      10.155146            5.046425             -9.199890
| 37>   H                      10.460093            4.157411             -8.977608
| 38>   H                      10.485140            6.467042             -7.724578
| 39>   H                      8.799637             6.380273             -8.238862
| 40>   H                      9.482330             5.100676             -7.208801
| 41>   C                    : 7.100996             4.184445             -10.717289
| 42>   O                    : 8.128690             5.123075             -11.097442
| 43>   H                    : 8.982406             4.783238             -10.782652
| 44>   H                    : 6.067444             4.537163             -10.843540
| 45>   H                    : 7.319320             3.210798             -11.247380
| 46>   H                    : 7.083041             3.865088             -9.682737
| 47> *
| 48>
| 49> #Run DFT-D3 single point of the particle with dimer basis set
| 50> $new_job
| 51> %base "21-145_DFT_B"
| 52> ! wB97X-D3 def2-TZVP TIGHTSCF CHELPG PMODEL
| 53>
| 54> %scf
| 55> MaxIter 1000
| 56> end
| 57>
| 58> * xyz 0 1
| 59>   C                    : 9.733848             5.729095             -8.103224
| 60>   O                    : 10.155146            5.046425             -9.199890
| 61>   H                    : 10.460093            4.157411             -8.977608
| 62>   H                    : 10.485140            6.467042             -7.724578
| 63>   H                    : 8.799637             6.380273             -8.238862
| 64>   H                    : 9.482330             5.100676             -7.208801
| 65>   C                      7.100996             4.184445             -10.717289
| 66>   O                      8.128690             5.123075             -11.097442
| 67>   H                      8.982406             4.783238             -10.782652
| 68>   H                      6.067444             4.537163             -10.843540
| 69>   H                      7.319320             3.210798             -11.247380
| 70>   H                      7.083041             3.865088             -9.682737
| 71> *
| 72>
| 73>                          ****END OF INPUT****
 Total Charge           Charge          ....    0
 Multiplicity           Mult            ....    1
 Number of Electrons    NEL             ....   36
Dispersion correction           -0.002055376
FINAL SINGLE POINT ENERGY      -231.464830621221
Dispersion correction           -0.000264678
FINAL SINGLE POINT ENERGY      -115.730462502309

CARTESIAN COORDINATES (ANGSTROEM)
---------------------------------
  C      9.733848    5.729095   -8.103224
  O     10.155146    5.046425   -9.199890
  H     10.460093    4.157411   -8.977608
  H     10.485140    6.467042   -7.724578
  H      8.799637    6.380273   -8.238862
  H      9.482330    5.100676   -7.208801
  C      7.100996    4.184445  -10.717289
  O      8.128690    5.123075  -11.097442
  H      8.982406    4.783238  -10.782652
  H      6.067444    4.537163  -10.843540
  H      7.319320    3.210798  -11.247380
  H      7.083041    3.865088   -9.682737

 Multiplicity           Mult            ....    1
 Number of Electrons    NEL             ....   18
 Basis Dimension        Dim             ....  172

ORBITAL ENERGIES
----------------

  NO   OCC          E(Eh)            E(eV)
   0   2.0000     -19.236013      -523.4385
   1   2.0000     -10.319964      -280.8205
   2   2.0000      -1.127658       -30.6851
   3   2.0000      -0.796741       -21.6804
   4   2.0000      -0.609047       -16.5730
   5   2.0000      -0.541331       -14.7304
   6   2.0000      -0.515679       -14.0323
   7   2.0000      -0.438172       -11.9233
   8   2.0000      -0.373204       -10.1554
   9   0.0000       0.073468         1.9992
  10   0.0000       0.132672         3.6102
  11   0.0000       0.141897         3.8612
  12   0.0000       0.170848         4.6490
  13   0.0000       0.188264         5.1229

MULLIKEN ATOMIC CHARGES
-----------------------
   0 C :   -0.002987
   1 O :   -0.005658
   2 H :   -0.000501
   3 H :   -0.000027
   4 H :   -0.002646
   5 H :    0.000015
   6 C :   -0.186610
   7 O :   -0.467431
   8 H :    0.319700
   9 H :    0.129193
  10 H :    0.107726
  11 H :    0.109227
Sum of atomic charges:    0.0000000

LOEWDIN ATOMIC CHARGES
----------------------
   0 C :   -0.007648
   1 O :   -0.020335
   2 H :   -0.001958
   3 H :   -0.000105
   4 H :   -0.002369
   5 H :   -0.000115
   6 C :   -0.375238
   7 O :   -0.082451
   8 H :    0.183516
   9 H :    0.111002
  10 H :    0.103726
  11 H :    0.091976

  Mayer bond orders larger than 0.1
B(  6-C ,  7-O ) :   0.9959 B(  6-C ,  9-H ) :   0.9706 B(  6-C , 10-H ) :   0.9859
B(  6-C , 11-H ) :   0.9647 B(  7-O ,  8-H ) :   0.8947

Dispersion correction           -0.000265872
FINAL SINGLE POINT ENERGY      -115.730090383999

DIPOLE MOMENT
-------------
                                X             Y             Z
Electronic contribution:      1.15896       1.43797      -0.58795
Nuclear contribution   :     -1.05887      -2.03174       0.96593
                        -----------------------------------------
Total Dipole Moment    :      0.10008      -0.59377       0.37798
                        -----------------------------------------
Magnitude (a.u.)       :      0.71095
Magnitude (Debye)      :      1.80710

Rotational constants in cm-1:     4.342306     0.794979     0.761484
Rotational constants in MHz : 130179.063032 23832.876049 22828.724305

                             ****ORCA TERMINATED NORMALLY****
TOTAL RUN TIME: 0 days 0 hours 1 minutes 5 seconds 939 msec
