                         Program Version 4.1.2  - RELEASE  -
|  1> #Run DFT-D3 single point of the dimer
|  2> ! wB97X-D3 def2-TZVP TIGHTSCF CHELPG PMODEL PAL8
|  3>
|  4> %base "17-183_DFT_AB"
|  5>
|  6> %scf
|  7> MaxIter 1000
|  8> end
|  9>
| 10> * xyz 0 1
| 11>   C                      5.359301             -8.372943            -9.649824
| 12>   O                      6.654829             -8.198654            -9.020387
| 13>   H                      6.531283             -8.582992            -8.153111
| 14>   H                      4.948744             -9.385095            -9.563094
| 15>   H                      4.603484             -7.606381            -9.326096
| 16>   H                      5.413240             -8.249904            -10.710803
| 17>   C                      9.154491             -5.845564            -10.477063
| 18>   O                      7.756078             -6.012211            -10.442176
| 19>   H                      7.597626             -6.885404            -9.950277
| 20>   H                      9.469208             -5.933636            -9.461083
| 21>   H                      9.699800             -6.617383            -11.095434
| 22>   H                      9.348946             -4.905729            -10.969171
| 23> *
| 24>
| 25> #Run DFT-D3 single point of the molecule with dimer basis set
| 26> $new_job
| 27> %base "17-183_DFT_A"
| 28> ! wB97X-D3 def2-TZVP TIGHTSCF CHELPG PMODEL
| 29>
| 30> %scf
| 31> MaxIter 1000
| 32> end
| 33>
| 34> * xyz 0 1
| 35>   C                      5.359301             -8.372943            -9.649824
| 36>   O                      6.654829             -8.198654            -9.020387
| 37>   H                      6.531283             -8.582992            -8.153111
| 38>   H                      4.948744             -9.385095            -9.563094
| 39>   H                      4.603484             -7.606381            -9.326096
| 40>   H                      5.413240             -8.249904            -10.710803
| 41>   C                    : 9.154491             -5.845564            -10.477063
| 42>   O                    : 7.756078             -6.012211            -10.442176
| 43>   H                    : 7.597626             -6.885404            -9.950277
| 44>   H                    : 9.469208             -5.933636            -9.461083
| 45>   H                    : 9.699800             -6.617383            -11.095434
| 46>   H                    : 9.348946             -4.905729            -10.969171
| 47> *
| 48>
| 49> #Run DFT-D3 single point of the particle with dimer basis set
| 50> $new_job
| 51> %base "17-183_DFT_B"
| 52> ! wB97X-D3 def2-TZVP TIGHTSCF CHELPG PMODEL
| 53>
| 54> %scf
| 55> MaxIter 1000
| 56> end
| 57>
| 58> * xyz 0 1
| 59>   C                    : 5.359301             -8.372943            -9.649824
| 60>   O                    : 6.654829             -8.198654            -9.020387
| 61>   H                    : 6.531283             -8.582992            -8.153111
| 62>   H                    : 4.948744             -9.385095            -9.563094
| 63>   H                    : 4.603484             -7.606381            -9.326096
| 64>   H                    : 5.413240             -8.249904            -10.710803
| 65>   C                      9.154491             -5.845564            -10.477063
| 66>   O                      7.756078             -6.012211            -10.442176
| 67>   H                      7.597626             -6.885404            -9.950277
| 68>   H                      9.469208             -5.933636            -9.461083
| 69>   H                      9.699800             -6.617383            -11.095434
| 70>   H                      9.348946             -4.905729            -10.969171
| 71> *
| 72>
| 73>                          ****END OF INPUT****
 Total Charge           Charge          ....    0
 Multiplicity           Mult            ....    1
 Number of Electrons    NEL             ....   36
Dispersion correction           -0.001647475
FINAL SINGLE POINT ENERGY      -231.472100936919
Dispersion correction           -0.000266190
FINAL SINGLE POINT ENERGY      -115.733210055233

CARTESIAN COORDINATES (ANGSTROEM)
---------------------------------
  C      5.359301   -8.372943   -9.649824
  O      6.654829   -8.198654   -9.020387
  H      6.531283   -8.582992   -8.153111
  H      4.948744   -9.385095   -9.563094
  H      4.603484   -7.606381   -9.326096
  H      5.413240   -8.249904  -10.710803
  C      9.154491   -5.845564  -10.477063
  O      7.756078   -6.012211  -10.442176
  H      7.597626   -6.885404   -9.950277
  H      9.469208   -5.933636   -9.461083
  H      9.699800   -6.617383  -11.095434
  H      9.348946   -4.905729  -10.969171

 Multiplicity           Mult            ....    1
 Number of Electrons    NEL             ....   18
 Basis Dimension        Dim             ....  172

ORBITAL ENERGIES
----------------

  NO   OCC          E(Eh)            E(eV)
   0   2.0000     -19.233458      -523.3690
   1   2.0000     -10.311187      -280.5817
   2   2.0000      -1.129858       -30.7450
   3   2.0000      -0.788472       -21.4554
   4   2.0000      -0.606553       -16.5051
   5   2.0000      -0.548629       -14.9290
   6   2.0000      -0.520435       -14.1618
   7   2.0000      -0.436082       -11.8664
   8   2.0000      -0.369020       -10.0415
   9   0.0000       0.072132         1.9628
  10   0.0000       0.126167         3.4332
  11   0.0000       0.157822         4.2945
  12   0.0000       0.166216         4.5230
  13   0.0000       0.196224         5.3395

MULLIKEN ATOMIC CHARGES
-----------------------
   0 C :    0.001373
   1 O :   -0.001207
   2 H :   -0.000103
   3 H :    0.000114
   4 H :   -0.000224
   5 H :   -0.002776
   6 C :   -0.158046
   7 O :   -0.465931
   8 H :    0.309487
   9 H :    0.104870
  10 H :    0.090485
  11 H :    0.121957
Sum of atomic charges:    0.0000000

LOEWDIN ATOMIC CHARGES
----------------------
   0 C :   -0.007307
   1 O :   -0.025378
   2 H :   -0.001152
   3 H :   -0.000074
   4 H :   -0.000234
   5 H :   -0.001722
   6 C :   -0.391268
   7 O :   -0.084814
   8 H :    0.216783
   9 H :    0.091238
  10 H :    0.097478
  11 H :    0.106451

  Mayer bond orders larger than 0.1
B(  6-C ,  7-O ) :   0.9946 B(  6-C ,  9-H ) :   0.9882 B(  6-C , 10-H ) :   0.9692
B(  6-C , 11-H ) :   0.9729 B(  7-O ,  8-H ) :   0.8980

Dispersion correction           -0.000223929
FINAL SINGLE POINT ENERGY      -115.730556455871

DIPOLE MOMENT
-------------
                                X             Y             Z
Electronic contribution:     -1.75156       0.03353      -0.00187
Nuclear contribution   :      2.19818      -0.47576       0.28921
                        -----------------------------------------
Total Dipole Moment    :      0.44662      -0.44222       0.28734
                        -----------------------------------------
Magnitude (a.u.)       :      0.69108
Magnitude (Debye)      :      1.75659

Rotational constants in cm-1:     4.125473     0.848279     0.809656
Rotational constants in MHz : 123678.583766 25430.776747 24272.867241

                             ****ORCA TERMINATED NORMALLY****
TOTAL RUN TIME: 0 days 0 hours 1 minutes 9 seconds 416 msec
