                         Program Version 4.1.2  - RELEASE  -
|  1> #Run DFT-D3 single point of the dimer
|  2> ! wB97X-D3 def2-TZVP TIGHTSCF CHELPG PMODEL PAL8
|  3>
|  4> %base "4-125_DFT_AB"
|  5>
|  6> %scf
|  7> MaxIter 1000
|  8> end
|  9>
| 10> * xyz 0 1
| 11>   C                      6.954746             7.491548             2.890849
| 12>   O                      6.315243             6.971353             1.717059
| 13>   H                      5.920077             7.735909             1.324826
| 14>   H                      7.605254             6.722106             3.359889
| 15>   H                      7.647488             8.305513             2.508878
| 16>   H                      6.250953             7.862724             3.602146
| 17>   C                      4.264224             9.550144             6.218596
| 18>   O                      4.588996             8.759427             5.073923
| 19>   H                      4.627013             9.333018             4.330637
| 20>   H                      3.395416             10.202376            6.075310
| 21>   H                      4.016887             8.866824             7.026298
| 22>   H                      5.004359             10.190719            6.491255
| 23> *
| 24>
| 25> #Run DFT-D3 single point of the molecule with dimer basis set
| 26> $new_job
| 27> %base "4-125_DFT_A"
| 28> ! wB97X-D3 def2-TZVP TIGHTSCF CHELPG PMODEL
| 29>
| 30> %scf
| 31> MaxIter 1000
| 32> end
| 33>
| 34> * xyz 0 1
| 35>   C                      6.954746             7.491548             2.890849
| 36>   O                      6.315243             6.971353             1.717059
| 37>   H                      5.920077             7.735909             1.324826
| 38>   H                      7.605254             6.722106             3.359889
| 39>   H                      7.647488             8.305513             2.508878
| 40>   H                      6.250953             7.862724             3.602146
| 41>   C                    : 4.264224             9.550144             6.218596
| 42>   O                    : 4.588996             8.759427             5.073923
| 43>   H                    : 4.627013             9.333018             4.330637
| 44>   H                    : 3.395416             10.202376            6.075310
| 45>   H                    : 4.016887             8.866824             7.026298
| 46>   H                    : 5.004359             10.190719            6.491255
| 47> *
| 48>
| 49> #Run DFT-D3 single point of the particle with dimer basis set
| 50> $new_job
| 51> %base "4-125_DFT_B"
| 52> ! wB97X-D3 def2-TZVP TIGHTSCF CHELPG PMODEL
| 53>
| 54> %scf
| 55> MaxIter 1000
| 56> end
| 57>
| 58> * xyz 0 1
| 59>   C                    : 6.954746             7.491548             2.890849
| 60>   O                    : 6.315243             6.971353             1.717059
| 61>   H                    : 5.920077             7.735909             1.324826
| 62>   H                    : 7.605254             6.722106             3.359889
| 63>   H                    : 7.647488             8.305513             2.508878
| 64>   H                    : 6.250953             7.862724             3.602146
| 65>   C                      4.264224             9.550144             6.218596
| 66>   O                      4.588996             8.759427             5.073923
| 67>   H                      4.627013             9.333018             4.330637
| 68>   H                      3.395416             10.202376            6.075310
| 69>   H                      4.016887             8.866824             7.026298
| 70>   H                      5.004359             10.190719            6.491255
| 71> *
| 72>
| 73>                          ****END OF INPUT****
 Total Charge           Charge          ....    0
 Multiplicity           Mult            ....    1
 Number of Electrons    NEL             ....   36
Dispersion correction           -0.001309808
FINAL SINGLE POINT ENERGY      -231.465206285058
Dispersion correction           -0.000225224
FINAL SINGLE POINT ENERGY      -115.732978241506

CARTESIAN COORDINATES (ANGSTROEM)
---------------------------------
  C      6.954746    7.491548    2.890849
  O      6.315243    6.971353    1.717059
  H      5.920077    7.735909    1.324826
  H      7.605254    6.722106    3.359889
  H      7.647488    8.305513    2.508878
  H      6.250953    7.862724    3.602146
  C      4.264224    9.550144    6.218596
  O      4.588996    8.759427    5.073923
  H      4.627013    9.333018    4.330637
  H      3.395416   10.202376    6.075310
  H      4.016887    8.866824    7.026298
  H      5.004359   10.190719    6.491255

 Multiplicity           Mult            ....    1
 Number of Electrons    NEL             ....   18
 Basis Dimension        Dim             ....  172

ORBITAL ENERGIES
----------------

  NO   OCC          E(Eh)            E(eV)
   0   2.0000     -19.229210      -523.2534
   1   2.0000     -10.305288      -280.4212
   2   2.0000      -1.136181       -30.9171
   3   2.0000      -0.805968       -21.9315
   4   2.0000      -0.617418       -16.8008
   5   2.0000      -0.543895       -14.8001
   6   2.0000      -0.523612       -14.2482
   7   2.0000      -0.441034       -12.0011
   8   2.0000      -0.376644       -10.2490
   9   0.0000       0.090071         2.4509
  10   0.0000       0.127767         3.4767
  11   0.0000       0.157668         4.2904
  12   0.0000       0.171272         4.6606
  13   0.0000       0.199026         5.4158

MULLIKEN ATOMIC CHARGES
-----------------------
   0 C :    0.007058
   1 O :   -0.000082
   2 H :   -0.000060
   3 H :   -0.000648
   4 H :    0.000089
   5 H :   -0.019601
   6 C :   -0.168358
   7 O :   -0.464649
   8 H :    0.312007
   9 H :    0.097720
  10 H :    0.122784
  11 H :    0.113742
Sum of atomic charges:   -0.0000000

LOEWDIN ATOMIC CHARGES
----------------------
   0 C :   -0.005543
   1 O :   -0.000034
   2 H :   -0.000035
   3 H :   -0.000081
   4 H :   -0.000055
   5 H :   -0.014870
   6 C :   -0.360272
   7 O :   -0.060663
   8 H :    0.156238
   9 H :    0.096906
  10 H :    0.111134
  11 H :    0.077274

  Mayer bond orders larger than 0.1
B(  6-C ,  7-O ) :   0.9934 B(  6-C ,  9-H ) :   0.9761 B(  6-C , 10-H ) :   0.9785
B(  6-C , 11-H ) :   0.9731 B(  7-O ,  8-H ) :   0.9024

Dispersion correction           -0.000235162
FINAL SINGLE POINT ENERGY      -115.732107755851

DIPOLE MOMENT
-------------
                                X             Y             Z
Electronic contribution:      0.50276      -1.08522      -1.34683
Nuclear contribution   :     -0.61698       1.79737       1.35699
                        -----------------------------------------
Total Dipole Moment    :     -0.11422       0.71215       0.01016
                        -----------------------------------------
Magnitude (a.u.)       :      0.72132
Magnitude (Debye)      :      1.83346

Rotational constants in cm-1:     4.540289     0.825063     0.789333
Rotational constants in MHz : 136114.446541 24734.759433 23663.620760

                             ****ORCA TERMINATED NORMALLY****
TOTAL RUN TIME: 0 days 0 hours 1 minutes 27 seconds 183 msec
