                         Program Version 4.1.2  - RELEASE  -
|  1> #Run DFT-D3 single point of the dimer
|  2> ! wB97X-D3 def2-TZVP TIGHTSCF CHELPG PMODEL PAL8
|  3>
|  4> %base "10-9_DFT_AB"
|  5>
|  6> %scf
|  7> MaxIter 1000
|  8> end
|  9>
| 10> * xyz 0 1
| 11>   C                      -8.336969            -4.600054            6.961619
| 12>   O                      -7.406997            -4.718792            5.976221
| 13>   H                      -6.557219            -5.068828            6.345814
| 14>   H                      -9.026821            -3.757067            6.800029
| 15>   H                      -9.068774            -5.485411            6.969378
| 16>   H                      -7.848887            -4.496328            7.950912
| 17>   C                      -6.546840            0.074704             9.038280
| 18>   O                      -6.336000            1.429750             8.808845
| 19>   H                      -5.428613            1.515341             8.559811
| 20>   H                      -7.109638            -0.391232            8.240486
| 21>   H                      -5.589320            -0.496312            9.039589
| 22>   H                      -7.081118            -0.070553            9.995042
| 23> *
| 24>
| 25> #Run DFT-D3 single point of the molecule with dimer basis set
| 26> $new_job
| 27> %base "10-9_DFT_A"
| 28> ! wB97X-D3 def2-TZVP TIGHTSCF CHELPG PMODEL
| 29>
| 30> %scf
| 31> MaxIter 1000
| 32> end
| 33>
| 34> * xyz 0 1
| 35>   C                      -8.336969            -4.600054            6.961619
| 36>   O                      -7.406997            -4.718792            5.976221
| 37>   H                      -6.557219            -5.068828            6.345814
| 38>   H                      -9.026821            -3.757067            6.800029
| 39>   H                      -9.068774            -5.485411            6.969378
| 40>   H                      -7.848887            -4.496328            7.950912
| 41>   C                    : -6.546840            0.074704             9.038280
| 42>   O                    : -6.336000            1.429750             8.808845
| 43>   H                    : -5.428613            1.515341             8.559811
| 44>   H                    : -7.109638            -0.391232            8.240486
| 45>   H                    : -5.589320            -0.496312            9.039589
| 46>   H                    : -7.081118            -0.070553            9.995042
| 47> *
| 48>
| 49> #Run DFT-D3 single point of the particle with dimer basis set
| 50> $new_job
| 51> %base "10-9_DFT_B"
| 52> ! wB97X-D3 def2-TZVP TIGHTSCF CHELPG PMODEL
| 53>
| 54> %scf
| 55> MaxIter 1000
| 56> end
| 57>
| 58> * xyz 0 1
| 59>   C                    : -8.336969            -4.600054            6.961619
| 60>   O                    : -7.406997            -4.718792            5.976221
| 61>   H                    : -6.557219            -5.068828            6.345814
| 62>   H                    : -9.026821            -3.757067            6.800029
| 63>   H                    : -9.068774            -5.485411            6.969378
| 64>   H                    : -7.848887            -4.496328            7.950912
| 65>   C                      -6.546840            0.074704             9.038280
| 66>   O                      -6.336000            1.429750             8.808845
| 67>   H                      -5.428613            1.515341             8.559811
| 68>   H                      -7.109638            -0.391232            8.240486
| 69>   H                      -5.589320            -0.496312            9.039589
| 70>   H                      -7.081118            -0.070553            9.995042
| 71> *
| 72>
| 73>                          ****END OF INPUT****
 Total Charge           Charge          ....    0
 Multiplicity           Mult            ....    1
 Number of Electrons    NEL             ....   36
Dispersion correction           -0.000678117
FINAL SINGLE POINT ENERGY      -231.464716235022
Dispersion correction           -0.000243979
FINAL SINGLE POINT ENERGY      -115.730510976332

CARTESIAN COORDINATES (ANGSTROEM)
---------------------------------
  C     -8.336969   -4.600054    6.961619
  O     -7.406997   -4.718792    5.976221
  H     -6.557219   -5.068828    6.345814
  H     -9.026821   -3.757067    6.800029
  H     -9.068774   -5.485411    6.969378
  H     -7.848887   -4.496328    7.950912
  C     -6.546840    0.074704    9.038280
  O     -6.336000    1.429750    8.808845
  H     -5.428613    1.515341    8.559811
  H     -7.109638   -0.391232    8.240486
  H     -5.589320   -0.496312    9.039589
  H     -7.081118   -0.070553    9.995042

 Multiplicity           Mult            ....    1
 Number of Electrons    NEL             ....   18
 Basis Dimension        Dim             ....  172

ORBITAL ENERGIES
----------------

  NO   OCC          E(Eh)            E(eV)
   0   2.0000     -19.229125      -523.2511
   1   2.0000     -10.312761      -280.6245
   2   2.0000      -1.148233       -31.2450
   3   2.0000      -0.793258       -21.5857
   4   2.0000      -0.618888       -16.8408
   5   2.0000      -0.542876       -14.7724
   6   2.0000      -0.529978       -14.4214
   7   2.0000      -0.433648       -11.8002
   8   2.0000      -0.372669       -10.1408
   9   0.0000       0.083344         2.2679
  10   0.0000       0.113607         3.0914
  11   0.0000       0.150119         4.0849
  12   0.0000       0.163886         4.4596
  13   0.0000       0.186691         5.0801

MULLIKEN ATOMIC CHARGES
-----------------------
   0 C :   -0.000036
   1 O :    0.000003
   2 H :   -0.000001
   3 H :   -0.000055
   4 H :   -0.000003
   5 H :    0.000008
   6 C :   -0.168005
   7 O :   -0.461114
   8 H :    0.315821
   9 H :    0.104548
  10 H :    0.096959
  11 H :    0.111874
Sum of atomic charges:    0.0000000

LOEWDIN ATOMIC CHARGES
----------------------
   0 C :   -0.000125
   1 O :   -0.000001
   2 H :   -0.000001
   3 H :   -0.000054
   4 H :   -0.000002
   5 H :   -0.000025
   6 C :   -0.405848
   7 O :   -0.053950
   8 H :    0.163449
   9 H :    0.092800
  10 H :    0.099064
  11 H :    0.104695

  Mayer bond orders larger than 0.1
B(  6-C ,  7-O ) :   1.0100 B(  6-C ,  9-H ) :   0.9720 B(  6-C , 10-H ) :   0.9885
B(  6-C , 11-H ) :   0.9748 B(  7-O ,  8-H ) :   0.9034

Dispersion correction           -0.000234363
FINAL SINGLE POINT ENERGY      -115.734069052660

DIPOLE MOMENT
-------------
                                X             Y             Z
Electronic contribution:      0.11691       1.85883      -0.25092
Nuclear contribution   :      0.40867      -2.31720       0.16740
                        -----------------------------------------
Total Dipole Moment    :      0.52558      -0.45837      -0.08351
                        -----------------------------------------
Magnitude (a.u.)       :      0.70236
Magnitude (Debye)      :      1.78526

Rotational constants in cm-1:     4.276129     0.857065     0.821630
Rotational constants in MHz : 128195.107487 25694.168811 24631.854411

                             ****ORCA TERMINATED NORMALLY****
TOTAL RUN TIME: 0 days 0 hours 0 minutes 58 seconds 827 msec
