                         Program Version 4.1.2  - RELEASE  -
|  1> #Run DFT-D3 single point of the dimer
|  2> ! wB97X-D3 def2-TZVP TIGHTSCF CHELPG PMODEL PAL8
|  3>
|  4> %base "1-120_DFT_AB"
|  5>
|  6> %scf
|  7> MaxIter 1000
|  8> end
|  9>
| 10> * xyz 0 1
| 11>   C                      10.097442            -11.021088           4.792170
| 12>   O                      9.797004             -10.184872           3.709985
| 13>   H                      10.061023            -9.304137            3.936101
| 14>   H                      10.118877            -12.027282           4.441475
| 15>   H                      11.067215            -10.924921           5.229111
| 16>   H                      9.389762             -10.964575           5.682178
| 17>   C                      5.660529             -5.906477            3.532480
| 18>   O                      5.913221             -7.167290            4.119112
| 19>   H                      6.083325             -7.763687            3.391292
| 20>   H                      6.584496             -5.609332            3.023153
| 21>   H                      4.852428             -6.001478            2.787841
| 22>   H                      5.409136             -5.135036            4.248543
| 23> *
| 24>
| 25> #Run DFT-D3 single point of the molecule with dimer basis set
| 26> $new_job
| 27> %base "1-120_DFT_A"
| 28> ! wB97X-D3 def2-TZVP TIGHTSCF CHELPG PMODEL
| 29>
| 30> %scf
| 31> MaxIter 1000
| 32> end
| 33>
| 34> * xyz 0 1
| 35>   C                      10.097442            -11.021088           4.792170
| 36>   O                      9.797004             -10.184872           3.709985
| 37>   H                      10.061023            -9.304137            3.936101
| 38>   H                      10.118877            -12.027282           4.441475
| 39>   H                      11.067215            -10.924921           5.229111
| 40>   H                      9.389762             -10.964575           5.682178
| 41>   C                    : 5.660529             -5.906477            3.532480
| 42>   O                    : 5.913221             -7.167290            4.119112
| 43>   H                    : 6.083325             -7.763687            3.391292
| 44>   H                    : 6.584496             -5.609332            3.023153
| 45>   H                    : 4.852428             -6.001478            2.787841
| 46>   H                    : 5.409136             -5.135036            4.248543
| 47> *
| 48>
| 49> #Run DFT-D3 single point of the particle with dimer basis set
| 50> $new_job
| 51> %base "1-120_DFT_B"
| 52> ! wB97X-D3 def2-TZVP TIGHTSCF CHELPG PMODEL
| 53>
| 54> %scf
| 55> MaxIter 1000
| 56> end
| 57>
| 58> * xyz 0 1
| 59>   C                    : 10.097442            -11.021088           4.792170
| 60>   O                    : 9.797004             -10.184872           3.709985
| 61>   H                    : 10.061023            -9.304137            3.936101
| 62>   H                    : 10.118877            -12.027282           4.441475
| 63>   H                    : 11.067215            -10.924921           5.229111
| 64>   H                    : 9.389762             -10.964575           5.682178
| 65>   C                      5.660529             -5.906477            3.532480
| 66>   O                      5.913221             -7.167290            4.119112
| 67>   H                      6.083325             -7.763687            3.391292
| 68>   H                      6.584496             -5.609332            3.023153
| 69>   H                      4.852428             -6.001478            2.787841
| 70>   H                      5.409136             -5.135036            4.248543
| 71> *
| 72>
| 73>                          ****END OF INPUT****
 Total Charge           Charge          ....    0
 Multiplicity           Mult            ....    1
 Number of Electrons    NEL             ....   36
Dispersion correction           -0.000618744
FINAL SINGLE POINT ENERGY      -231.468710728206
Dispersion correction           -0.000258124
FINAL SINGLE POINT ENERGY      -115.733006898997

CARTESIAN COORDINATES (ANGSTROEM)
---------------------------------
  C     10.097442  -11.021088    4.792170
  O      9.797004  -10.184872    3.709985
  H     10.061023   -9.304137    3.936101
  H     10.118877  -12.027282    4.441475
  H     11.067215  -10.924921    5.229111
  H      9.389762  -10.964575    5.682178
  C      5.660529   -5.906477    3.532480
  O      5.913221   -7.167290    4.119112
  H      6.083325   -7.763687    3.391292
  H      6.584496   -5.609332    3.023153
  H      4.852428   -6.001478    2.787841
  H      5.409136   -5.135036    4.248543

 Multiplicity           Mult            ....    1
 Number of Electrons    NEL             ....   18
 Basis Dimension        Dim             ....  172

ORBITAL ENERGIES
----------------

  NO   OCC          E(Eh)            E(eV)
   0   2.0000     -19.227373      -523.2034
   1   2.0000     -10.313230      -280.6373
   2   2.0000      -1.137709       -30.9586
   3   2.0000      -0.793708       -21.5979
   4   2.0000      -0.607686       -16.5360
   5   2.0000      -0.543350       -14.7853
   6   2.0000      -0.533884       -14.5277
   7   2.0000      -0.434074       -11.8117
   8   2.0000      -0.370334       -10.0773
   9   0.0000       0.086490         2.3535
  10   0.0000       0.114243         3.1087
  11   0.0000       0.155488         4.2310
  12   0.0000       0.170958         4.6520
  13   0.0000       0.198899         5.4123

MULLIKEN ATOMIC CHARGES
-----------------------
   0 C :    0.000038
   1 O :    0.000003
   2 H :   -0.000173
   3 H :    0.000000
   4 H :   -0.000003
   5 H :   -0.000018
   6 C :   -0.165677
   7 O :   -0.473011
   8 H :    0.314251
   9 H :    0.101564
  10 H :    0.099625
  11 H :    0.123401
Sum of atomic charges:    0.0000000

LOEWDIN ATOMIC CHARGES
----------------------
   0 C :   -0.000006
   1 O :   -0.000012
   2 H :   -0.000093
   3 H :   -0.000000
   4 H :   -0.000000
   5 H :   -0.000003
   6 C :   -0.383966
   7 O :   -0.079990
   8 H :    0.167540
   9 H :    0.095561
  10 H :    0.095496
  11 H :    0.105474

  Mayer bond orders larger than 0.1
B(  6-C ,  7-O ) :   0.9911 B(  6-C ,  9-H ) :   0.9836 B(  6-C , 10-H ) :   0.9798
B(  6-C , 11-H ) :   0.9700 B(  7-O ,  8-H ) :   0.9010

Dispersion correction           -0.000217153
FINAL SINGLE POINT ENERGY      -115.734894456208

DIPOLE MOMENT
-------------
                                X             Y             Z
Electronic contribution:      0.24275      -1.49437       0.97164
Nuclear contribution   :     -0.23616       1.62888      -1.65149
                        -----------------------------------------
Total Dipole Moment    :      0.00659       0.13451      -0.67985
                        -----------------------------------------
Magnitude (a.u.)       :      0.69306
Magnitude (Debye)      :      1.76163

Rotational constants in cm-1:     4.252340     0.838337     0.808519
Rotational constants in MHz : 127481.936611 25132.721782 24238.780286

                             ****ORCA TERMINATED NORMALLY****
TOTAL RUN TIME: 0 days 0 hours 5 minutes 32 seconds 898 msec
