                         Program Version 4.1.2  - RELEASE  -
|  1> #Run DFT-D3 single point of the dimer
|  2> ! wB97X-D3 def2-TZVP TIGHTSCF CHELPG PMODEL PAL8
|  3>
|  4> %base "9-94_DFT_AB"
|  5>
|  6> %scf
|  7> MaxIter 1000
|  8> end
|  9>
| 10> * xyz 0 1
| 11>   C                      -2.747217            -1.439285            7.215734
| 12>   O                      -3.661565            -2.257749            7.941439
| 13>   H                      -4.087411            -2.914877            7.304557
| 14>   H                      -1.744539            -1.863552            7.165893
| 15>   H                      -3.187766            -1.140830            6.244377
| 16>   H                      -2.642980            -0.476722            7.720025
| 17>   C                      1.711450             -2.320812            7.646247
| 18>   O                      2.272455             -2.607682            6.372565
| 19>   H                      2.541367             -3.494958            6.384661
| 20>   H                      1.660441             -3.176239            8.294267
| 21>   H                      2.251824             -1.474142            8.110296
| 22>   H                      0.626260             -1.930606            7.640705
| 23> *
| 24>
| 25> #Run DFT-D3 single point of the molecule with dimer basis set
| 26> $new_job
| 27> %base "9-94_DFT_A"
| 28> ! wB97X-D3 def2-TZVP TIGHTSCF CHELPG PMODEL
| 29>
| 30> %scf
| 31> MaxIter 1000
| 32> end
| 33>
| 34> * xyz 0 1
| 35>   C                      -2.747217            -1.439285            7.215734
| 36>   O                      -3.661565            -2.257749            7.941439
| 37>   H                      -4.087411            -2.914877            7.304557
| 38>   H                      -1.744539            -1.863552            7.165893
| 39>   H                      -3.187766            -1.140830            6.244377
| 40>   H                      -2.642980            -0.476722            7.720025
| 41>   C                    : 1.711450             -2.320812            7.646247
| 42>   O                    : 2.272455             -2.607682            6.372565
| 43>   H                    : 2.541367             -3.494958            6.384661
| 44>   H                    : 1.660441             -3.176239            8.294267
| 45>   H                    : 2.251824             -1.474142            8.110296
| 46>   H                    : 0.626260             -1.930606            7.640705
| 47> *
| 48>
| 49> #Run DFT-D3 single point of the particle with dimer basis set
| 50> $new_job
| 51> %base "9-94_DFT_B"
| 52> ! wB97X-D3 def2-TZVP TIGHTSCF CHELPG PMODEL
| 53>
| 54> %scf
| 55> MaxIter 1000
| 56> end
| 57>
| 58> * xyz 0 1
| 59>   C                    : -2.747217            -1.439285            7.215734
| 60>   O                    : -3.661565            -2.257749            7.941439
| 61>   H                    : -4.087411            -2.914877            7.304557
| 62>   H                    : -1.744539            -1.863552            7.165893
| 63>   H                    : -3.187766            -1.140830            6.244377
| 64>   H                    : -2.642980            -0.476722            7.720025
| 65>   C                      1.711450             -2.320812            7.646247
| 66>   O                      2.272455             -2.607682            6.372565
| 67>   H                      2.541367             -3.494958            6.384661
| 68>   H                      1.660441             -3.176239            8.294267
| 69>   H                      2.251824             -1.474142            8.110296
| 70>   H                      0.626260             -1.930606            7.640705
| 71> *
| 72>
| 73>                          ****END OF INPUT****
 Total Charge           Charge          ....    0
 Multiplicity           Mult            ....    1
 Number of Electrons    NEL             ....   36
Dispersion correction           -0.001066860
FINAL SINGLE POINT ENERGY      -231.463329211136
Dispersion correction           -0.000258130
FINAL SINGLE POINT ENERGY      -115.732340206818

CARTESIAN COORDINATES (ANGSTROEM)
---------------------------------
  C     -2.747217   -1.439285    7.215734
  O     -3.661565   -2.257749    7.941439
  H     -4.087411   -2.914877    7.304557
  H     -1.744539   -1.863552    7.165893
  H     -3.187766   -1.140830    6.244377
  H     -2.642980   -0.476722    7.720025
  C      1.711450   -2.320812    7.646247
  O      2.272455   -2.607682    6.372565
  H      2.541367   -3.494958    6.384661
  H      1.660441   -3.176239    8.294267
  H      2.251824   -1.474142    8.110296
  H      0.626260   -1.930606    7.640705

 Multiplicity           Mult            ....    1
 Number of Electrons    NEL             ....   18
 Basis Dimension        Dim             ....  172

ORBITAL ENERGIES
----------------

  NO   OCC          E(Eh)            E(eV)
   0   2.0000     -19.231027      -523.3029
   1   2.0000     -10.319651      -280.8120
   2   2.0000      -1.143432       -31.1144
   3   2.0000      -0.796089       -21.6627
   4   2.0000      -0.619280       -16.8515
   5   2.0000      -0.534936       -14.5564
   6   2.0000      -0.523543       -14.2463
   7   2.0000      -0.440506       -11.9868
   8   2.0000      -0.372328       -10.1316
   9   0.0000       0.087905         2.3920
  10   0.0000       0.118746         3.2313
  11   0.0000       0.146627         3.9899
  12   0.0000       0.169539         4.6134
  13   0.0000       0.191539         5.2120

MULLIKEN ATOMIC CHARGES
-----------------------
   0 C :   -0.004412
   1 O :    0.000119
   2 H :    0.000025
   3 H :    0.007526
   4 H :    0.000048
   5 H :    0.000013
   6 C :   -0.180028
   7 O :   -0.457623
   8 H :    0.311105
   9 H :    0.113523
  10 H :    0.116142
  11 H :    0.093562
Sum of atomic charges:   -0.0000000

LOEWDIN ATOMIC CHARGES
----------------------
   0 C :   -0.001997
   1 O :   -0.000010
   2 H :   -0.000001
   3 H :   -0.004417
   4 H :   -0.000013
   5 H :   -0.000093
   6 C :   -0.387868
   7 O :   -0.061463
   8 H :    0.148546
   9 H :    0.092737
  10 H :    0.103169
  11 H :    0.111409

  Mayer bond orders larger than 0.1
B(  6-C ,  7-O ) :   1.0209 B(  6-C ,  9-H ) :   0.9816 B(  6-C , 10-H ) :   0.9816
B(  6-C , 11-H ) :   0.9682 B(  7-O ,  8-H ) :   0.9075

Dispersion correction           -0.000266744
FINAL SINGLE POINT ENERGY      -115.730355408648

DIPOLE MOMENT
-------------
                                X             Y             Z
Electronic contribution:      0.81929      -0.37991      -1.73444
Nuclear contribution   :     -0.85517      -0.11433       2.25007
                        -----------------------------------------
Total Dipole Moment    :     -0.03588      -0.49424       0.51563
                        -----------------------------------------
Magnitude (a.u.)       :      0.71515
Magnitude (Debye)      :      1.81776

Rotational constants in cm-1:     4.362533     0.814775     0.784631
Rotational constants in MHz : 130785.439318 24426.348267 23522.633397

                             ****ORCA TERMINATED NORMALLY****
TOTAL RUN TIME: 0 days 0 hours 0 minutes 33 seconds 849 msec
