                         Program Version 4.1.2  - RELEASE  -
|  1> #Run DFT-D3 single point of the dimer
|  2> ! wB97X-D3 def2-TZVP TIGHTSCF CHELPG PMODEL PAL8
|  3>
|  4> %base "8-52_DFT_AB"
|  5>
|  6> %scf
|  7> MaxIter 1000
|  8> end
|  9>
| 10> * xyz 0 1
| 11>   C                      10.151555            8.697992             -2.113844
| 12>   O                      8.907114             8.041381             -1.854696
| 13>   H                      8.176294             8.540252             -2.215552
| 14>   H                      10.937525            7.939530             -1.949895
| 15>   H                      10.135819            9.106653             -3.162596
| 16>   H                      10.323929            9.538655             -1.477755
| 17>   C                      10.002573            10.217668            1.698055
| 18>   O                      10.101001            11.637995            1.492897
| 19>   H                      10.970824            11.992967            1.664862
| 20>   H                      9.120511             9.885597             2.256404
| 21>   H                      10.209854            9.600184             0.760792
| 22>   H                      10.844258            9.933152             2.330648
| 23> *
| 24>
| 25> #Run DFT-D3 single point of the molecule with dimer basis set
| 26> $new_job
| 27> %base "8-52_DFT_A"
| 28> ! wB97X-D3 def2-TZVP TIGHTSCF CHELPG PMODEL
| 29>
| 30> %scf
| 31> MaxIter 1000
| 32> end
| 33>
| 34> * xyz 0 1
| 35>   C                      10.151555            8.697992             -2.113844
| 36>   O                      8.907114             8.041381             -1.854696
| 37>   H                      8.176294             8.540252             -2.215552
| 38>   H                      10.937525            7.939530             -1.949895
| 39>   H                      10.135819            9.106653             -3.162596
| 40>   H                      10.323929            9.538655             -1.477755
| 41>   C                    : 10.002573            10.217668            1.698055
| 42>   O                    : 10.101001            11.637995            1.492897
| 43>   H                    : 10.970824            11.992967            1.664862
| 44>   H                    : 9.120511             9.885597             2.256404
| 45>   H                    : 10.209854            9.600184             0.760792
| 46>   H                    : 10.844258            9.933152             2.330648
| 47> *
| 48>
| 49> #Run DFT-D3 single point of the particle with dimer basis set
| 50> $new_job
| 51> %base "8-52_DFT_B"
| 52> ! wB97X-D3 def2-TZVP TIGHTSCF CHELPG PMODEL
| 53>
| 54> %scf
| 55> MaxIter 1000
| 56> end
| 57>
| 58> * xyz 0 1
| 59>   C                    : 10.151555            8.697992             -2.113844
| 60>   O                    : 8.907114             8.041381             -1.854696
| 61>   H                    : 8.176294             8.540252             -2.215552
| 62>   H                    : 10.937525            7.939530             -1.949895
| 63>   H                    : 10.135819            9.106653             -3.162596
| 64>   H                    : 10.323929            9.538655             -1.477755
| 65>   C                      10.002573            10.217668            1.698055
| 66>   O                      10.101001            11.637995            1.492897
| 67>   H                      10.970824            11.992967            1.664862
| 68>   H                      9.120511             9.885597             2.256404
| 69>   H                      10.209854            9.600184             0.760792
| 70>   H                      10.844258            9.933152             2.330648
| 71> *
| 72>
| 73>                          ****END OF INPUT****
 Total Charge           Charge          ....    0
 Multiplicity           Mult            ....    1
 Number of Electrons    NEL             ....   36
Dispersion correction           -0.001408649
FINAL SINGLE POINT ENERGY      -231.464653298177
Dispersion correction           -0.000247146
FINAL SINGLE POINT ENERGY      -115.734858960364

CARTESIAN COORDINATES (ANGSTROEM)
---------------------------------
  C     10.151555    8.697992   -2.113844
  O      8.907114    8.041381   -1.854696
  H      8.176294    8.540252   -2.215552
  H     10.937525    7.939530   -1.949895
  H     10.135819    9.106653   -3.162596
  H     10.323929    9.538655   -1.477755
  C     10.002573   10.217668    1.698055
  O     10.101001   11.637995    1.492897
  H     10.970824   11.992967    1.664862
  H      9.120511    9.885597    2.256404
  H     10.209854    9.600184    0.760792
  H     10.844258    9.933152    2.330648

 Multiplicity           Mult            ....    1
 Number of Electrons    NEL             ....   18
 Basis Dimension        Dim             ....  172

ORBITAL ENERGIES
----------------

  NO   OCC          E(Eh)            E(eV)
   0   2.0000     -19.228393      -523.2312
   1   2.0000     -10.321625      -280.8657
   2   2.0000      -1.126816       -30.6622
   3   2.0000      -0.796818       -21.6825
   4   2.0000      -0.611039       -16.6272
   5   2.0000      -0.538942       -14.6653
   6   2.0000      -0.521822       -14.1995
   7   2.0000      -0.422402       -11.4941
   8   2.0000      -0.375169       -10.2089
   9   0.0000       0.087577         2.3831
  10   0.0000       0.115574         3.1449
  11   0.0000       0.150259         4.0887
  12   0.0000       0.164942         4.4883
  13   0.0000       0.192331         5.2336

MULLIKEN ATOMIC CHARGES
-----------------------
   0 C :   -0.004127
   1 O :   -0.000116
   2 H :   -0.000038
   3 H :   -0.000401
   4 H :    0.000304
   5 H :    0.008591
   6 C :   -0.174299
   7 O :   -0.490011
   8 H :    0.321153
   9 H :    0.130577
  10 H :    0.096053
  11 H :    0.112313
Sum of atomic charges:   -0.0000000

LOEWDIN ATOMIC CHARGES
----------------------
   0 C :   -0.005853
   1 O :   -0.000200
   2 H :   -0.000052
   3 H :   -0.000256
   4 H :   -0.000049
   5 H :   -0.004415
   6 C :   -0.371114
   7 O :   -0.095466
   8 H :    0.163410
   9 H :    0.106631
  10 H :    0.110481
  11 H :    0.096884

  Mayer bond orders larger than 0.1
B(  6-C ,  7-O ) :   0.9971 B(  6-C ,  9-H ) :   0.9699 B(  6-C , 10-H ) :   0.9634
B(  6-C , 11-H ) :   0.9914 B(  7-O ,  8-H ) :   0.8947

Dispersion correction           -0.000272591
FINAL SINGLE POINT ENERGY      -115.728702906302

DIPOLE MOMENT
-------------
                                X             Y             Z
Electronic contribution:     -0.18098       1.84800      -0.31898
Nuclear contribution   :      0.74673      -2.20724       0.56362
                        -----------------------------------------
Total Dipole Moment    :      0.56575      -0.35923       0.24465
                        -----------------------------------------
Magnitude (a.u.)       :      0.71342
Magnitude (Debye)      :      1.81338

Rotational constants in cm-1:     4.344962     0.790196     0.771846
Rotational constants in MHz : 130258.695898 23689.471796 23139.362359

                             ****ORCA TERMINATED NORMALLY****
TOTAL RUN TIME: 0 days 0 hours 0 minutes 44 seconds 420 msec
