                         Program Version 4.1.2  - RELEASE  -
|  1> #Run DFT-D3 single point of the dimer
|  2> ! wB97X-D3 def2-TZVP TIGHTSCF CHELPG PMODEL PAL8
|  3>
|  4> %base "1-14_DFT_AB"
|  5>
|  6> %scf
|  7> MaxIter 1000
|  8> end
|  9>
| 10> * xyz 0 1
| 11>   C                      9.259421             10.062301            8.811759
| 12>   O                      8.381720             10.141234            7.690191
| 13>   H                      7.835794             9.333430             7.697897
| 14>   H                      9.945951             9.205096             8.643888
| 15>   H                      9.913457             10.956592            8.943988
| 16>   H                      8.689230             10.048208            9.744641
| 17>   C                      10.598869            6.750905             10.055156
| 18>   O                      11.080690            7.684577             11.009708
| 19>   H                      10.397089            8.240395             11.420509
| 20>   H                      10.276906            7.250951             9.097369
| 21>   H                      11.342393            6.084600             9.682670
| 22>   H                      9.635747             6.233982             10.406813
| 23> *
| 24>
| 25> #Run DFT-D3 single point of the molecule with dimer basis set
| 26> $new_job
| 27> %base "1-14_DFT_A"
| 28> ! wB97X-D3 def2-TZVP TIGHTSCF CHELPG PMODEL
| 29>
| 30> %scf
| 31> MaxIter 1000
| 32> end
| 33>
| 34> * xyz 0 1
| 35>   C                      9.259421             10.062301            8.811759
| 36>   O                      8.381720             10.141234            7.690191
| 37>   H                      7.835794             9.333430             7.697897
| 38>   H                      9.945951             9.205096             8.643888
| 39>   H                      9.913457             10.956592            8.943988
| 40>   H                      8.689230             10.048208            9.744641
| 41>   C                    : 10.598869            6.750905             10.055156
| 42>   O                    : 11.080690            7.684577             11.009708
| 43>   H                    : 10.397089            8.240395             11.420509
| 44>   H                    : 10.276906            7.250951             9.097369
| 45>   H                    : 11.342393            6.084600             9.682670
| 46>   H                    : 9.635747             6.233982             10.406813
| 47> *
| 48>
| 49> #Run DFT-D3 single point of the particle with dimer basis set
| 50> $new_job
| 51> %base "1-14_DFT_B"
| 52> ! wB97X-D3 def2-TZVP TIGHTSCF CHELPG PMODEL
| 53>
| 54> %scf
| 55> MaxIter 1000
| 56> end
| 57>
| 58> * xyz 0 1
| 59>   C                    : 9.259421             10.062301            8.811759
| 60>   O                    : 8.381720             10.141234            7.690191
| 61>   H                    : 7.835794             9.333430             7.697897
| 62>   H                    : 9.945951             9.205096             8.643888
| 63>   H                    : 9.913457             10.956592            8.943988
| 64>   H                    : 8.689230             10.048208            9.744641
| 65>   C                      10.598869            6.750905             10.055156
| 66>   O                      11.080690            7.684577             11.009708
| 67>   H                      10.397089            8.240395             11.420509
| 68>   H                      10.276906            7.250951             9.097369
| 69>   H                      11.342393            6.084600             9.682670
| 70>   H                      9.635747             6.233982             10.406813
| 71> *
| 72>
| 73>                          ****END OF INPUT****
 Total Charge           Charge          ....    0
 Multiplicity           Mult            ....    1
 Number of Electrons    NEL             ....   36
Dispersion correction           -0.001899828
FINAL SINGLE POINT ENERGY      -231.462779700334
Dispersion correction           -0.000244237
FINAL SINGLE POINT ENERGY      -115.733001431432

CARTESIAN COORDINATES (ANGSTROEM)
---------------------------------
  C      9.259421   10.062301    8.811759
  O      8.381720   10.141234    7.690191
  H      7.835794    9.333430    7.697897
  H      9.945951    9.205096    8.643888
  H      9.913457   10.956592    8.943988
  H      8.689230   10.048208    9.744641
  C     10.598869    6.750905   10.055156
  O     11.080690    7.684577   11.009708
  H     10.397089    8.240395   11.420509
  H     10.276906    7.250951    9.097369
  H     11.342393    6.084600    9.682670
  H      9.635747    6.233982   10.406813

 Multiplicity           Mult            ....    1
 Number of Electrons    NEL             ....   18
 Basis Dimension        Dim             ....  172

ORBITAL ENERGIES
----------------

  NO   OCC          E(Eh)            E(eV)
   0   2.0000     -19.232194      -523.3346
   1   2.0000     -10.321749      -280.8691
   2   2.0000      -1.129440       -30.7336
   3   2.0000      -0.796299       -21.6684
   4   2.0000      -0.610678       -16.6174
   5   2.0000      -0.541735       -14.7414
   6   2.0000      -0.520919       -14.1749
   7   2.0000      -0.429093       -11.6762
   8   2.0000      -0.368606       -10.0303
   9   0.0000       0.078162         2.1269
  10   0.0000       0.126251         3.4355
  11   0.0000       0.145226         3.9518
  12   0.0000       0.172650         4.6980
  13   0.0000       0.189624         5.1599

MULLIKEN ATOMIC CHARGES
-----------------------
   0 C :   -0.006480
   1 O :    0.000060
   2 H :   -0.000013
   3 H :    0.009169
   4 H :    0.000360
   5 H :   -0.000791
   6 C :   -0.165466
   7 O :   -0.484167
   8 H :    0.322953
   9 H :    0.083801
  10 H :    0.137228
  11 H :    0.103346
Sum of atomic charges:   -0.0000000

LOEWDIN ATOMIC CHARGES
----------------------
   0 C :   -0.007416
   1 O :   -0.000057
   2 H :   -0.000123
   3 H :   -0.009288
   4 H :   -0.000089
   5 H :   -0.000734
   6 C :   -0.384031
   7 O :   -0.083753
   8 H :    0.175610
   9 H :    0.102443
  10 H :    0.102787
  11 H :    0.104651

  Mayer bond orders larger than 0.1
B(  6-C ,  7-O ) :   1.0018 B(  6-C ,  9-H ) :   0.9760 B(  6-C , 10-H ) :   0.9702
B(  6-C , 11-H ) :   0.9799 B(  7-O ,  8-H ) :   0.8894

Dispersion correction           -0.000277544
FINAL SINGLE POINT ENERGY      -115.729507713171

DIPOLE MOMENT
-------------
                                X             Y             Z
Electronic contribution:      0.89232       1.07095       1.33638
Nuclear contribution   :     -1.50854      -1.08168      -1.46456
                        -----------------------------------------
Total Dipole Moment    :     -0.61622      -0.01073      -0.12818
                        -----------------------------------------
Magnitude (a.u.)       :      0.62950
Magnitude (Debye)      :      1.60007

Rotational constants in cm-1:     4.321718     0.808931     0.775336
Rotational constants in MHz : 129561.848677 24251.154088 23243.991058

                             ****ORCA TERMINATED NORMALLY****
TOTAL RUN TIME: 0 days 0 hours 5 minutes 35 seconds 696 msec
