                         Program Version 4.1.2  - RELEASE  -
|  1> #Run DFT-D3 single point of the dimer
|  2> ! wB97X-D3 def2-TZVP TIGHTSCF CHELPG PMODEL PAL8
|  3>
|  4> %base "10-200_DFT_AB"
|  5>
|  6> %scf
|  7> MaxIter 1000
|  8> end
|  9>
| 10> * xyz 0 1
| 11>   C                      5.169187             9.006388             2.138986
| 12>   O                      6.436898             9.574413             2.560318
| 13>   H                      7.128505             8.930663             2.293660
| 14>   H                      5.060583             9.031501             1.009323
| 15>   H                      5.043537             7.992806             2.419703
| 16>   H                      4.286591             9.524246             2.577724
| 17>   C                      9.558170             8.529743             1.949500
| 18>   O                      8.693735             7.594737             2.555653
| 19>   H                      9.183591             7.333835             3.340787
| 20>   H                      9.561195             9.357511             2.582736
| 21>   H                      10.656874            8.230546             1.817094
| 22>   H                      9.300392             8.859835             0.977610
| 23> *
| 24>
| 25> #Run DFT-D3 single point of the molecule with dimer basis set
| 26> $new_job
| 27> %base "10-200_DFT_A"
| 28> ! wB97X-D3 def2-TZVP TIGHTSCF CHELPG PMODEL
| 29>
| 30> %scf
| 31> MaxIter 1000
| 32> end
| 33>
| 34> * xyz 0 1
| 35>   C                      5.169187             9.006388             2.138986
| 36>   O                      6.436898             9.574413             2.560318
| 37>   H                      7.128505             8.930663             2.293660
| 38>   H                      5.060583             9.031501             1.009323
| 39>   H                      5.043537             7.992806             2.419703
| 40>   H                      4.286591             9.524246             2.577724
| 41>   C                    : 9.558170             8.529743             1.949500
| 42>   O                    : 8.693735             7.594737             2.555653
| 43>   H                    : 9.183591             7.333835             3.340787
| 44>   H                    : 9.561195             9.357511             2.582736
| 45>   H                    : 10.656874            8.230546             1.817094
| 46>   H                    : 9.300392             8.859835             0.977610
| 47> *
| 48>
| 49> #Run DFT-D3 single point of the particle with dimer basis set
| 50> $new_job
| 51> %base "10-200_DFT_B"
| 52> ! wB97X-D3 def2-TZVP TIGHTSCF CHELPG PMODEL
| 53>
| 54> %scf
| 55> MaxIter 1000
| 56> end
| 57>
| 58> * xyz 0 1
| 59>   C                    : 5.169187             9.006388             2.138986
| 60>   O                    : 6.436898             9.574413             2.560318
| 61>   H                    : 7.128505             8.930663             2.293660
| 62>   H                    : 5.060583             9.031501             1.009323
| 63>   H                    : 5.043537             7.992806             2.419703
| 64>   H                    : 4.286591             9.524246             2.577724
| 65>   C                      9.558170             8.529743             1.949500
| 66>   O                      8.693735             7.594737             2.555653
| 67>   H                      9.183591             7.333835             3.340787
| 68>   H                      9.561195             9.357511             2.582736
| 69>   H                      10.656874            8.230546             1.817094
| 70>   H                      9.300392             8.859835             0.977610
| 71> *
| 72>
| 73>                          ****END OF INPUT****
 Total Charge           Charge          ....    0
 Multiplicity           Mult            ....    1
 Number of Electrons    NEL             ....   36
Dispersion correction           -0.001736072
FINAL SINGLE POINT ENERGY      -231.466167701821
Dispersion correction           -0.000267167
FINAL SINGLE POINT ENERGY      -115.732468978204

CARTESIAN COORDINATES (ANGSTROEM)
---------------------------------
  C      5.169187    9.006388    2.138986
  O      6.436898    9.574413    2.560318
  H      7.128505    8.930663    2.293660
  H      5.060583    9.031501    1.009323
  H      5.043537    7.992806    2.419703
  H      4.286591    9.524246    2.577724
  C      9.558170    8.529743    1.949500
  O      8.693735    7.594737    2.555653
  H      9.183591    7.333835    3.340787
  H      9.561195    9.357511    2.582736
  H     10.656874    8.230546    1.817094
  H      9.300392    8.859835    0.977610

 Multiplicity           Mult            ....    1
 Number of Electrons    NEL             ....   18
 Basis Dimension        Dim             ....  172

ORBITAL ENERGIES
----------------

  NO   OCC          E(Eh)            E(eV)
   0   2.0000     -19.234519      -523.3979
   1   2.0000     -10.309156      -280.5264
   2   2.0000      -1.142574       -31.0910
   3   2.0000      -0.798873       -21.7384
   4   2.0000      -0.610725       -16.6187
   5   2.0000      -0.551071       -14.9954
   6   2.0000      -0.527622       -14.3573
   7   2.0000      -0.438436       -11.9304
   8   2.0000      -0.373739       -10.1699
   9   0.0000       0.097298         2.6476
  10   0.0000       0.121177         3.2974
  11   0.0000       0.150339         4.0909
  12   0.0000       0.187556         5.1037
  13   0.0000       0.198034         5.3888

MULLIKEN ATOMIC CHARGES
-----------------------
   0 C :   -0.001780
   1 O :   -0.004234
   2 H :    0.010595
   3 H :    0.000020
   4 H :   -0.000923
   5 H :   -0.000071
   6 C :   -0.189262
   7 O :   -0.468847
   8 H :    0.317120
   9 H :    0.116275
  10 H :    0.102293
  11 H :    0.118814
Sum of atomic charges:   -0.0000000

LOEWDIN ATOMIC CHARGES
----------------------
   0 C :   -0.001503
   1 O :   -0.003775
   2 H :   -0.026495
   3 H :   -0.000015
   4 H :   -0.000398
   5 H :   -0.000014
   6 C :   -0.387508
   7 O :   -0.049135
   8 H :    0.175503
   9 H :    0.087635
  10 H :    0.105098
  11 H :    0.100605

  Mayer bond orders larger than 0.1
B(  6-C ,  7-O ) :   0.9861 B(  6-C ,  9-H ) :   0.9911 B(  6-C , 10-H ) :   0.9656
B(  6-C , 11-H ) :   0.9771 B(  7-O ,  8-H ) :   0.8984

Dispersion correction           -0.000230221
FINAL SINGLE POINT ENERGY      -115.727729726569

DIPOLE MOMENT
-------------
                                X             Y             Z
Electronic contribution:     -1.37216      -1.24819       0.62044
Nuclear contribution   :      1.99808       1.46864      -0.37704
                        -----------------------------------------
Total Dipole Moment    :      0.62592       0.22045       0.24340
                        -----------------------------------------
Magnitude (a.u.)       :      0.70684
Magnitude (Debye)      :      1.79664

Rotational constants in cm-1:     4.473459     0.833211     0.802233
Rotational constants in MHz : 134110.940386 24979.034769 24050.354142

                             ****ORCA TERMINATED NORMALLY****
TOTAL RUN TIME: 0 days 0 hours 1 minutes 10 seconds 281 msec
