                         Program Version 4.1.2  - RELEASE  -
|  1> #Run DFT-D3 single point of the dimer
|  2> ! wB97X-D3 def2-TZVP TIGHTSCF CHELPG PMODEL PAL8
|  3>
|  4> %base "7-158_DFT_AB"
|  5>
|  6> %scf
|  7> MaxIter 1000
|  8> end
|  9>
| 10> * xyz 0 1
| 11>   C                      2.456452             -8.331689            -7.586011
| 12>   O                      2.874135             -8.174088            -6.283950
| 13>   H                      2.866683             -7.217742            -6.105022
| 14>   H                      1.521849             -7.794114            -7.665348
| 15>   H                      3.150249             -8.042174            -8.359437
| 16>   H                      2.292810             -9.379852            -7.728508
| 17>   C                      6.374255             -7.881901            -6.550287
| 18>   O                      6.066963             -7.715218            -7.897293
| 19>   H                      5.128069             -7.470143            -8.009709
| 20>   H                      7.222504             -8.546221            -6.360239
| 21>   H                      6.481127             -6.878615            -6.062109
| 22>   H                      5.539970             -8.372866            -6.058516
| 23> *
| 24>
| 25> #Run DFT-D3 single point of the molecule with dimer basis set
| 26> $new_job
| 27> %base "7-158_DFT_A"
| 28> ! wB97X-D3 def2-TZVP TIGHTSCF CHELPG PMODEL
| 29>
| 30> %scf
| 31> MaxIter 1000
| 32> end
| 33>
| 34> * xyz 0 1
| 35>   C                      2.456452             -8.331689            -7.586011
| 36>   O                      2.874135             -8.174088            -6.283950
| 37>   H                      2.866683             -7.217742            -6.105022
| 38>   H                      1.521849             -7.794114            -7.665348
| 39>   H                      3.150249             -8.042174            -8.359437
| 40>   H                      2.292810             -9.379852            -7.728508
| 41>   C                    : 6.374255             -7.881901            -6.550287
| 42>   O                    : 6.066963             -7.715218            -7.897293
| 43>   H                    : 5.128069             -7.470143            -8.009709
| 44>   H                    : 7.222504             -8.546221            -6.360239
| 45>   H                    : 6.481127             -6.878615            -6.062109
| 46>   H                    : 5.539970             -8.372866            -6.058516
| 47> *
| 48>
| 49> #Run DFT-D3 single point of the particle with dimer basis set
| 50> $new_job
| 51> %base "7-158_DFT_B"
| 52> ! wB97X-D3 def2-TZVP TIGHTSCF CHELPG PMODEL
| 53>
| 54> %scf
| 55> MaxIter 1000
| 56> end
| 57>
| 58> * xyz 0 1
| 59>   C                    : 2.456452             -8.331689            -7.586011
| 60>   O                    : 2.874135             -8.174088            -6.283950
| 61>   H                    : 2.866683             -7.217742            -6.105022
| 62>   H                    : 1.521849             -7.794114            -7.665348
| 63>   H                    : 3.150249             -8.042174            -8.359437
| 64>   H                    : 2.292810             -9.379852            -7.728508
| 65>   C                      6.374255             -7.881901            -6.550287
| 66>   O                      6.066963             -7.715218            -7.897293
| 67>   H                      5.128069             -7.470143            -8.009709
| 68>   H                      7.222504             -8.546221            -6.360239
| 69>   H                      6.481127             -6.878615            -6.062109
| 70>   H                      5.539970             -8.372866            -6.058516
| 71> *
| 72>
| 73>                          ****END OF INPUT****
 Total Charge           Charge          ....    0
 Multiplicity           Mult            ....    1
 Number of Electrons    NEL             ....   36
Dispersion correction           -0.002117961
FINAL SINGLE POINT ENERGY      -231.468447474968
Dispersion correction           -0.000211069
FINAL SINGLE POINT ENERGY      -115.733529984978

CARTESIAN COORDINATES (ANGSTROEM)
---------------------------------
  C      2.456452   -8.331689   -7.586011
  O      2.874135   -8.174088   -6.283950
  H      2.866683   -7.217742   -6.105022
  H      1.521849   -7.794114   -7.665348
  H      3.150249   -8.042174   -8.359437
  H      2.292810   -9.379852   -7.728508
  C      6.374255   -7.881901   -6.550287
  O      6.066963   -7.715218   -7.897293
  H      5.128069   -7.470143   -8.009709
  H      7.222504   -8.546221   -6.360239
  H      6.481127   -6.878615   -6.062109
  H      5.539970   -8.372866   -6.058516

 Multiplicity           Mult            ....    1
 Number of Electrons    NEL             ....   18
 Basis Dimension        Dim             ....  172

ORBITAL ENERGIES
----------------

  NO   OCC          E(Eh)            E(eV)
   0   2.0000     -19.229977      -523.2743
   1   2.0000     -10.313208      -280.6366
   2   2.0000      -1.138593       -30.9827
   3   2.0000      -0.792481       -21.5645
   4   2.0000      -0.613520       -16.6947
   5   2.0000      -0.546146       -14.8614
   6   2.0000      -0.529977       -14.4214
   7   2.0000      -0.425468       -11.5776
   8   2.0000      -0.370282       -10.0759
   9   0.0000       0.069214         1.8834
  10   0.0000       0.138293         3.7631
  11   0.0000       0.147058         4.0016
  12   0.0000       0.169441         4.6107
  13   0.0000       0.180896         4.9224

MULLIKEN ATOMIC CHARGES
-----------------------
   0 C :   -0.002585
   1 O :   -0.000060
   2 H :   -0.000095
   3 H :   -0.000044
   4 H :   -0.002623
   5 H :    0.000384
   6 C :   -0.160012
   7 O :   -0.474745
   8 H :    0.321273
   9 H :    0.121994
  10 H :    0.097773
  11 H :    0.098741
Sum of atomic charges:   -0.0000000

LOEWDIN ATOMIC CHARGES
----------------------
   0 C :   -0.006005
   1 O :   -0.003521
   2 H :   -0.000856
   3 H :   -0.000059
   4 H :   -0.005209
   5 H :   -0.000067
   6 C :   -0.402005
   7 O :   -0.065485
   8 H :    0.182805
   9 H :    0.107668
  10 H :    0.099542
  11 H :    0.093193

  Mayer bond orders larger than 0.1
B(  6-C ,  7-O ) :   0.9948 B(  6-C ,  9-H ) :   0.9675 B(  6-C , 10-H ) :   0.9820
B(  6-C , 11-H ) :   0.9821 B(  7-O ,  8-H ) :   0.8945

Dispersion correction           -0.000232679
FINAL SINGLE POINT ENERGY      -115.733324497215

DIPOLE MOMENT
-------------
                                X             Y             Z
Electronic contribution:     -0.14200       0.15670      -1.82516
Nuclear contribution   :     -0.34888      -0.09818       2.27678
                        -----------------------------------------
Total Dipole Moment    :     -0.49087       0.05852       0.45162
                        -----------------------------------------
Magnitude (a.u.)       :      0.66959
Magnitude (Debye)      :      1.70196

Rotational constants in cm-1:     4.270547     0.845851     0.819109
Rotational constants in MHz : 128027.786097 25357.987240 24556.260297

                             ****ORCA TERMINATED NORMALLY****
TOTAL RUN TIME: 0 days 0 hours 1 minutes 14 seconds 128 msec
