                         Program Version 4.1.2  - RELEASE  -
|  1> #Run DFT-D3 single point of the dimer
|  2> ! wB97X-D3 def2-TZVP TIGHTSCF CHELPG PMODEL PAL8
|  3>
|  4> %base "16-205_DFT_AB"
|  5>
|  6> %scf
|  7> MaxIter 1000
|  8> end
|  9>
| 10> * xyz 0 1
| 11>   C                      8.386589             -2.071084            0.136548
| 12>   O                      8.601120             -2.945565            1.138944
| 13>   H                      8.944620             -3.784595            0.801443
| 14>   H                      9.232089             -1.678624            -0.281873
| 15>   H                      7.906528             -2.696329            -0.613378
| 16>   H                      7.677471             -1.266587            0.351767
| 17>   C                      6.922900             -5.556759            0.074989
| 18>   O                      8.298759             -5.505430            0.194279
| 19>   H                      8.562982             -6.410591            0.330391
| 20>   H                      6.585637             -5.093060            -0.834594
| 21>   H                      6.477739             -6.565026            0.095750
| 22>   H                      6.474502             -4.883424            0.848829
| 23> *
| 24>
| 25> #Run DFT-D3 single point of the molecule with dimer basis set
| 26> $new_job
| 27> %base "16-205_DFT_A"
| 28> ! wB97X-D3 def2-TZVP TIGHTSCF CHELPG PMODEL
| 29>
| 30> %scf
| 31> MaxIter 1000
| 32> end
| 33>
| 34> * xyz 0 1
| 35>   C                      8.386589             -2.071084            0.136548
| 36>   O                      8.601120             -2.945565            1.138944
| 37>   H                      8.944620             -3.784595            0.801443
| 38>   H                      9.232089             -1.678624            -0.281873
| 39>   H                      7.906528             -2.696329            -0.613378
| 40>   H                      7.677471             -1.266587            0.351767
| 41>   C                    : 6.922900             -5.556759            0.074989
| 42>   O                    : 8.298759             -5.505430            0.194279
| 43>   H                    : 8.562982             -6.410591            0.330391
| 44>   H                    : 6.585637             -5.093060            -0.834594
| 45>   H                    : 6.477739             -6.565026            0.095750
| 46>   H                    : 6.474502             -4.883424            0.848829
| 47> *
| 48>
| 49> #Run DFT-D3 single point of the particle with dimer basis set
| 50> $new_job
| 51> %base "16-205_DFT_B"
| 52> ! wB97X-D3 def2-TZVP TIGHTSCF CHELPG PMODEL
| 53>
| 54> %scf
| 55> MaxIter 1000
| 56> end
| 57>
| 58> * xyz 0 1
| 59>   C                    : 8.386589             -2.071084            0.136548
| 60>   O                    : 8.601120             -2.945565            1.138944
| 61>   H                    : 8.944620             -3.784595            0.801443
| 62>   H                    : 9.232089             -1.678624            -0.281873
| 63>   H                    : 7.906528             -2.696329            -0.613378
| 64>   H                    : 7.677471             -1.266587            0.351767
| 65>   C                      6.922900             -5.556759            0.074989
| 66>   O                      8.298759             -5.505430            0.194279
| 67>   H                      8.562982             -6.410591            0.330391
| 68>   H                      6.585637             -5.093060            -0.834594
| 69>   H                      6.477739             -6.565026            0.095750
| 70>   H                      6.474502             -4.883424            0.848829
| 71> *
| 72>
| 73>                          ****END OF INPUT****
 Total Charge           Charge          ....    0
 Multiplicity           Mult            ....    1
 Number of Electrons    NEL             ....   36
Dispersion correction           -0.002176467
FINAL SINGLE POINT ENERGY      -231.464315648302
Dispersion correction           -0.000197617
FINAL SINGLE POINT ENERGY      -115.724246270914

CARTESIAN COORDINATES (ANGSTROEM)
---------------------------------
  C      8.386589   -2.071084    0.136548
  O      8.601120   -2.945565    1.138944
  H      8.944620   -3.784595    0.801443
  H      9.232089   -1.678624   -0.281873
  H      7.906528   -2.696329   -0.613378
  H      7.677471   -1.266587    0.351767
  C      6.922900   -5.556759    0.074989
  O      8.298759   -5.505430    0.194279
  H      8.562982   -6.410591    0.330391
  H      6.585637   -5.093060   -0.834594
  H      6.477739   -6.565026    0.095750
  H      6.474502   -4.883424    0.848829

 Multiplicity           Mult            ....    1
 Number of Electrons    NEL             ....   18
 Basis Dimension        Dim             ....  172

ORBITAL ENERGIES
----------------

  NO   OCC          E(Eh)            E(eV)
   0   2.0000     -19.232497      -523.3429
   1   2.0000     -10.311051      -280.5780
   2   2.0000      -1.151684       -31.3389
   3   2.0000      -0.793571       -21.5942
   4   2.0000      -0.620782       -16.8923
   5   2.0000      -0.537336       -14.6217
   6   2.0000      -0.534007       -14.5311
   7   2.0000      -0.441733       -12.0202
   8   2.0000      -0.368296       -10.0218
   9   0.0000       0.097072         2.6415
  10   0.0000       0.125314         3.4100
  11   0.0000       0.154872         4.2143
  12   0.0000       0.184042         5.0080
  13   0.0000       0.192620         5.2415

MULLIKEN ATOMIC CHARGES
-----------------------
   0 C :    0.000654
   1 O :    0.001431
   2 H :   -0.010545
   3 H :    0.000167
   4 H :    0.000681
   5 H :   -0.000279
   6 C :   -0.183178
   7 O :   -0.445568
   8 H :    0.313771
   9 H :    0.105767
  10 H :    0.112739
  11 H :    0.104361
Sum of atomic charges:    0.0000000

LOEWDIN ATOMIC CHARGES
----------------------
   0 C :   -0.003431
   1 O :   -0.006929
   2 H :   -0.040063
   3 H :   -0.000029
   4 H :   -0.001706
   5 H :   -0.000051
   6 C :   -0.412638
   7 O :   -0.006821
   8 H :    0.170323
   9 H :    0.095256
  10 H :    0.100309
  11 H :    0.105779

  Mayer bond orders larger than 0.1
B(  6-C ,  7-O ) :   1.0057 B(  6-C ,  9-H ) :   0.9786 B(  6-C , 10-H ) :   0.9750
B(  6-C , 11-H ) :   0.9843 B(  7-O ,  8-H ) :   0.9016

Dispersion correction           -0.000237837
FINAL SINGLE POINT ENERGY      -115.732301646668

DIPOLE MOMENT
-------------
                                X             Y             Z
Electronic contribution:      1.89950       0.07223       0.12866
Nuclear contribution   :     -2.23241      -0.69010      -0.10754
                        -----------------------------------------
Total Dipole Moment    :     -0.33291      -0.61787       0.02112
                        -----------------------------------------
Magnitude (a.u.)       :      0.70217
Magnitude (Debye)      :      1.78478

Rotational constants in cm-1:     4.302691     0.867681     0.824541
Rotational constants in MHz : 128991.430423 26012.413004 24719.119620

                             ****ORCA TERMINATED NORMALLY****
TOTAL RUN TIME: 0 days 0 hours 1 minutes 4 seconds 279 msec
