                         Program Version 4.1.2  - RELEASE  -
|  1> #Run DFT-D3 single point of the dimer
|  2> ! wB97X-D3 def2-TZVP TIGHTSCF CHELPG PMODEL PAL8
|  3>
|  4> %base "19-189_DFT_AB"
|  5>
|  6> %scf
|  7> MaxIter 1000
|  8> end
|  9>
| 10> * xyz 0 1
| 11>   C                      -0.662530            5.587864             -1.390040
| 12>   O                      -2.030832            5.697666             -1.408838
| 13>   H                      -2.366358            4.785537             -1.711224
| 14>   H                      -0.245533            6.622933             -1.406248
| 15>   H                      -0.230073            5.120611             -0.446615
| 16>   H                      -0.321573            5.166850             -2.353661
| 17>   C                      -4.588792            3.138124             -1.636857
| 18>   O                      -3.225731            3.052331             -1.798176
| 19>   H                      -2.739190            2.657665             -1.073676
| 20>   H                      -4.763914            3.379079             -0.588357
| 21>   H                      -4.966611            3.934520             -2.305763
| 22>   H                      -5.112813            2.244717             -1.828312
| 23> *
| 24>
| 25> #Run DFT-D3 single point of the molecule with dimer basis set
| 26> $new_job
| 27> %base "19-189_DFT_A"
| 28> ! wB97X-D3 def2-TZVP TIGHTSCF CHELPG PMODEL
| 29>
| 30> %scf
| 31> MaxIter 1000
| 32> end
| 33>
| 34> * xyz 0 1
| 35>   C                      -0.662530            5.587864             -1.390040
| 36>   O                      -2.030832            5.697666             -1.408838
| 37>   H                      -2.366358            4.785537             -1.711224
| 38>   H                      -0.245533            6.622933             -1.406248
| 39>   H                      -0.230073            5.120611             -0.446615
| 40>   H                      -0.321573            5.166850             -2.353661
| 41>   C                    : -4.588792            3.138124             -1.636857
| 42>   O                    : -3.225731            3.052331             -1.798176
| 43>   H                    : -2.739190            2.657665             -1.073676
| 44>   H                    : -4.763914            3.379079             -0.588357
| 45>   H                    : -4.966611            3.934520             -2.305763
| 46>   H                    : -5.112813            2.244717             -1.828312
| 47> *
| 48>
| 49> #Run DFT-D3 single point of the particle with dimer basis set
| 50> $new_job
| 51> %base "19-189_DFT_B"
| 52> ! wB97X-D3 def2-TZVP TIGHTSCF CHELPG PMODEL
| 53>
| 54> %scf
| 55> MaxIter 1000
| 56> end
| 57>
| 58> * xyz 0 1
| 59>   C                    : -0.662530            5.587864             -1.390040
| 60>   O                    : -2.030832            5.697666             -1.408838
| 61>   H                    : -2.366358            4.785537             -1.711224
| 62>   H                    : -0.245533            6.622933             -1.406248
| 63>   H                    : -0.230073            5.120611             -0.446615
| 64>   H                    : -0.321573            5.166850             -2.353661
| 65>   C                      -4.588792            3.138124             -1.636857
| 66>   O                      -3.225731            3.052331             -1.798176
| 67>   H                      -2.739190            2.657665             -1.073676
| 68>   H                      -4.763914            3.379079             -0.588357
| 69>   H                      -4.966611            3.934520             -2.305763
| 70>   H                      -5.112813            2.244717             -1.828312
| 71> *
| 72>
| 73>                          ****END OF INPUT****
 Total Charge           Charge          ....    0
 Multiplicity           Mult            ....    1
 Number of Electrons    NEL             ....   36
Dispersion correction           -0.001724648
FINAL SINGLE POINT ENERGY      -231.470632088022
Dispersion correction           -0.000237882
FINAL SINGLE POINT ENERGY      -115.729009095755

CARTESIAN COORDINATES (ANGSTROEM)
---------------------------------
  C     -0.662530    5.587864   -1.390040
  O     -2.030832    5.697666   -1.408838
  H     -2.366358    4.785537   -1.711224
  H     -0.245533    6.622933   -1.406248
  H     -0.230073    5.120611   -0.446615
  H     -0.321573    5.166850   -2.353661
  C     -4.588792    3.138124   -1.636857
  O     -3.225731    3.052331   -1.798176
  H     -2.739190    2.657665   -1.073676
  H     -4.763914    3.379079   -0.588357
  H     -4.966611    3.934520   -2.305763
  H     -5.112813    2.244717   -1.828312

 Multiplicity           Mult            ....    1
 Number of Electrons    NEL             ....   18
 Basis Dimension        Dim             ....  172

ORBITAL ENERGIES
----------------

  NO   OCC          E(Eh)            E(eV)
   0   2.0000     -19.224683      -523.1302
   1   2.0000     -10.306507      -280.4543
   2   2.0000      -1.143271       -31.1100
   3   2.0000      -0.799538       -21.7565
   4   2.0000      -0.621488       -16.9116
   5   2.0000      -0.547715       -14.9041
   6   2.0000      -0.535108       -14.5610
   7   2.0000      -0.421037       -11.4570
   8   2.0000      -0.369621       -10.0579
   9   0.0000       0.092750         2.5239
  10   0.0000       0.126511         3.4425
  11   0.0000       0.154522         4.2048
  12   0.0000       0.188801         5.1375
  13   0.0000       0.203633         5.5411

MULLIKEN ATOMIC CHARGES
-----------------------
   0 C :   -0.001677
   1 O :   -0.001871
   2 H :   -0.006033
   3 H :   -0.000185
   4 H :   -0.000067
   5 H :   -0.000422
   6 C :   -0.137550
   7 O :   -0.485473
   8 H :    0.320634
   9 H :    0.092492
  10 H :    0.118428
  11 H :    0.101726
Sum of atomic charges:   -0.0000000

LOEWDIN ATOMIC CHARGES
----------------------
   0 C :   -0.003064
   1 O :   -0.005155
   2 H :   -0.044495
   3 H :   -0.000065
   4 H :   -0.000162
   5 H :   -0.000311
   6 C :   -0.400749
   7 O :   -0.010155
   8 H :    0.169175
   9 H :    0.095447
  10 H :    0.113959
  11 H :    0.085574

  Mayer bond orders larger than 0.1
B(  6-C ,  7-O ) :   0.9812 B(  6-C ,  9-H ) :   0.9943 B(  6-C , 10-H ) :   0.9770
B(  6-C , 11-H ) :   0.9664 B(  7-O ,  8-H ) :   0.8898

Dispersion correction           -0.000228007
FINAL SINGLE POINT ENERGY      -115.732370870690

DIPOLE MOMENT
-------------
                                X             Y             Z
Electronic contribution:      1.68631      -0.12654      -0.36788
Nuclear contribution   :     -1.91068      -0.11570       0.91691
                        -----------------------------------------
Total Dipole Moment    :     -0.22437      -0.24224       0.54903
                        -----------------------------------------
Magnitude (a.u.)       :      0.64066
Magnitude (Debye)      :      1.62844

Rotational constants in cm-1:     4.436335     0.870912     0.833251
Rotational constants in MHz : 132997.968753 26109.297183 24980.232739

                             ****ORCA TERMINATED NORMALLY****
TOTAL RUN TIME: 0 days 0 hours 1 minutes 38 seconds 517 msec
