                         Program Version 4.1.2  - RELEASE  -
|  1> #Run DFT-D3 single point of the dimer
|  2> ! wB97X-D3 def2-TZVP TIGHTSCF CHELPG PMODEL PAL8
|  3>
|  4> %base "17-216_DFT_AB"
|  5>
|  6> %scf
|  7> MaxIter 1000
|  8> end
|  9>
| 10> * xyz 0 1
| 11>   C                      3.270100             3.122538             -7.130253
| 12>   O                      3.381538             2.572077             -5.852959
| 13>   H                      4.009754             3.136969             -5.411769
| 14>   H                      3.960779             3.980982             -7.247778
| 15>   H                      3.434063             2.453098             -7.943087
| 16>   H                      2.231694             3.476196             -7.282018
| 17>   C                      0.867542             3.912928             -3.182663
| 18>   O                      2.242398             3.624090             -3.323896
| 19>   H                      2.326476             3.199194             -4.209567
| 20>   H                      0.454290             2.951350             -2.958725
| 21>   H                      0.678797             4.536893             -2.275241
| 22>   H                      0.363630             4.368854             -4.072581
| 23> *
| 24>
| 25> #Run DFT-D3 single point of the molecule with dimer basis set
| 26> $new_job
| 27> %base "17-216_DFT_A"
| 28> ! wB97X-D3 def2-TZVP TIGHTSCF CHELPG PMODEL
| 29>
| 30> %scf
| 31> MaxIter 1000
| 32> end
| 33>
| 34> * xyz 0 1
| 35>   C                      3.270100             3.122538             -7.130253
| 36>   O                      3.381538             2.572077             -5.852959
| 37>   H                      4.009754             3.136969             -5.411769
| 38>   H                      3.960779             3.980982             -7.247778
| 39>   H                      3.434063             2.453098             -7.943087
| 40>   H                      2.231694             3.476196             -7.282018
| 41>   C                    : 0.867542             3.912928             -3.182663
| 42>   O                    : 2.242398             3.624090             -3.323896
| 43>   H                    : 2.326476             3.199194             -4.209567
| 44>   H                    : 0.454290             2.951350             -2.958725
| 45>   H                    : 0.678797             4.536893             -2.275241
| 46>   H                    : 0.363630             4.368854             -4.072581
| 47> *
| 48>
| 49> #Run DFT-D3 single point of the particle with dimer basis set
| 50> $new_job
| 51> %base "17-216_DFT_B"
| 52> ! wB97X-D3 def2-TZVP TIGHTSCF CHELPG PMODEL
| 53>
| 54> %scf
| 55> MaxIter 1000
| 56> end
| 57>
| 58> * xyz 0 1
| 59>   C                    : 3.270100             3.122538             -7.130253
| 60>   O                    : 3.381538             2.572077             -5.852959
| 61>   H                    : 4.009754             3.136969             -5.411769
| 62>   H                    : 3.960779             3.980982             -7.247778
| 63>   H                    : 3.434063             2.453098             -7.943087
| 64>   H                    : 2.231694             3.476196             -7.282018
| 65>   C                      0.867542             3.912928             -3.182663
| 66>   O                      2.242398             3.624090             -3.323896
| 67>   H                      2.326476             3.199194             -4.209567
| 68>   H                      0.454290             2.951350             -2.958725
| 69>   H                      0.678797             4.536893             -2.275241
| 70>   H                      0.363630             4.368854             -4.072581
| 71> *
| 72>
| 73>                          ****END OF INPUT****
 Total Charge           Charge          ....    0
 Multiplicity           Mult            ....    1
 Number of Electrons    NEL             ....   36
Dispersion correction           -0.001549176
FINAL SINGLE POINT ENERGY      -231.471205458756
Dispersion correction           -0.000234687
FINAL SINGLE POINT ENERGY      -115.733071000563

CARTESIAN COORDINATES (ANGSTROEM)
---------------------------------
  C      3.270100    3.122538   -7.130253
  O      3.381538    2.572077   -5.852959
  H      4.009754    3.136969   -5.411769
  H      3.960779    3.980982   -7.247778
  H      3.434063    2.453098   -7.943087
  H      2.231694    3.476196   -7.282018
  C      0.867542    3.912928   -3.182663
  O      2.242398    3.624090   -3.323896
  H      2.326476    3.199194   -4.209567
  H      0.454290    2.951350   -2.958725
  H      0.678797    4.536893   -2.275241
  H      0.363630    4.368854   -4.072581

 Multiplicity           Mult            ....    1
 Number of Electrons    NEL             ....   18
 Basis Dimension        Dim             ....  172

ORBITAL ENERGIES
----------------

  NO   OCC          E(Eh)            E(eV)
   0   2.0000     -19.231938      -523.3276
   1   2.0000     -10.314612      -280.6749
   2   2.0000      -1.134206       -30.8633
   3   2.0000      -0.789039       -21.4708
   4   2.0000      -0.605107       -16.4658
   5   2.0000      -0.545614       -14.8469
   6   2.0000      -0.524842       -14.2817
   7   2.0000      -0.434828       -11.8323
   8   2.0000      -0.369408       -10.0521
   9   0.0000       0.072307         1.9676
  10   0.0000       0.129804         3.5321
  11   0.0000       0.146611         3.9895
  12   0.0000       0.181116         4.9284
  13   0.0000       0.191114         5.2005

MULLIKEN ATOMIC CHARGES
-----------------------
   0 C :   -0.002400
   1 O :    0.000171
   2 H :   -0.001432
   3 H :    0.000265
   4 H :   -0.000099
   5 H :    0.000055
   6 C :   -0.171123
   7 O :   -0.467774
   8 H :    0.313030
   9 H :    0.108623
  10 H :    0.118287
  11 H :    0.102397
Sum of atomic charges:    0.0000000

LOEWDIN ATOMIC CHARGES
----------------------
   0 C :   -0.002684
   1 O :   -0.014653
   2 H :   -0.005470
   3 H :   -0.000046
   4 H :   -0.000074
   5 H :   -0.000256
   6 C :   -0.395353
   7 O :   -0.080537
   8 H :    0.194885
   9 H :    0.092418
  10 H :    0.112884
  11 H :    0.098886

  Mayer bond orders larger than 0.1
B(  6-C ,  7-O ) :   0.9861 B(  6-C ,  9-H ) :   0.9935 B(  6-C , 10-H ) :   0.9696
B(  6-C , 11-H ) :   0.9665 B(  7-O ,  8-H ) :   0.8993

Dispersion correction           -0.000229314
FINAL SINGLE POINT ENERGY      -115.731035151714

DIPOLE MOMENT
-------------
                                X             Y             Z
Electronic contribution:      1.78795      -0.21071      -0.09113
Nuclear contribution   :     -2.27663       0.05104      -0.38022
                        -----------------------------------------
Total Dipole Moment    :     -0.48869      -0.15968      -0.47134
                        -----------------------------------------
Magnitude (a.u.)       :      0.69748
Magnitude (Debye)      :      1.77285

Rotational constants in cm-1:     4.169019     0.839840     0.802557
Rotational constants in MHz : 124984.039164 25177.775859 24060.065254

                             ****ORCA TERMINATED NORMALLY****
TOTAL RUN TIME: 0 days 0 hours 1 minutes 6 seconds 676 msec
