                         Program Version 4.1.2  - RELEASE  -
|  1> #Run DFT-D3 single point of the dimer
|  2> ! wB97X-D3 def2-TZVP TIGHTSCF CHELPG PMODEL PAL8
|  3>
|  4> %base "1-114_DFT_AB"
|  5>
|  6> %scf
|  7> MaxIter 1000
|  8> end
|  9>
| 10> * xyz 0 1
| 11>   C                      4.888409             3.253564             1.564337
| 12>   O                      3.677006             2.583596             1.661210
| 13>   H                      3.206091             3.184549             2.313653
| 14>   H                      4.815171             4.370015             1.276239
| 15>   H                      5.420325             3.232220             2.517922
| 16>   H                      5.548820             2.761538             0.826897
| 17>   C                      5.533909             0.314360             -0.024660
| 18>   O                      4.522123             -0.423587            -0.586031
| 19>   H                      4.764438             -0.575927            -1.502596
| 20>   H                      6.543692             -0.082825            -0.075723
| 21>   H                      5.560384             1.281224             -0.434096
| 22>   H                      5.467227             0.403103             1.030028
| 23> *
| 24>
| 25> #Run DFT-D3 single point of the molecule with dimer basis set
| 26> $new_job
| 27> %base "1-114_DFT_A"
| 28> ! wB97X-D3 def2-TZVP TIGHTSCF CHELPG PMODEL
| 29>
| 30> %scf
| 31> MaxIter 1000
| 32> end
| 33>
| 34> * xyz 0 1
| 35>   C                      4.888409             3.253564             1.564337
| 36>   O                      3.677006             2.583596             1.661210
| 37>   H                      3.206091             3.184549             2.313653
| 38>   H                      4.815171             4.370015             1.276239
| 39>   H                      5.420325             3.232220             2.517922
| 40>   H                      5.548820             2.761538             0.826897
| 41>   C                    : 5.533909             0.314360             -0.024660
| 42>   O                    : 4.522123             -0.423587            -0.586031
| 43>   H                    : 4.764438             -0.575927            -1.502596
| 44>   H                    : 6.543692             -0.082825            -0.075723
| 45>   H                    : 5.560384             1.281224             -0.434096
| 46>   H                    : 5.467227             0.403103             1.030028
| 47> *
| 48>
| 49> #Run DFT-D3 single point of the particle with dimer basis set
| 50> $new_job
| 51> %base "1-114_DFT_B"
| 52> ! wB97X-D3 def2-TZVP TIGHTSCF CHELPG PMODEL
| 53>
| 54> %scf
| 55> MaxIter 1000
| 56> end
| 57>
| 58> * xyz 0 1
| 59>   C                    : 4.888409             3.253564             1.564337
| 60>   O                    : 3.677006             2.583596             1.661210
| 61>   H                    : 3.206091             3.184549             2.313653
| 62>   H                    : 4.815171             4.370015             1.276239
| 63>   H                    : 5.420325             3.232220             2.517922
| 64>   H                    : 5.548820             2.761538             0.826897
| 65>   C                      5.533909             0.314360             -0.024660
| 66>   O                      4.522123             -0.423587            -0.586031
| 67>   H                      4.764438             -0.575927            -1.502596
| 68>   H                      6.543692             -0.082825            -0.075723
| 69>   H                      5.560384             1.281224             -0.434096
| 70>   H                      5.467227             0.403103             1.030028
| 71> *
| 72>
| 73>                          ****END OF INPUT****
 Total Charge           Charge          ....    0
 Multiplicity           Mult            ....    1
 Number of Electrons    NEL             ....   36
Dispersion correction           -0.001859622
FINAL SINGLE POINT ENERGY      -231.458697610815
Dispersion correction           -0.000226900
FINAL SINGLE POINT ENERGY      -115.730411485554

CARTESIAN COORDINATES (ANGSTROEM)
---------------------------------
  C      4.888409    3.253564    1.564337
  O      3.677006    2.583596    1.661210
  H      3.206091    3.184549    2.313653
  H      4.815171    4.370015    1.276239
  H      5.420325    3.232220    2.517922
  H      5.548820    2.761538    0.826897
  C      5.533909    0.314360   -0.024660
  O      4.522123   -0.423587   -0.586031
  H      4.764438   -0.575927   -1.502596
  H      6.543692   -0.082825   -0.075723
  H      5.560384    1.281224   -0.434096
  H      5.467227    0.403103    1.030028

 Multiplicity           Mult            ....    1
 Number of Electrons    NEL             ....   18
 Basis Dimension        Dim             ....  172

ORBITAL ENERGIES
----------------

  NO   OCC          E(Eh)            E(eV)
   0   2.0000     -19.232674      -523.3477
   1   2.0000     -10.299280      -280.2577
   2   2.0000      -1.151036       -31.3213
   3   2.0000      -0.802842       -21.8464
   4   2.0000      -0.621479       -16.9113
   5   2.0000      -0.556280       -15.1371
   6   2.0000      -0.530843       -14.4450
   7   2.0000      -0.429817       -11.6959
   8   2.0000      -0.374638       -10.1944
   9   0.0000       0.089032         2.4227
  10   0.0000       0.119161         3.2425
  11   0.0000       0.156850         4.2681
  12   0.0000       0.174899         4.7592
  13   0.0000       0.187497         5.1021

MULLIKEN ATOMIC CHARGES
-----------------------
   0 C :   -0.002087
   1 O :    0.000683
   2 H :    0.000003
   3 H :   -0.000508
   4 H :    0.000179
   5 H :   -0.001736
   6 C :   -0.163687
   7 O :   -0.464136
   8 H :    0.318055
   9 H :    0.094226
  10 H :    0.101642
  11 H :    0.117365
Sum of atomic charges:   -0.0000000

LOEWDIN ATOMIC CHARGES
----------------------
   0 C :   -0.012110
   1 O :   -0.001356
   2 H :   -0.000057
   3 H :   -0.000100
   4 H :   -0.000275
   5 H :   -0.015064
   6 C :   -0.406177
   7 O :   -0.037678
   8 H :    0.175903
   9 H :    0.093974
  10 H :    0.095066
  11 H :    0.107873

  Mayer bond orders larger than 0.1
B(  6-C ,  7-O ) :   1.0052 B(  6-C ,  9-H ) :   0.9683 B(  6-C , 10-H ) :   0.9866
B(  6-C , 11-H ) :   0.9721 B(  7-O ,  8-H ) :   0.8970

Dispersion correction           -0.000223011
FINAL SINGLE POINT ENERGY      -115.730556216038

DIPOLE MOMENT
-------------
                                X             Y             Z
Electronic contribution:     -1.51728      -1.01189      -0.67809
Nuclear contribution   :      2.05239       1.18723       0.32336
                        -----------------------------------------
Total Dipole Moment    :      0.53511       0.17534      -0.35474
                        -----------------------------------------
Magnitude (a.u.)       :      0.66552
Magnitude (Debye)      :      1.69163

Rotational constants in cm-1:     4.657950     0.864547     0.837421
Rotational constants in MHz : 139641.832641 25918.474031 25105.247072

                             ****ORCA TERMINATED NORMALLY****
TOTAL RUN TIME: 0 days 0 hours 5 minutes 35 seconds 578 msec
