                         Program Version 4.1.2  - RELEASE  -
|  1> #Run DFT-D3 single point of the dimer
|  2> ! wB97X-D3 def2-TZVP TIGHTSCF CHELPG PMODEL PAL8
|  3>
|  4> %base "6-32_DFT_AB"
|  5>
|  6> %scf
|  7> MaxIter 1000
|  8> end
|  9>
| 10> * xyz 0 1
| 11>   C                      5.317093             -1.389465            9.829214
| 12>   O                      4.191214             -1.778297            9.136215
| 13>   H                      3.445085             -1.583899            9.711773
| 14>   H                      5.210921             -0.435185            10.318451
| 15>   H                      5.554928             -2.009631            10.720505
| 16>   H                      6.232359             -1.237325            9.223944
| 17>   C                      6.703492             0.396091             5.305588
| 18>   O                      5.442587             0.726832             5.796296
| 19>   H                      4.738979             0.132312             5.362893
| 20>   H                      6.654158             0.514180             4.212192
| 21>   H                      7.419029             1.101467             5.651365
| 22>   H                      6.987095             -0.656286            5.527411
| 23> *
| 24>
| 25> #Run DFT-D3 single point of the molecule with dimer basis set
| 26> $new_job
| 27> %base "6-32_DFT_A"
| 28> ! wB97X-D3 def2-TZVP TIGHTSCF CHELPG PMODEL
| 29>
| 30> %scf
| 31> MaxIter 1000
| 32> end
| 33>
| 34> * xyz 0 1
| 35>   C                      5.317093             -1.389465            9.829214
| 36>   O                      4.191214             -1.778297            9.136215
| 37>   H                      3.445085             -1.583899            9.711773
| 38>   H                      5.210921             -0.435185            10.318451
| 39>   H                      5.554928             -2.009631            10.720505
| 40>   H                      6.232359             -1.237325            9.223944
| 41>   C                    : 6.703492             0.396091             5.305588
| 42>   O                    : 5.442587             0.726832             5.796296
| 43>   H                    : 4.738979             0.132312             5.362893
| 44>   H                    : 6.654158             0.514180             4.212192
| 45>   H                    : 7.419029             1.101467             5.651365
| 46>   H                    : 6.987095             -0.656286            5.527411
| 47> *
| 48>
| 49> #Run DFT-D3 single point of the particle with dimer basis set
| 50> $new_job
| 51> %base "6-32_DFT_B"
| 52> ! wB97X-D3 def2-TZVP TIGHTSCF CHELPG PMODEL
| 53>
| 54> %scf
| 55> MaxIter 1000
| 56> end
| 57>
| 58> * xyz 0 1
| 59>   C                    : 5.317093             -1.389465            9.829214
| 60>   O                    : 4.191214             -1.778297            9.136215
| 61>   H                    : 3.445085             -1.583899            9.711773
| 62>   H                    : 5.210921             -0.435185            10.318451
| 63>   H                    : 5.554928             -2.009631            10.720505
| 64>   H                    : 6.232359             -1.237325            9.223944
| 65>   C                      6.703492             0.396091             5.305588
| 66>   O                      5.442587             0.726832             5.796296
| 67>   H                      4.738979             0.132312             5.362893
| 68>   H                      6.654158             0.514180             4.212192
| 69>   H                      7.419029             1.101467             5.651365
| 70>   H                      6.987095             -0.656286            5.527411
| 71> *
| 72>
| 73>                          ****END OF INPUT****
 Total Charge           Charge          ....    0
 Multiplicity           Mult            ....    1
 Number of Electrons    NEL             ....   36
Dispersion correction           -0.000883685
FINAL SINGLE POINT ENERGY      -231.463340381158
Dispersion correction           -0.000234213
FINAL SINGLE POINT ENERGY      -115.731014619661

CARTESIAN COORDINATES (ANGSTROEM)
---------------------------------
  C      5.317093   -1.389465    9.829214
  O      4.191214   -1.778297    9.136215
  H      3.445085   -1.583899    9.711773
  H      5.210921   -0.435185   10.318451
  H      5.554928   -2.009631   10.720505
  H      6.232359   -1.237325    9.223944
  C      6.703492    0.396091    5.305588
  O      5.442587    0.726832    5.796296
  H      4.738979    0.132312    5.362893
  H      6.654158    0.514180    4.212192
  H      7.419029    1.101467    5.651365
  H      6.987095   -0.656286    5.527411

 Multiplicity           Mult            ....    1
 Number of Electrons    NEL             ....   18
 Basis Dimension        Dim             ....  172

ORBITAL ENERGIES
----------------

  NO   OCC          E(Eh)            E(eV)
   0   2.0000     -19.232040      -523.3304
   1   2.0000     -10.309794      -280.5438
   2   2.0000      -1.131399       -30.7869
   3   2.0000      -0.789671       -21.4880
   4   2.0000      -0.606359       -16.4999
   5   2.0000      -0.542541       -14.7633
   6   2.0000      -0.533480       -14.5167
   7   2.0000      -0.428766       -11.6673
   8   2.0000      -0.367488        -9.9999
   9   0.0000       0.087709         2.3867
  10   0.0000       0.110713         3.0126
  11   0.0000       0.151013         4.1093
  12   0.0000       0.172953         4.7063
  13   0.0000       0.190331         5.1792

MULLIKEN ATOMIC CHARGES
-----------------------
   0 C :   -0.001797
   1 O :    0.000222
   2 H :    0.000025
   3 H :    0.000198
   4 H :   -0.000064
   5 H :    0.000039
   6 C :   -0.156079
   7 O :   -0.479137
   8 H :    0.318973
   9 H :    0.099286
  10 H :    0.123028
  11 H :    0.095306
Sum of atomic charges:    0.0000000

LOEWDIN ATOMIC CHARGES
----------------------
   0 C :   -0.000880
   1 O :   -0.000103
   2 H :   -0.000012
   3 H :   -0.000020
   4 H :   -0.000041
   5 H :   -0.000205
   6 C :   -0.403621
   7 O :   -0.089987
   8 H :    0.202038
   9 H :    0.095414
  10 H :    0.101893
  11 H :    0.095524

  Mayer bond orders larger than 0.1
B(  6-C ,  7-O ) :   0.9974 B(  6-C ,  9-H ) :   0.9860 B(  6-C , 10-H ) :   0.9705
B(  6-C , 11-H ) :   0.9727 B(  7-O ,  8-H ) :   0.8878

Dispersion correction           -0.000227307
FINAL SINGLE POINT ENERGY      -115.731698344423

DIPOLE MOMENT
-------------
                                X             Y             Z
Electronic contribution:     -1.46576       0.55264       0.83293
Nuclear contribution   :      1.52161      -1.02112      -1.29984
                        -----------------------------------------
Total Dipole Moment    :      0.05584      -0.46848      -0.46691
                        -----------------------------------------
Magnitude (a.u.)       :      0.66378
Magnitude (Debye)      :      1.68719

Rotational constants in cm-1:     4.178750     0.853269     0.820232
Rotational constants in MHz : 125275.788097 25580.362620 24589.937835

                             ****ORCA TERMINATED NORMALLY****
TOTAL RUN TIME: 0 days 0 hours 1 minutes 2 seconds 534 msec
