                         Program Version 4.1.2  - RELEASE  -
|  1> #Run DFT-D3 single point of the dimer
|  2> ! wB97X-D3 def2-TZVP TIGHTSCF CHELPG PMODEL PAL8
|  3>
|  4> %base "9-135_DFT_AB"
|  5>
|  6> %scf
|  7> MaxIter 1000
|  8> end
|  9>
| 10> * xyz 0 1
| 11>   C                      10.389711            -8.769899            -4.326606
| 12>   O                      11.677625            -9.006813            -3.959116
| 13>   H                      11.725297            -8.785940            -3.054777
| 14>   H                      10.124294            -7.708694            -4.468225
| 15>   H                      10.085817            -9.233700            -5.243036
| 16>   H                      9.714173             -9.174155            -3.544550
| 17>   C                      8.927187             -6.153948            -6.651087
| 18>   O                      9.742760             -7.079413            -7.334376
| 19>   H                      10.663905            -6.881292            -7.170989
| 20>   H                      8.980111             -6.173848            -5.565223
| 21>   H                      9.273247             -5.184317            -6.927304
| 22>   H                      7.899191             -6.134945            -6.937249
| 23> *
| 24>
| 25> #Run DFT-D3 single point of the molecule with dimer basis set
| 26> $new_job
| 27> %base "9-135_DFT_A"
| 28> ! wB97X-D3 def2-TZVP TIGHTSCF CHELPG PMODEL
| 29>
| 30> %scf
| 31> MaxIter 1000
| 32> end
| 33>
| 34> * xyz 0 1
| 35>   C                      10.389711            -8.769899            -4.326606
| 36>   O                      11.677625            -9.006813            -3.959116
| 37>   H                      11.725297            -8.785940            -3.054777
| 38>   H                      10.124294            -7.708694            -4.468225
| 39>   H                      10.085817            -9.233700            -5.243036
| 40>   H                      9.714173             -9.174155            -3.544550
| 41>   C                    : 8.927187             -6.153948            -6.651087
| 42>   O                    : 9.742760             -7.079413            -7.334376
| 43>   H                    : 10.663905            -6.881292            -7.170989
| 44>   H                    : 8.980111             -6.173848            -5.565223
| 45>   H                    : 9.273247             -5.184317            -6.927304
| 46>   H                    : 7.899191             -6.134945            -6.937249
| 47> *
| 48>
| 49> #Run DFT-D3 single point of the particle with dimer basis set
| 50> $new_job
| 51> %base "9-135_DFT_B"
| 52> ! wB97X-D3 def2-TZVP TIGHTSCF CHELPG PMODEL
| 53>
| 54> %scf
| 55> MaxIter 1000
| 56> end
| 57>
| 58> * xyz 0 1
| 59>   C                    : 10.389711            -8.769899            -4.326606
| 60>   O                    : 11.677625            -9.006813            -3.959116
| 61>   H                    : 11.725297            -8.785940            -3.054777
| 62>   H                    : 10.124294            -7.708694            -4.468225
| 63>   H                    : 10.085817            -9.233700            -5.243036
| 64>   H                    : 9.714173             -9.174155            -3.544550
| 65>   C                      8.927187             -6.153948            -6.651087
| 66>   O                      9.742760             -7.079413            -7.334376
| 67>   H                      10.663905            -6.881292            -7.170989
| 68>   H                      8.980111             -6.173848            -5.565223
| 69>   H                      9.273247             -5.184317            -6.927304
| 70>   H                      7.899191             -6.134945            -6.937249
| 71> *
| 72>
| 73>                          ****END OF INPUT****
 Total Charge           Charge          ....    0
 Multiplicity           Mult            ....    1
 Number of Electrons    NEL             ....   36
Dispersion correction           -0.001822547
FINAL SINGLE POINT ENERGY      -231.465278231990
Dispersion correction           -0.000216519
FINAL SINGLE POINT ENERGY      -115.731835518591

CARTESIAN COORDINATES (ANGSTROEM)
---------------------------------
  C     10.389711   -8.769899   -4.326606
  O     11.677625   -9.006813   -3.959116
  H     11.725297   -8.785940   -3.054777
  H     10.124294   -7.708694   -4.468225
  H     10.085817   -9.233700   -5.243036
  H      9.714173   -9.174155   -3.544550
  C      8.927187   -6.153948   -6.651087
  O      9.742760   -7.079413   -7.334376
  H     10.663905   -6.881292   -7.170989
  H      8.980111   -6.173848   -5.565223
  H      9.273247   -5.184317   -6.927304
  H      7.899191   -6.134945   -6.937249

 Multiplicity           Mult            ....    1
 Number of Electrons    NEL             ....   18
 Basis Dimension        Dim             ....  172

ORBITAL ENERGIES
----------------

  NO   OCC          E(Eh)            E(eV)
   0   2.0000     -19.230731      -523.2948
   1   2.0000     -10.306845      -280.4635
   2   2.0000      -1.137794       -30.9609
   3   2.0000      -0.803373       -21.8609
   4   2.0000      -0.615399       -16.7459
   5   2.0000      -0.541740       -14.7415
   6   2.0000      -0.536290       -14.5932
   7   2.0000      -0.431250       -11.7349
   8   2.0000      -0.373379       -10.1602
   9   0.0000       0.087250         2.3742
  10   0.0000       0.126818         3.4509
  11   0.0000       0.151003         4.1090
  12   0.0000       0.175687         4.7807
  13   0.0000       0.196498         5.3470

MULLIKEN ATOMIC CHARGES
-----------------------
   0 C :   -0.004830
   1 O :    0.000400
   2 H :    0.000022
   3 H :    0.002363
   4 H :   -0.002806
   5 H :   -0.000428
   6 C :   -0.165656
   7 O :   -0.474385
   8 H :    0.319608
   9 H :    0.098259
  10 H :    0.100362
  11 H :    0.127091
Sum of atomic charges:    0.0000000

LOEWDIN ATOMIC CHARGES
----------------------
   0 C :   -0.007843
   1 O :   -0.000028
   2 H :   -0.000009
   3 H :   -0.006130
   4 H :   -0.003971
   5 H :   -0.000076
   6 C :   -0.379127
   7 O :   -0.063163
   8 H :    0.168906
   9 H :    0.095250
  10 H :    0.091646
  11 H :    0.104545

  Mayer bond orders larger than 0.1
B(  6-C ,  7-O ) :   0.9941 B(  6-C ,  9-H ) :   0.9702 B(  6-C , 10-H ) :   0.9930
B(  6-C , 11-H ) :   0.9750 B(  7-O ,  8-H ) :   0.8954

Dispersion correction           -0.000236812
FINAL SINGLE POINT ENERGY      -115.731974256668

DIPOLE MOMENT
-------------
                                X             Y             Z
Electronic contribution:      0.86882      -1.39142      -0.92618
Nuclear contribution   :     -0.61422       1.92512       1.27821
                        -----------------------------------------
Total Dipole Moment    :      0.25459       0.53370       0.35203
                        -----------------------------------------
Magnitude (a.u.)       :      0.68817
Magnitude (Debye)      :      1.74918

Rotational constants in cm-1:     4.589246     0.828657     0.800518
Rotational constants in MHz : 137582.139907 24842.504879 23998.911692

                             ****ORCA TERMINATED NORMALLY****
TOTAL RUN TIME: 0 days 0 hours 0 minutes 44 seconds 457 msec
