                         Program Version 4.1.2  - RELEASE  -
|  1> #Run DFT-D3 single point of the dimer
|  2> ! wB97X-D3 def2-TZVP TIGHTSCF CHELPG PMODEL PAL8
|  3>
|  4> %base "20-26_DFT_AB"
|  5>
|  6> %scf
|  7> MaxIter 1000
|  8> end
|  9>
| 10> * xyz 0 1
| 11>   C                      7.022081             -8.326697            9.853911
| 12>   O                      7.322670             -8.141552            11.271273
| 13>   H                      6.715127             -8.811474            11.650271
| 14>   H                      7.204798             -7.429468            9.312744
| 15>   H                      7.707695             -9.087207            9.380179
| 16>   H                      5.996552             -8.662078            9.599881
| 17>   C                      3.521563             -8.395177            6.505984
| 18>   O                      2.803893             -7.956454            5.383226
| 19>   H                      2.484946             -7.127804            5.680847
| 20>   H                      2.867925             -8.568424            7.366260
| 21>   H                      3.884699             -9.352271            6.189371
| 22>   H                      4.433381             -7.748269            6.774794
| 23> *
| 24>
| 25> #Run DFT-D3 single point of the molecule with dimer basis set
| 26> $new_job
| 27> %base "20-26_DFT_A"
| 28> ! wB97X-D3 def2-TZVP TIGHTSCF CHELPG PMODEL
| 29>
| 30> %scf
| 31> MaxIter 1000
| 32> end
| 33>
| 34> * xyz 0 1
| 35>   C                      7.022081             -8.326697            9.853911
| 36>   O                      7.322670             -8.141552            11.271273
| 37>   H                      6.715127             -8.811474            11.650271
| 38>   H                      7.204798             -7.429468            9.312744
| 39>   H                      7.707695             -9.087207            9.380179
| 40>   H                      5.996552             -8.662078            9.599881
| 41>   C                    : 3.521563             -8.395177            6.505984
| 42>   O                    : 2.803893             -7.956454            5.383226
| 43>   H                    : 2.484946             -7.127804            5.680847
| 44>   H                    : 2.867925             -8.568424            7.366260
| 45>   H                    : 3.884699             -9.352271            6.189371
| 46>   H                    : 4.433381             -7.748269            6.774794
| 47> *
| 48>
| 49> #Run DFT-D3 single point of the particle with dimer basis set
| 50> $new_job
| 51> %base "20-26_DFT_B"
| 52> ! wB97X-D3 def2-TZVP TIGHTSCF CHELPG PMODEL
| 53>
| 54> %scf
| 55> MaxIter 1000
| 56> end
| 57>
| 58> * xyz 0 1
| 59>   C                    : 7.022081             -8.326697            9.853911
| 60>   O                    : 7.322670             -8.141552            11.271273
| 61>   H                    : 6.715127             -8.811474            11.650271
| 62>   H                    : 7.204798             -7.429468            9.312744
| 63>   H                    : 7.707695             -9.087207            9.380179
| 64>   H                    : 5.996552             -8.662078            9.599881
| 65>   C                      3.521563             -8.395177            6.505984
| 66>   O                      2.803893             -7.956454            5.383226
| 67>   H                      2.484946             -7.127804            5.680847
| 68>   H                      2.867925             -8.568424            7.366260
| 69>   H                      3.884699             -9.352271            6.189371
| 70>   H                      4.433381             -7.748269            6.774794
| 71> *
| 72>
| 73>                          ****END OF INPUT****
 Total Charge           Charge          ....    0
 Multiplicity           Mult            ....    1
 Number of Electrons    NEL             ....   36
Dispersion correction           -0.000881771
FINAL SINGLE POINT ENERGY      -231.462622358930
Dispersion correction           -0.000267013
FINAL SINGLE POINT ENERGY      -115.730400261327

CARTESIAN COORDINATES (ANGSTROEM)
---------------------------------
  C      7.022081   -8.326697    9.853911
  O      7.322670   -8.141552   11.271273
  H      6.715127   -8.811474   11.650271
  H      7.204798   -7.429468    9.312744
  H      7.707695   -9.087207    9.380179
  H      5.996552   -8.662078    9.599881
  C      3.521563   -8.395177    6.505984
  O      2.803893   -7.956454    5.383226
  H      2.484946   -7.127804    5.680847
  H      2.867925   -8.568424    7.366260
  H      3.884699   -9.352271    6.189371
  H      4.433381   -7.748269    6.774794

 Multiplicity           Mult            ....    1
 Number of Electrons    NEL             ....   18
 Basis Dimension        Dim             ....  172

ORBITAL ENERGIES
----------------

  NO   OCC          E(Eh)            E(eV)
   0   2.0000     -19.231022      -523.3027
   1   2.0000     -10.314831      -280.6808
   2   2.0000      -1.150382       -31.3035
   3   2.0000      -0.792128       -21.5549
   4   2.0000      -0.613421       -16.6920
   5   2.0000      -0.544638       -14.8204
   6   2.0000      -0.523478       -14.2446
   7   2.0000      -0.440520       -11.9872
   8   2.0000      -0.376866       -10.2551
   9   0.0000       0.081458         2.2166
  10   0.0000       0.117698         3.2027
  11   0.0000       0.141484         3.8500
  12   0.0000       0.167997         4.5714
  13   0.0000       0.191654         5.2152

MULLIKEN ATOMIC CHARGES
-----------------------
   0 C :    0.000112
   1 O :   -0.000007
   2 H :   -0.000002
   3 H :   -0.000136
   4 H :   -0.000028
   5 H :   -0.000242
   6 C :   -0.163795
   7 O :   -0.455734
   8 H :    0.308124
   9 H :    0.102960
  10 H :    0.113257
  11 H :    0.095491
Sum of atomic charges:    0.0000000

LOEWDIN ATOMIC CHARGES
----------------------
   0 C :   -0.000391
   1 O :   -0.000004
   2 H :   -0.000001
   3 H :   -0.000109
   4 H :   -0.000006
   5 H :   -0.000323
   6 C :   -0.402010
   7 O :   -0.054548
   8 H :    0.155690
   9 H :    0.094275
  10 H :    0.104218
  11 H :    0.103209

  Mayer bond orders larger than 0.1
B(  6-C ,  7-O ) :   1.0055 B(  6-C ,  9-H ) :   0.9729 B(  6-C , 10-H ) :   0.9797
B(  6-C , 11-H ) :   0.9678 B(  7-O ,  8-H ) :   0.9102

Dispersion correction           -0.000225396
FINAL SINGLE POINT ENERGY      -115.731940067777

DIPOLE MOMENT
-------------
                                X             Y             Z
Electronic contribution:     -0.94273       0.50030      -1.49664
Nuclear contribution   :      0.99903      -0.17626       2.08510
                        -----------------------------------------
Total Dipole Moment    :      0.05630       0.32404       0.58846
                        -----------------------------------------
Magnitude (a.u.)       :      0.67414
Magnitude (Debye)      :      1.71352

Rotational constants in cm-1:     4.176075     0.848283     0.825475
Rotational constants in MHz : 125195.573085 25430.892262 24747.110948

                             ****ORCA TERMINATED NORMALLY****
TOTAL RUN TIME: 0 days 0 hours 0 minutes 58 seconds 309 msec
