                         Program Version 4.1.2  - RELEASE  -
|  1> #Run DFT-D3 single point of the dimer
|  2> ! wB97X-D3 def2-TZVP TIGHTSCF CHELPG PMODEL PAL8
|  3>
|  4> %base "21-13_DFT_AB"
|  5>
|  6> %scf
|  7> MaxIter 1000
|  8> end
|  9>
| 10> * xyz 0 1
| 11>   C                      7.010154             -0.039045            -9.433605
| 12>   O                      8.270154             0.587972             -9.839625
| 13>   H                      8.487820             0.297724             -10.722834
| 14>   H                      6.245528             0.058010             -10.219982
| 15>   H                      7.161661             -1.110750            -9.489318
| 16>   H                      6.696794             0.214839             -8.443639
| 17>   C                      9.733848             5.729095             -8.103224
| 18>   O                      10.155146            5.046425             -9.199890
| 19>   H                      10.460093            4.157411             -8.977608
| 20>   H                      10.485140            6.467042             -7.724578
| 21>   H                      8.799637             6.380273             -8.238862
| 22>   H                      9.482330             5.100676             -7.208801
| 23> *
| 24>
| 25> #Run DFT-D3 single point of the molecule with dimer basis set
| 26> $new_job
| 27> %base "21-13_DFT_A"
| 28> ! wB97X-D3 def2-TZVP TIGHTSCF CHELPG PMODEL
| 29>
| 30> %scf
| 31> MaxIter 1000
| 32> end
| 33>
| 34> * xyz 0 1
| 35>   C                      7.010154             -0.039045            -9.433605
| 36>   O                      8.270154             0.587972             -9.839625
| 37>   H                      8.487820             0.297724             -10.722834
| 38>   H                      6.245528             0.058010             -10.219982
| 39>   H                      7.161661             -1.110750            -9.489318
| 40>   H                      6.696794             0.214839             -8.443639
| 41>   C                    : 9.733848             5.729095             -8.103224
| 42>   O                    : 10.155146            5.046425             -9.199890
| 43>   H                    : 10.460093            4.157411             -8.977608
| 44>   H                    : 10.485140            6.467042             -7.724578
| 45>   H                    : 8.799637             6.380273             -8.238862
| 46>   H                    : 9.482330             5.100676             -7.208801
| 47> *
| 48>
| 49> #Run DFT-D3 single point of the particle with dimer basis set
| 50> $new_job
| 51> %base "21-13_DFT_B"
| 52> ! wB97X-D3 def2-TZVP TIGHTSCF CHELPG PMODEL
| 53>
| 54> %scf
| 55> MaxIter 1000
| 56> end
| 57>
| 58> * xyz 0 1
| 59>   C                    : 7.010154             -0.039045            -9.433605
| 60>   O                    : 8.270154             0.587972             -9.839625
| 61>   H                    : 8.487820             0.297724             -10.722834
| 62>   H                    : 6.245528             0.058010             -10.219982
| 63>   H                    : 7.161661             -1.110750            -9.489318
| 64>   H                    : 6.696794             0.214839             -8.443639
| 65>   C                      9.733848             5.729095             -8.103224
| 66>   O                      10.155146            5.046425             -9.199890
| 67>   H                      10.460093            4.157411             -8.977608
| 68>   H                      10.485140            6.467042             -7.724578
| 69>   H                      8.799637             6.380273             -8.238862
| 70>   H                      9.482330             5.100676             -7.208801
| 71> *
| 72>
| 73>                          ****END OF INPUT****
 Total Charge           Charge          ....    0
 Multiplicity           Mult            ....    1
 Number of Electrons    NEL             ....   36
Dispersion correction           -0.000647639
FINAL SINGLE POINT ENERGY      -231.460265088111
Dispersion correction           -0.000245159
FINAL SINGLE POINT ENERGY      -115.729409543693

CARTESIAN COORDINATES (ANGSTROEM)
---------------------------------
  C      7.010154   -0.039045   -9.433605
  O      8.270154    0.587972   -9.839625
  H      8.487820    0.297724  -10.722834
  H      6.245528    0.058010  -10.219982
  H      7.161661   -1.110750   -9.489318
  H      6.696794    0.214839   -8.443639
  C      9.733848    5.729095   -8.103224
  O     10.155146    5.046425   -9.199890
  H     10.460093    4.157411   -8.977608
  H     10.485140    6.467042   -7.724578
  H      8.799637    6.380273   -8.238862
  H      9.482330    5.100676   -7.208801

 Multiplicity           Mult            ....    1
 Number of Electrons    NEL             ....   18
 Basis Dimension        Dim             ....  172

ORBITAL ENERGIES
----------------

  NO   OCC          E(Eh)            E(eV)
   0   2.0000     -19.235884      -523.4350
   1   2.0000     -10.319816      -280.8165
   2   2.0000      -1.154320       -31.4107
   3   2.0000      -0.789889       -21.4940
   4   2.0000      -0.626593       -17.0505
   5   2.0000      -0.537590       -14.6286
   6   2.0000      -0.533011       -14.5040
   7   2.0000      -0.423266       -11.5176
   8   2.0000      -0.369919       -10.0660
   9   0.0000       0.083868         2.2822
  10   0.0000       0.111951         3.0463
  11   0.0000       0.146262         3.9800
  12   0.0000       0.165391         4.5005
  13   0.0000       0.193178         5.2567

MULLIKEN ATOMIC CHARGES
-----------------------
   0 C :   -0.000028
   1 O :   -0.000011
   2 H :   -0.000007
   3 H :    0.000002
   4 H :    0.000001
   5 H :    0.000001
   6 C :   -0.170662
   7 O :   -0.462249
   8 H :    0.327663
   9 H :    0.098011
  10 H :    0.107180
  11 H :    0.100100
Sum of atomic charges:   -0.0000000

LOEWDIN ATOMIC CHARGES
----------------------
   0 C :   -0.000007
   1 O :   -0.000029
   2 H :   -0.000008
   3 H :   -0.000000
   4 H :   -0.000000
   5 H :   -0.000000
   6 C :   -0.449426
   7 O :   -0.034469
   8 H :    0.180873
   9 H :    0.095681
  10 H :    0.110053
  11 H :    0.097333

  Mayer bond orders larger than 0.1
B(  6-C ,  7-O ) :   1.0208 B(  6-C ,  9-H ) :   0.9730 B(  6-C , 10-H ) :   0.9692
B(  6-C , 11-H ) :   0.9805 B(  7-O ,  8-H ) :   0.8875

Dispersion correction           -0.000264678
FINAL SINGLE POINT ENERGY      -115.729969831205

DIPOLE MOMENT
-------------
                                X             Y             Z
Electronic contribution:      0.59445      -0.97911      -1.71965
Nuclear contribution   :     -0.54712       0.60939       2.26239
                        -----------------------------------------
Total Dipole Moment    :      0.04734      -0.36971       0.54275
                        -----------------------------------------
Magnitude (a.u.)       :      0.65841
Magnitude (Debye)      :      1.67355

Rotational constants in cm-1:     4.339106     0.855666     0.824087
Rotational constants in MHz : 130083.127542 25652.215457 24705.517079

                             ****ORCA TERMINATED NORMALLY****
TOTAL RUN TIME: 0 days 0 hours 0 minutes 50 seconds 714 msec
