                         Program Version 4.1.2  - RELEASE  -
|  1> #Run DFT-D3 single point of the dimer
|  2> ! wB97X-D3 def2-TZVP TIGHTSCF CHELPG PMODEL PAL8
|  3>
|  4> %base "21-71_DFT_AB"
|  5>
|  6> %scf
|  7> MaxIter 1000
|  8> end
|  9>
| 10> * xyz 0 1
| 11>   C                      3.842016             6.695679             2.250202
| 12>   O                      2.873278             7.246164             1.343030
| 13>   H                      3.031708             6.919436             0.425400
| 14>   H                      3.817862             5.565453             2.173094
| 15>   H                      4.822762             6.953849             1.878522
| 16>   H                      3.663193             7.138407             3.241986
| 17>   C                      0.717877             3.743836             0.867789
| 18>   O                      0.164363             4.019188             -0.425646
| 19>   H                      -0.707830            4.373202             -0.283996
| 20>   H                      0.209102             2.871142             1.298025
| 21>   H                      1.781979             3.422874             0.875334
| 22>   H                      0.556332             4.543657             1.505800
| 23> *
| 24>
| 25> #Run DFT-D3 single point of the molecule with dimer basis set
| 26> $new_job
| 27> %base "21-71_DFT_A"
| 28> ! wB97X-D3 def2-TZVP TIGHTSCF CHELPG PMODEL
| 29>
| 30> %scf
| 31> MaxIter 1000
| 32> end
| 33>
| 34> * xyz 0 1
| 35>   C                      3.842016             6.695679             2.250202
| 36>   O                      2.873278             7.246164             1.343030
| 37>   H                      3.031708             6.919436             0.425400
| 38>   H                      3.817862             5.565453             2.173094
| 39>   H                      4.822762             6.953849             1.878522
| 40>   H                      3.663193             7.138407             3.241986
| 41>   C                    : 0.717877             3.743836             0.867789
| 42>   O                    : 0.164363             4.019188             -0.425646
| 43>   H                    : -0.707830            4.373202             -0.283996
| 44>   H                    : 0.209102             2.871142             1.298025
| 45>   H                    : 1.781979             3.422874             0.875334
| 46>   H                    : 0.556332             4.543657             1.505800
| 47> *
| 48>
| 49> #Run DFT-D3 single point of the particle with dimer basis set
| 50> $new_job
| 51> %base "21-71_DFT_B"
| 52> ! wB97X-D3 def2-TZVP TIGHTSCF CHELPG PMODEL
| 53>
| 54> %scf
| 55> MaxIter 1000
| 56> end
| 57>
| 58> * xyz 0 1
| 59>   C                    : 3.842016             6.695679             2.250202
| 60>   O                    : 2.873278             7.246164             1.343030
| 61>   H                    : 3.031708             6.919436             0.425400
| 62>   H                    : 3.817862             5.565453             2.173094
| 63>   H                    : 4.822762             6.953849             1.878522
| 64>   H                    : 3.663193             7.138407             3.241986
| 65>   C                      0.717877             3.743836             0.867789
| 66>   O                      0.164363             4.019188             -0.425646
| 67>   H                      -0.707830            4.373202             -0.283996
| 68>   H                      0.209102             2.871142             1.298025
| 69>   H                      1.781979             3.422874             0.875334
| 70>   H                      0.556332             4.543657             1.505800
| 71> *
| 72>
| 73>                          ****END OF INPUT****
 Total Charge           Charge          ....    0
 Multiplicity           Mult            ....    1
 Number of Electrons    NEL             ....   36
Dispersion correction           -0.001256498
FINAL SINGLE POINT ENERGY      -231.465186155693
Dispersion correction           -0.000238932
FINAL SINGLE POINT ENERGY      -115.732269498633

CARTESIAN COORDINATES (ANGSTROEM)
---------------------------------
  C      3.842016    6.695679    2.250202
  O      2.873278    7.246164    1.343030
  H      3.031708    6.919436    0.425400
  H      3.817862    5.565453    2.173094
  H      4.822762    6.953849    1.878522
  H      3.663193    7.138407    3.241986
  C      0.717877    3.743836    0.867789
  O      0.164363    4.019188   -0.425646
  H     -0.707830    4.373202   -0.283996
  H      0.209102    2.871142    1.298025
  H      1.781979    3.422874    0.875334
  H      0.556332    4.543657    1.505800

 Multiplicity           Mult            ....    1
 Number of Electrons    NEL             ....   18
 Basis Dimension        Dim             ....  172

ORBITAL ENERGIES
----------------

  NO   OCC          E(Eh)            E(eV)
   0   2.0000     -19.228453      -523.2328
   1   2.0000     -10.310734      -280.5693
   2   2.0000      -1.132092       -30.8058
   3   2.0000      -0.799888       -21.7661
   4   2.0000      -0.609750       -16.5921
   5   2.0000      -0.544947       -14.8288
   6   2.0000      -0.525463       -14.2986
   7   2.0000      -0.435973       -11.8634
   8   2.0000      -0.372399       -10.1335
   9   0.0000       0.085078         2.3151
  10   0.0000       0.118371         3.2210
  11   0.0000       0.151256         4.1159
  12   0.0000       0.168077         4.5736
  13   0.0000       0.181529         4.9397

MULLIKEN ATOMIC CHARGES
-----------------------
   0 C :   -0.000145
   1 O :    0.000242
   2 H :   -0.000019
   3 H :   -0.000652
   4 H :   -0.000028
   5 H :   -0.000031
   6 C :   -0.172621
   7 O :   -0.478611
   8 H :    0.313988
   9 H :    0.100698
  10 H :    0.122076
  11 H :    0.115104
Sum of atomic charges:    0.0000000

LOEWDIN ATOMIC CHARGES
----------------------
   0 C :   -0.000574
   1 O :   -0.000094
   2 H :   -0.000165
   3 H :   -0.000617
   4 H :   -0.000008
   5 H :   -0.000009
   6 C :   -0.366801
   7 O :   -0.088666
   8 H :    0.163294
   9 H :    0.096625
  10 H :    0.114205
  11 H :    0.082810

  Mayer bond orders larger than 0.1
B(  6-C ,  7-O ) :   0.9905 B(  6-C ,  9-H ) :   0.9786 B(  6-C , 10-H ) :   0.9715
B(  6-C , 11-H ) :   0.9806 B(  7-O ,  8-H ) :   0.9007

Dispersion correction           -0.000234698
FINAL SINGLE POINT ENERGY      -115.731185498779

DIPOLE MOMENT
-------------
                                X             Y             Z
Electronic contribution:     -0.51279       0.43302      -1.71380
Nuclear contribution   :      0.18724      -0.32085       2.35174
                        -----------------------------------------
Total Dipole Moment    :     -0.32555       0.11217       0.63794
                        -----------------------------------------
Magnitude (a.u.)       :      0.72494
Magnitude (Debye)      :      1.84265

Rotational constants in cm-1:     4.441938     0.814403     0.782760
Rotational constants in MHz : 133165.938636 24415.191734 23466.566767

                             ****ORCA TERMINATED NORMALLY****
TOTAL RUN TIME: 0 days 0 hours 1 minutes 4 seconds 410 msec
