                         Program Version 4.1.2  - RELEASE  -
|  1> #Run DFT-D3 single point of the dimer
|  2> ! wB97X-D3 def2-TZVP TIGHTSCF CHELPG PMODEL PAL8
|  3>
|  4> %base "7-200_DFT_AB"
|  5>
|  6> %scf
|  7> MaxIter 1000
|  8> end
|  9>
| 10> * xyz 0 1
| 11>   C                      -10.607702           -6.279182            4.956583
| 12>   O                      -9.962878            -5.256019            4.217466
| 13>   H                      -9.160693            -5.027956            4.776524
| 14>   H                      -10.191750           -7.315485            4.792045
| 15>   H                      -10.521289           -6.060253            6.014975
| 16>   H                      -11.670653           -6.322046            4.700460
| 17>   C                      -8.587811            -5.711729            1.015743
| 18>   O                      -8.651256            -4.413905            1.663705
| 19>   H                      -9.360045            -4.427384            2.373298
| 20>   H                      -8.050251            -6.443600            1.630989
| 21>   H                      -9.606779            -6.084682            0.823730
| 22>   H                      -8.036534            -5.691645            0.135173
| 23> *
| 24>
| 25> #Run DFT-D3 single point of the molecule with dimer basis set
| 26> $new_job
| 27> %base "7-200_DFT_A"
| 28> ! wB97X-D3 def2-TZVP TIGHTSCF CHELPG PMODEL
| 29>
| 30> %scf
| 31> MaxIter 1000
| 32> end
| 33>
| 34> * xyz 0 1
| 35>   C                      -10.607702           -6.279182            4.956583
| 36>   O                      -9.962878            -5.256019            4.217466
| 37>   H                      -9.160693            -5.027956            4.776524
| 38>   H                      -10.191750           -7.315485            4.792045
| 39>   H                      -10.521289           -6.060253            6.014975
| 40>   H                      -11.670653           -6.322046            4.700460
| 41>   C                    : -8.587811            -5.711729            1.015743
| 42>   O                    : -8.651256            -4.413905            1.663705
| 43>   H                    : -9.360045            -4.427384            2.373298
| 44>   H                    : -8.050251            -6.443600            1.630989
| 45>   H                    : -9.606779            -6.084682            0.823730
| 46>   H                    : -8.036534            -5.691645            0.135173
| 47> *
| 48>
| 49> #Run DFT-D3 single point of the particle with dimer basis set
| 50> $new_job
| 51> %base "7-200_DFT_B"
| 52> ! wB97X-D3 def2-TZVP TIGHTSCF CHELPG PMODEL
| 53>
| 54> %scf
| 55> MaxIter 1000
| 56> end
| 57>
| 58> * xyz 0 1
| 59>   C                    : -10.607702           -6.279182            4.956583
| 60>   O                    : -9.962878            -5.256019            4.217466
| 61>   H                    : -9.160693            -5.027956            4.776524
| 62>   H                    : -10.191750           -7.315485            4.792045
| 63>   H                    : -10.521289           -6.060253            6.014975
| 64>   H                    : -11.670653           -6.322046            4.700460
| 65>   C                      -8.587811            -5.711729            1.015743
| 66>   O                      -8.651256            -4.413905            1.663705
| 67>   H                      -9.360045            -4.427384            2.373298
| 68>   H                      -8.050251            -6.443600            1.630989
| 69>   H                      -9.606779            -6.084682            0.823730
| 70>   H                      -8.036534            -5.691645            0.135173
| 71> *
| 72>
| 73>                          ****END OF INPUT****
 Total Charge           Charge          ....    0
 Multiplicity           Mult            ....    1
 Number of Electrons    NEL             ....   36
Dispersion correction           -0.001698974
FINAL SINGLE POINT ENERGY      -231.471994306010
Dispersion correction           -0.000244282
FINAL SINGLE POINT ENERGY      -115.733528489104

CARTESIAN COORDINATES (ANGSTROEM)
---------------------------------
  C    -10.607702   -6.279182    4.956583
  O     -9.962878   -5.256019    4.217466
  H     -9.160693   -5.027956    4.776524
  H    -10.191750   -7.315485    4.792045
  H    -10.521289   -6.060253    6.014975
  H    -11.670653   -6.322046    4.700460
  C     -8.587811   -5.711729    1.015743
  O     -8.651256   -4.413905    1.663705
  H     -9.360045   -4.427384    2.373298
  H     -8.050251   -6.443600    1.630989
  H     -9.606779   -6.084682    0.823730
  H     -8.036534   -5.691645    0.135173

 Multiplicity           Mult            ....    1
 Number of Electrons    NEL             ....   18
 Basis Dimension        Dim             ....  172

ORBITAL ENERGIES
----------------

  NO   OCC          E(Eh)            E(eV)
   0   2.0000     -19.233262      -523.3637
   1   2.0000     -10.311992      -280.6036
   2   2.0000      -1.115641       -30.3581
   3   2.0000      -0.799602       -21.7583
   4   2.0000      -0.597455       -16.2576
   5   2.0000      -0.538622       -14.6566
   6   2.0000      -0.529586       -14.4108
   7   2.0000      -0.433282       -11.7902
   8   2.0000      -0.372679       -10.1411
   9   0.0000       0.070280         1.9124
  10   0.0000       0.124492         3.3876
  11   0.0000       0.145290         3.9535
  12   0.0000       0.167655         4.5621
  13   0.0000       0.191765         5.2182

MULLIKEN ATOMIC CHARGES
-----------------------
   0 C :   -0.000813
   1 O :   -0.004848
   2 H :   -0.002146
   3 H :   -0.000069
   4 H :    0.000052
   5 H :    0.000045
   6 C :   -0.165116
   7 O :   -0.484336
   8 H :    0.319617
   9 H :    0.103515
  10 H :    0.104507
  11 H :    0.129593
Sum of atomic charges:    0.0000000

LOEWDIN ATOMIC CHARGES
----------------------
   0 C :   -0.001204
   1 O :   -0.015361
   2 H :   -0.002838
   3 H :   -0.000051
   4 H :   -0.000029
   5 H :   -0.000036
   6 C :   -0.352987
   7 O :   -0.114898
   8 H :    0.195672
   9 H :    0.097188
  10 H :    0.099655
  11 H :    0.094888

  Mayer bond orders larger than 0.1
B(  6-C ,  7-O ) :   0.9962 B(  6-C ,  9-H ) :   0.9745 B(  6-C , 10-H ) :   0.9829
B(  6-C , 11-H ) :   0.9736 B(  7-O ,  8-H ) :   0.8946

Dispersion correction           -0.000260540
FINAL SINGLE POINT ENERGY      -115.731377683363

DIPOLE MOMENT
-------------
                                X             Y             Z
Electronic contribution:      0.06218       1.70387       0.60873
Nuclear contribution   :     -0.45729      -2.25861      -0.47147
                        -----------------------------------------
Total Dipole Moment    :     -0.39511      -0.55474       0.13726
                        -----------------------------------------
Magnitude (a.u.)       :      0.69476
Magnitude (Debye)      :      1.76594

Rotational constants in cm-1:     4.350946     0.792759     0.764196
Rotational constants in MHz : 130438.093396 23766.310732 22910.020856

                             ****ORCA TERMINATED NORMALLY****
TOTAL RUN TIME: 0 days 0 hours 1 minutes 6 seconds 36 msec
