                         Program Version 4.1.2  - RELEASE  -
|  1> #Run DFT-D3 single point of the dimer
|  2> ! wB97X-D3 def2-TZVP TIGHTSCF CHELPG PMODEL PAL8
|  3>
|  4> %base "14-179_DFT_AB"
|  5>
|  6> %scf
|  7> MaxIter 1000
|  8> end
|  9>
| 10> * xyz 0 1
| 11>   C                      7.607285             -5.451688            -4.193756
| 12>   O                      8.840122             -5.024464            -4.757572
| 13>   H                      9.236338             -4.323014            -4.290223
| 14>   H                      7.692302             -5.746558            -3.175119
| 15>   H                      6.876736             -4.628547            -4.298297
| 16>   H                      7.263589             -6.399799            -4.644602
| 17>   C                      11.213368            -3.650369            -2.198534
| 18>   O                      10.073451            -3.009435            -2.593356
| 19>   H                      10.218555            -2.154800            -2.998738
| 20>   H                      11.842974            -3.847001            -3.042106
| 21>   H                      11.816989            -3.031146            -1.530692
| 22>   H                      11.057365            -4.625770            -1.796941
| 23> *
| 24>
| 25> #Run DFT-D3 single point of the molecule with dimer basis set
| 26> $new_job
| 27> %base "14-179_DFT_A"
| 28> ! wB97X-D3 def2-TZVP TIGHTSCF CHELPG PMODEL
| 29>
| 30> %scf
| 31> MaxIter 1000
| 32> end
| 33>
| 34> * xyz 0 1
| 35>   C                      7.607285             -5.451688            -4.193756
| 36>   O                      8.840122             -5.024464            -4.757572
| 37>   H                      9.236338             -4.323014            -4.290223
| 38>   H                      7.692302             -5.746558            -3.175119
| 39>   H                      6.876736             -4.628547            -4.298297
| 40>   H                      7.263589             -6.399799            -4.644602
| 41>   C                    : 11.213368            -3.650369            -2.198534
| 42>   O                    : 10.073451            -3.009435            -2.593356
| 43>   H                    : 10.218555            -2.154800            -2.998738
| 44>   H                    : 11.842974            -3.847001            -3.042106
| 45>   H                    : 11.816989            -3.031146            -1.530692
| 46>   H                    : 11.057365            -4.625770            -1.796941
| 47> *
| 48>
| 49> #Run DFT-D3 single point of the particle with dimer basis set
| 50> $new_job
| 51> %base "14-179_DFT_B"
| 52> ! wB97X-D3 def2-TZVP TIGHTSCF CHELPG PMODEL
| 53>
| 54> %scf
| 55> MaxIter 1000
| 56> end
| 57>
| 58> * xyz 0 1
| 59>   C                    : 7.607285             -5.451688            -4.193756
| 60>   O                    : 8.840122             -5.024464            -4.757572
| 61>   H                    : 9.236338             -4.323014            -4.290223
| 62>   H                    : 7.692302             -5.746558            -3.175119
| 63>   H                    : 6.876736             -4.628547            -4.298297
| 64>   H                    : 7.263589             -6.399799            -4.644602
| 65>   C                      11.213368            -3.650369            -2.198534
| 66>   O                      10.073451            -3.009435            -2.593356
| 67>   H                      10.218555            -2.154800            -2.998738
| 68>   H                      11.842974            -3.847001            -3.042106
| 69>   H                      11.816989            -3.031146            -1.530692
| 70>   H                      11.057365            -4.625770            -1.796941
| 71> *
| 72>
| 73>                          ****END OF INPUT****
 Total Charge           Charge          ....    0
 Multiplicity           Mult            ....    1
 Number of Electrons    NEL             ....   36
Dispersion correction           -0.001712804
FINAL SINGLE POINT ENERGY      -231.471542599876
Dispersion correction           -0.000248627
FINAL SINGLE POINT ENERGY      -115.732843666283

CARTESIAN COORDINATES (ANGSTROEM)
---------------------------------
  C      7.607285   -5.451688   -4.193756
  O      8.840122   -5.024464   -4.757572
  H      9.236338   -4.323014   -4.290223
  H      7.692302   -5.746558   -3.175119
  H      6.876736   -4.628547   -4.298297
  H      7.263589   -6.399799   -4.644602
  C     11.213368   -3.650369   -2.198534
  O     10.073451   -3.009435   -2.593356
  H     10.218555   -2.154800   -2.998738
  H     11.842974   -3.847001   -3.042106
  H     11.816989   -3.031146   -1.530692
  H     11.057365   -4.625770   -1.796941

 Multiplicity           Mult            ....    1
 Number of Electrons    NEL             ....   18
 Basis Dimension        Dim             ....  172

ORBITAL ENERGIES
----------------

  NO   OCC          E(Eh)            E(eV)
   0   2.0000     -19.227352      -523.2028
   1   2.0000     -10.303988      -280.3858
   2   2.0000      -1.148054       -31.2401
   3   2.0000      -0.802325       -21.8324
   4   2.0000      -0.623905       -16.9773
   5   2.0000      -0.549727       -14.9588
   6   2.0000      -0.537366       -14.6225
   7   2.0000      -0.424425       -11.5492
   8   2.0000      -0.368373       -10.0240
   9   0.0000       0.096780         2.6335
  10   0.0000       0.123456         3.3594
  11   0.0000       0.154033         4.1915
  12   0.0000       0.188319         5.1244
  13   0.0000       0.195813         5.3283

MULLIKEN ATOMIC CHARGES
-----------------------
   0 C :    0.001939
   1 O :    0.000049
   2 H :   -0.010485
   3 H :   -0.001121
   4 H :   -0.000472
   5 H :   -0.000115
   6 C :   -0.140919
   7 O :   -0.480297
   8 H :    0.321093
   9 H :    0.096764
  10 H :    0.094675
  11 H :    0.118888
Sum of atomic charges:    0.0000000

LOEWDIN ATOMIC CHARGES
----------------------
   0 C :   -0.002013
   1 O :   -0.002013
   2 H :   -0.021151
   3 H :   -0.000260
   4 H :   -0.000135
   5 H :   -0.000032
   6 C :   -0.412709
   7 O :   -0.022519
   8 H :    0.171373
   9 H :    0.089951
  10 H :    0.094511
  11 H :    0.104997

  Mayer bond orders larger than 0.1
B(  6-C ,  7-O ) :   0.9845 B(  6-C ,  9-H ) :   0.9859 B(  6-C , 10-H ) :   0.9780
B(  6-C , 11-H ) :   0.9723 B(  7-O ,  8-H ) :   0.8896

Dispersion correction           -0.000224856
FINAL SINGLE POINT ENERGY      -115.732105562502

DIPOLE MOMENT
-------------
                                X             Y             Z
Electronic contribution:     -1.64728       0.72617      -0.38562
Nuclear contribution   :      2.19506      -0.42348       0.26612
                        -----------------------------------------
Total Dipole Moment    :      0.54778       0.30268      -0.11950
                        -----------------------------------------
Magnitude (a.u.)       :      0.63715
Magnitude (Debye)      :      1.61950

Rotational constants in cm-1:     4.576394     0.871071     0.838499
Rotational constants in MHz : 137196.846451 26114.061215 25137.565828

                             ****ORCA TERMINATED NORMALLY****
TOTAL RUN TIME: 0 days 0 hours 1 minutes 3 seconds 17 msec
