                         Program Version 4.1.2  - RELEASE  -
|  1> #Run DFT-D3 single point of the dimer
|  2> ! wB97X-D3 def2-TZVP TIGHTSCF CHELPG PMODEL PAL8
|  3>
|  4> %base "7-40_DFT_AB"
|  5>
|  6> %scf
|  7> MaxIter 1000
|  8> end
|  9>
| 10> * xyz 0 1
| 11>   C                      4.287323             3.811473             -10.095497
| 12>   O                      5.437001             3.561698             -10.899745
| 13>   H                      5.610883             2.637790             -10.816381
| 14>   H                      3.601199             4.500166             -10.683801
| 15>   H                      3.740410             2.909689             -9.881101
| 16>   H                      4.471084             4.301608             -9.117160
| 17>   C                      7.325331             2.009467             -5.670389
| 18>   O                      8.123914             3.177363             -5.456329
| 19>   H                      8.504712             3.416685             -6.307594
| 20>   H                      7.783440             1.398973             -6.538827
| 21>   H                      7.272963             1.471149             -4.685019
| 22>   H                      6.357954             2.178051             -6.023412
| 23> *
| 24>
| 25> #Run DFT-D3 single point of the molecule with dimer basis set
| 26> $new_job
| 27> %base "7-40_DFT_A"
| 28> ! wB97X-D3 def2-TZVP TIGHTSCF CHELPG PMODEL
| 29>
| 30> %scf
| 31> MaxIter 1000
| 32> end
| 33>
| 34> * xyz 0 1
| 35>   C                      4.287323             3.811473             -10.095497
| 36>   O                      5.437001             3.561698             -10.899745
| 37>   H                      5.610883             2.637790             -10.816381
| 38>   H                      3.601199             4.500166             -10.683801
| 39>   H                      3.740410             2.909689             -9.881101
| 40>   H                      4.471084             4.301608             -9.117160
| 41>   C                    : 7.325331             2.009467             -5.670389
| 42>   O                    : 8.123914             3.177363             -5.456329
| 43>   H                    : 8.504712             3.416685             -6.307594
| 44>   H                    : 7.783440             1.398973             -6.538827
| 45>   H                    : 7.272963             1.471149             -4.685019
| 46>   H                    : 6.357954             2.178051             -6.023412
| 47> *
| 48>
| 49> #Run DFT-D3 single point of the particle with dimer basis set
| 50> $new_job
| 51> %base "7-40_DFT_B"
| 52> ! wB97X-D3 def2-TZVP TIGHTSCF CHELPG PMODEL
| 53>
| 54> %scf
| 55> MaxIter 1000
| 56> end
| 57>
| 58> * xyz 0 1
| 59>   C                    : 4.287323             3.811473             -10.095497
| 60>   O                    : 5.437001             3.561698             -10.899745
| 61>   H                    : 5.610883             2.637790             -10.816381
| 62>   H                    : 3.601199             4.500166             -10.683801
| 63>   H                    : 3.740410             2.909689             -9.881101
| 64>   H                    : 4.471084             4.301608             -9.117160
| 65>   C                      7.325331             2.009467             -5.670389
| 66>   O                      8.123914             3.177363             -5.456329
| 67>   H                      8.504712             3.416685             -6.307594
| 68>   H                      7.783440             1.398973             -6.538827
| 69>   H                      7.272963             1.471149             -4.685019
| 70>   H                      6.357954             2.178051             -6.023412
| 71> *
| 72>
| 73>                          ****END OF INPUT****
 Total Charge           Charge          ....    0
 Multiplicity           Mult            ....    1
 Number of Electrons    NEL             ....   36
Dispersion correction           -0.000689815
FINAL SINGLE POINT ENERGY      -231.462776163275
Dispersion correction           -0.000258314
FINAL SINGLE POINT ENERGY      -115.733416726653

CARTESIAN COORDINATES (ANGSTROEM)
---------------------------------
  C      4.287323    3.811473  -10.095497
  O      5.437001    3.561698  -10.899745
  H      5.610883    2.637790  -10.816381
  H      3.601199    4.500166  -10.683801
  H      3.740410    2.909689   -9.881101
  H      4.471084    4.301608   -9.117160
  C      7.325331    2.009467   -5.670389
  O      8.123914    3.177363   -5.456329
  H      8.504712    3.416685   -6.307594
  H      7.783440    1.398973   -6.538827
  H      7.272963    1.471149   -4.685019
  H      6.357954    2.178051   -6.023412

 Multiplicity           Mult            ....    1
 Number of Electrons    NEL             ....   18
 Basis Dimension        Dim             ....  172

ORBITAL ENERGIES
----------------

  NO   OCC          E(Eh)            E(eV)
   0   2.0000     -19.230692      -523.2937
   1   2.0000     -10.319504      -280.8080
   2   2.0000      -1.131484       -30.7893
   3   2.0000      -0.793443       -21.5907
   4   2.0000      -0.611655       -16.6440
   5   2.0000      -0.533687       -14.5224
   6   2.0000      -0.523325       -14.2404
   7   2.0000      -0.437197       -11.8967
   8   2.0000      -0.372444       -10.1347
   9   0.0000       0.080554         2.1920
  10   0.0000       0.111308         3.0288
  11   0.0000       0.153138         4.1671
  12   0.0000       0.160982         4.3806
  13   0.0000       0.184671         5.0251

MULLIKEN ATOMIC CHARGES
-----------------------
   0 C :   -0.000030
   1 O :   -0.000002
   2 H :   -0.000006
   3 H :    0.000000
   4 H :   -0.000006
   5 H :    0.000028
   6 C :   -0.172649
   7 O :   -0.472327
   8 H :    0.314403
   9 H :    0.096498
  10 H :    0.122886
  11 H :    0.111203
Sum of atomic charges:   -0.0000000

LOEWDIN ATOMIC CHARGES
----------------------
   0 C :   -0.000032
   1 O :   -0.000001
   2 H :   -0.000003
   3 H :   -0.000000
   4 H :   -0.000005
   5 H :   -0.000019
   6 C :   -0.376703
   7 O :   -0.092650
   8 H :    0.168541
   9 H :    0.105727
  10 H :    0.115134
  11 H :    0.080012

  Mayer bond orders larger than 0.1
B(  6-C ,  7-O ) :   1.0013 B(  6-C ,  9-H ) :   0.9867 B(  6-C , 10-H ) :   0.9753
B(  6-C , 11-H ) :   0.9625 B(  7-O ,  8-H ) :   0.9007

Dispersion correction           -0.000248396
FINAL SINGLE POINT ENERGY      -115.729166786151

DIPOLE MOMENT
-------------
                                X             Y             Z
Electronic contribution:      0.88544       1.53381       0.48469
Nuclear contribution   :     -0.98411      -1.82974      -1.11532
                        -----------------------------------------
Total Dipole Moment    :     -0.09867      -0.29593      -0.63063
                        -----------------------------------------
Magnitude (a.u.)       :      0.70357
Magnitude (Debye)      :      1.78833

Rotational constants in cm-1:     4.158629     0.825798     0.777447
Rotational constants in MHz : 124672.563100 24756.804881 23307.276926

                             ****ORCA TERMINATED NORMALLY****
TOTAL RUN TIME: 0 days 0 hours 0 minutes 58 seconds 780 msec
