                         Program Version 4.1.2  - RELEASE  -
|  1> #Run DFT-D3 single point of the dimer
|  2> ! wB97X-D3 def2-TZVP TIGHTSCF CHELPG PMODEL PAL8
|  3>
|  4> %base "4-181_DFT_AB"
|  5>
|  6> %scf
|  7> MaxIter 1000
|  8> end
|  9>
| 10> * xyz 0 1
| 11>   C                      -5.470393            -1.876097            1.136380
| 12>   O                      -5.868612            -2.423977            2.388435
| 13>   H                      -6.835133            -2.315790            2.387192
| 14>   H                      -4.375722            -2.094982            0.894261
| 15>   H                      -6.064162            -2.282764            0.341504
| 16>   H                      -5.615935            -0.781423            1.121355
| 17>   C                      -8.175842            -3.925012            5.155027
| 18>   O                      -7.963484            -2.664874            4.403574
| 19>   H                      -7.248685            -2.136970            4.827691
| 20>   H                      -7.292239            -4.650319            5.020489
| 21>   H                      -8.396435            -3.654326            6.204722
| 22>   H                      -9.016223            -4.435247            4.737781
| 23> *
| 24>
| 25> #Run DFT-D3 single point of the molecule with dimer basis set
| 26> $new_job
| 27> %base "4-181_DFT_A"
| 28> ! wB97X-D3 def2-TZVP TIGHTSCF CHELPG PMODEL
| 29>
| 30> %scf
| 31> MaxIter 1000
| 32> end
| 33>
| 34> * xyz 0 1
| 35>   C                      -5.470393            -1.876097            1.136380
| 36>   O                      -5.868612            -2.423977            2.388435
| 37>   H                      -6.835133            -2.315790            2.387192
| 38>   H                      -4.375722            -2.094982            0.894261
| 39>   H                      -6.064162            -2.282764            0.341504
| 40>   H                      -5.615935            -0.781423            1.121355
| 41>   C                    : -8.175842            -3.925012            5.155027
| 42>   O                    : -7.963484            -2.664874            4.403574
| 43>   H                    : -7.248685            -2.136970            4.827691
| 44>   H                    : -7.292239            -4.650319            5.020489
| 45>   H                    : -8.396435            -3.654326            6.204722
| 46>   H                    : -9.016223            -4.435247            4.737781
| 47> *
| 48>
| 49> #Run DFT-D3 single point of the particle with dimer basis set
| 50> $new_job
| 51> %base "4-181_DFT_B"
| 52> ! wB97X-D3 def2-TZVP TIGHTSCF CHELPG PMODEL
| 53>
| 54> %scf
| 55> MaxIter 1000
| 56> end
| 57>
| 58> * xyz 0 1
| 59>   C                    : -5.470393            -1.876097            1.136380
| 60>   O                    : -5.868612            -2.423977            2.388435
| 61>   H                    : -6.835133            -2.315790            2.387192
| 62>   H                    : -4.375722            -2.094982            0.894261
| 63>   H                    : -6.064162            -2.282764            0.341504
| 64>   H                    : -5.615935            -0.781423            1.121355
| 65>   C                      -8.175842            -3.925012            5.155027
| 66>   O                      -7.963484            -2.664874            4.403574
| 67>   H                      -7.248685            -2.136970            4.827691
| 68>   H                      -7.292239            -4.650319            5.020489
| 69>   H                      -8.396435            -3.654326            6.204722
| 70>   H                      -9.016223            -4.435247            4.737781
| 71> *
| 72>
| 73>                          ****END OF INPUT****
 Total Charge           Charge          ....    0
 Multiplicity           Mult            ....    1
 Number of Electrons    NEL             ....   36
Dispersion correction           -0.001452231
FINAL SINGLE POINT ENERGY      -231.470612914566
Dispersion correction           -0.000234322
FINAL SINGLE POINT ENERGY      -115.734053243034

CARTESIAN COORDINATES (ANGSTROEM)
---------------------------------
  C     -5.470393   -1.876097    1.136380
  O     -5.868612   -2.423977    2.388435
  H     -6.835133   -2.315790    2.387192
  H     -4.375722   -2.094982    0.894261
  H     -6.064162   -2.282764    0.341504
  H     -5.615935   -0.781423    1.121355
  C     -8.175842   -3.925012    5.155027
  O     -7.963484   -2.664874    4.403574
  H     -7.248685   -2.136970    4.827691
  H     -7.292239   -4.650319    5.020489
  H     -8.396435   -3.654326    6.204722
  H     -9.016223   -4.435247    4.737781

 Multiplicity           Mult            ....    1
 Number of Electrons    NEL             ....   18
 Basis Dimension        Dim             ....  172

ORBITAL ENERGIES
----------------

  NO   OCC          E(Eh)            E(eV)
   0   2.0000     -19.230926      -523.3001
   1   2.0000     -10.324726      -280.9501
   2   2.0000      -1.110415       -30.2159
   3   2.0000      -0.794608       -21.6224
   4   2.0000      -0.590115       -16.0578
   5   2.0000      -0.538375       -14.6499
   6   2.0000      -0.521398       -14.1880
   7   2.0000      -0.430925       -11.7261
   8   2.0000      -0.374843       -10.2000
   9   0.0000       0.092558         2.5186
  10   0.0000       0.117989         3.2106
  11   0.0000       0.146765         3.9937
  12   0.0000       0.188030         5.1165
  13   0.0000       0.196202         5.3389

MULLIKEN ATOMIC CHARGES
-----------------------
   0 C :   -0.001205
   1 O :   -0.004196
   2 H :   -0.008335
   3 H :    0.000051
   4 H :    0.000067
   5 H :   -0.000008
   6 C :   -0.168199
   7 O :   -0.484190
   8 H :    0.316426
   9 H :    0.107276
  10 H :    0.112844
  11 H :    0.129470
Sum of atomic charges:    0.0000000

LOEWDIN ATOMIC CHARGES
----------------------
   0 C :   -0.000622
   1 O :   -0.009210
   2 H :   -0.020255
   3 H :   -0.000013
   4 H :   -0.000013
   5 H :   -0.000016
   6 C :   -0.341503
   7 O :   -0.116117
   8 H :    0.177182
   9 H :    0.107354
  10 H :    0.101366
  11 H :    0.101847

  Mayer bond orders larger than 0.1
B(  6-C ,  7-O ) :   0.9870 B(  6-C ,  9-H ) :   0.9692 B(  6-C , 10-H ) :   0.9733
B(  6-C , 11-H ) :   0.9738 B(  7-O ,  8-H ) :   0.8951

Dispersion correction           -0.000281672
FINAL SINGLE POINT ENERGY      -115.730955318822

DIPOLE MOMENT
-------------
                                X             Y             Z
Electronic contribution:      0.08922       1.45426      -0.94344
Nuclear contribution   :      0.21823      -1.67716       1.54230
                        -----------------------------------------
Total Dipole Moment    :      0.30745      -0.22290       0.59886
                        -----------------------------------------
Magnitude (a.u.)       :      0.70912
Magnitude (Debye)      :      1.80243

Rotational constants in cm-1:     4.122758     0.762076     0.745884
Rotational constants in MHz : 123597.160957 22846.460201 22361.052840

                             ****ORCA TERMINATED NORMALLY****
TOTAL RUN TIME: 0 days 0 hours 1 minutes 34 seconds 251 msec
