                         Program Version 4.1.2  - RELEASE  -
|  1> #Run DFT-D3 single point of the dimer
|  2> ! wB97X-D3 def2-TZVP TIGHTSCF CHELPG PMODEL PAL8
|  3>
|  4> %base "17-48_DFT_AB"
|  5>
|  6> %scf
|  7> MaxIter 1000
|  8> end
|  9>
| 10> * xyz 0 1
| 11>   C                      8.855435             2.500085             -1.398292
| 12>   O                      8.460156             1.355056             -0.672985
| 13>   H                      9.255421             1.118995             -0.121987
| 14>   H                      9.214119             3.364614             -0.741264
| 15>   H                      9.646805             2.202095             -2.062144
| 16>   H                      8.024161             2.826217             -2.019382
| 17>   C                      9.144528             -1.350584            2.123332
| 18>   O                      9.525561             -0.292398            2.990248
| 19>   H                      9.668110             -0.614364            3.858280
| 20>   H                      8.167091             -1.765255            2.385883
| 21>   H                      9.057492             -1.009777            1.120715
| 22>   H                      9.840850             -2.204010            2.287589
| 23> *
| 24>
| 25> #Run DFT-D3 single point of the molecule with dimer basis set
| 26> $new_job
| 27> %base "17-48_DFT_A"
| 28> ! wB97X-D3 def2-TZVP TIGHTSCF CHELPG PMODEL
| 29>
| 30> %scf
| 31> MaxIter 1000
| 32> end
| 33>
| 34> * xyz 0 1
| 35>   C                      8.855435             2.500085             -1.398292
| 36>   O                      8.460156             1.355056             -0.672985
| 37>   H                      9.255421             1.118995             -0.121987
| 38>   H                      9.214119             3.364614             -0.741264
| 39>   H                      9.646805             2.202095             -2.062144
| 40>   H                      8.024161             2.826217             -2.019382
| 41>   C                    : 9.144528             -1.350584            2.123332
| 42>   O                    : 9.525561             -0.292398            2.990248
| 43>   H                    : 9.668110             -0.614364            3.858280
| 44>   H                    : 8.167091             -1.765255            2.385883
| 45>   H                    : 9.057492             -1.009777            1.120715
| 46>   H                    : 9.840850             -2.204010            2.287589
| 47> *
| 48>
| 49> #Run DFT-D3 single point of the particle with dimer basis set
| 50> $new_job
| 51> %base "17-48_DFT_B"
| 52> ! wB97X-D3 def2-TZVP TIGHTSCF CHELPG PMODEL
| 53>
| 54> %scf
| 55> MaxIter 1000
| 56> end
| 57>
| 58> * xyz 0 1
| 59>   C                    : 8.855435             2.500085             -1.398292
| 60>   O                    : 8.460156             1.355056             -0.672985
| 61>   H                    : 9.255421             1.118995             -0.121987
| 62>   H                    : 9.214119             3.364614             -0.741264
| 63>   H                    : 9.646805             2.202095             -2.062144
| 64>   H                    : 8.024161             2.826217             -2.019382
| 65>   C                      9.144528             -1.350584            2.123332
| 66>   O                      9.525561             -0.292398            2.990248
| 67>   H                      9.668110             -0.614364            3.858280
| 68>   H                      8.167091             -1.765255            2.385883
| 69>   H                      9.057492             -1.009777            1.120715
| 70>   H                      9.840850             -2.204010            2.287589
| 71> *
| 72>
| 73>                          ****END OF INPUT****
 Total Charge           Charge          ....    0
 Multiplicity           Mult            ....    1
 Number of Electrons    NEL             ....   36
Dispersion correction           -0.001168691
FINAL SINGLE POINT ENERGY      -231.468726824980
Dispersion correction           -0.000231603
FINAL SINGLE POINT ENERGY      -115.733608773189

CARTESIAN COORDINATES (ANGSTROEM)
---------------------------------
  C      8.855435    2.500085   -1.398292
  O      8.460156    1.355056   -0.672985
  H      9.255421    1.118995   -0.121987
  H      9.214119    3.364614   -0.741264
  H      9.646805    2.202095   -2.062144
  H      8.024161    2.826217   -2.019382
  C      9.144528   -1.350584    2.123332
  O      9.525561   -0.292398    2.990248
  H      9.668110   -0.614364    3.858280
  H      8.167091   -1.765255    2.385883
  H      9.057492   -1.009777    1.120715
  H      9.840850   -2.204010    2.287589

 Multiplicity           Mult            ....    1
 Number of Electrons    NEL             ....   18
 Basis Dimension        Dim             ....  172

ORBITAL ENERGIES
----------------

  NO   OCC          E(Eh)            E(eV)
   0   2.0000     -19.225636      -523.1562
   1   2.0000     -10.313601      -280.6473
   2   2.0000      -1.136769       -30.9330
   3   2.0000      -0.800234       -21.7755
   4   2.0000      -0.613837       -16.7034
   5   2.0000      -0.542443       -14.7606
   6   2.0000      -0.528027       -14.3684
   7   2.0000      -0.436107       -11.8671
   8   2.0000      -0.369699       -10.0600
   9   0.0000       0.092305         2.5118
  10   0.0000       0.117535         3.1983
  11   0.0000       0.154192         4.1958
  12   0.0000       0.173148         4.7116
  13   0.0000       0.197930         5.3860

MULLIKEN ATOMIC CHARGES
-----------------------
   0 C :   -0.000195
   1 O :   -0.000227
   2 H :    0.001129
   3 H :   -0.000007
   4 H :    0.000012
   5 H :   -0.000006
   6 C :   -0.158974
   7 O :   -0.478831
   8 H :    0.311050
   9 H :    0.096735
  10 H :    0.126078
  11 H :    0.103236
Sum of atomic charges:    0.0000000

LOEWDIN ATOMIC CHARGES
----------------------
   0 C :   -0.000042
   1 O :   -0.000653
   2 H :   -0.002057
   3 H :   -0.000003
   4 H :   -0.000001
   5 H :   -0.000001
   6 C :   -0.371806
   7 O :   -0.071978
   8 H :    0.151858
   9 H :    0.092771
  10 H :    0.102019
  11 H :    0.099894

  Mayer bond orders larger than 0.1
B(  6-C ,  7-O ) :   0.9973 B(  6-C ,  9-H ) :   0.9760 B(  6-C , 10-H ) :   0.9720
B(  6-C , 11-H ) :   0.9854 B(  7-O ,  8-H ) :   0.9029

Dispersion correction           -0.000235198
FINAL SINGLE POINT ENERGY      -115.733600939236

DIPOLE MOMENT
-------------
                                X             Y             Z
Electronic contribution:      0.50859       1.49586       0.87623
Nuclear contribution   :     -0.58375      -2.13158      -0.66789
                        -----------------------------------------
Total Dipole Moment    :     -0.07516      -0.63572       0.20834
                        -----------------------------------------
Magnitude (a.u.)       :      0.67319
Magnitude (Debye)      :      1.71112

Rotational constants in cm-1:     4.366069     0.830438     0.794327
Rotational constants in MHz : 130891.455476 24895.919310 23813.337018

                             ****ORCA TERMINATED NORMALLY****
TOTAL RUN TIME: 0 days 0 hours 1 minutes 10 seconds 790 msec
