                         Program Version 4.1.2  - RELEASE  -
|  1> #Run DFT-D3 single point of the dimer
|  2> ! wB97X-D3 def2-TZVP TIGHTSCF CHELPG PMODEL PAL8
|  3>
|  4> %base "11-42_DFT_AB"
|  5>
|  6> %scf
|  7> MaxIter 1000
|  8> end
|  9>
| 10> * xyz 0 1
| 11>   C                      -6.809828            -7.466043            3.576054
| 12>   O                      -7.899568            -7.122431            2.761647
| 13>   H                      -8.485116            -6.571884            3.300043
| 14>   H                      -6.140757            -8.235801            3.211368
| 15>   H                      -6.195975            -6.624707            3.804071
| 16>   H                      -7.153628            -7.872314            4.553636
| 17>   C                      -9.419754            -8.999298            0.521356
| 18>   O                      -9.622307            -9.161128            1.920195
| 19>   H                      -8.922278            -8.609451            2.246270
| 20>   H                      -9.949133            -8.085550            0.170717
| 21>   H                      -8.383027            -8.907763            0.132142
| 22>   H                      -9.894533            -9.824222            0.008250
| 23> *
| 24>
| 25> #Run DFT-D3 single point of the molecule with dimer basis set
| 26> $new_job
| 27> %base "11-42_DFT_A"
| 28> ! wB97X-D3 def2-TZVP TIGHTSCF CHELPG PMODEL
| 29>
| 30> %scf
| 31> MaxIter 1000
| 32> end
| 33>
| 34> * xyz 0 1
| 35>   C                      -6.809828            -7.466043            3.576054
| 36>   O                      -7.899568            -7.122431            2.761647
| 37>   H                      -8.485116            -6.571884            3.300043
| 38>   H                      -6.140757            -8.235801            3.211368
| 39>   H                      -6.195975            -6.624707            3.804071
| 40>   H                      -7.153628            -7.872314            4.553636
| 41>   C                    : -9.419754            -8.999298            0.521356
| 42>   O                    : -9.622307            -9.161128            1.920195
| 43>   H                    : -8.922278            -8.609451            2.246270
| 44>   H                    : -9.949133            -8.085550            0.170717
| 45>   H                    : -8.383027            -8.907763            0.132142
| 46>   H                    : -9.894533            -9.824222            0.008250
| 47> *
| 48>
| 49> #Run DFT-D3 single point of the particle with dimer basis set
| 50> $new_job
| 51> %base "11-42_DFT_B"
| 52> ! wB97X-D3 def2-TZVP TIGHTSCF CHELPG PMODEL
| 53>
| 54> %scf
| 55> MaxIter 1000
| 56> end
| 57>
| 58> * xyz 0 1
| 59>   C                    : -6.809828            -7.466043            3.576054
| 60>   O                    : -7.899568            -7.122431            2.761647
| 61>   H                    : -8.485116            -6.571884            3.300043
| 62>   H                    : -6.140757            -8.235801            3.211368
| 63>   H                    : -6.195975            -6.624707            3.804071
| 64>   H                    : -7.153628            -7.872314            4.553636
| 65>   C                      -9.419754            -8.999298            0.521356
| 66>   O                      -9.622307            -9.161128            1.920195
| 67>   H                      -8.922278            -8.609451            2.246270
| 68>   H                      -9.949133            -8.085550            0.170717
| 69>   H                      -8.383027            -8.907763            0.132142
| 70>   H                      -9.894533            -9.824222            0.008250
| 71> *
| 72>
| 73>                          ****END OF INPUT****
 Total Charge           Charge          ....    0
 Multiplicity           Mult            ....    1
 Number of Electrons    NEL             ....   36
Dispersion correction           -0.001843287
FINAL SINGLE POINT ENERGY      -231.474797936985
Dispersion correction           -0.000234372
FINAL SINGLE POINT ENERGY      -115.733771343241

CARTESIAN COORDINATES (ANGSTROEM)
---------------------------------
  C     -6.809828   -7.466043    3.576054
  O     -7.899568   -7.122431    2.761647
  H     -8.485116   -6.571884    3.300043
  H     -6.140757   -8.235801    3.211368
  H     -6.195975   -6.624707    3.804071
  H     -7.153628   -7.872314    4.553636
  C     -9.419754   -8.999298    0.521356
  O     -9.622307   -9.161128    1.920195
  H     -8.922278   -8.609451    2.246270
  H     -9.949133   -8.085550    0.170717
  H     -8.383027   -8.907763    0.132142
  H     -9.894533   -9.824222    0.008250

 Multiplicity           Mult            ....    1
 Number of Electrons    NEL             ....   18
 Basis Dimension        Dim             ....  172

ORBITAL ENERGIES
----------------

  NO   OCC          E(Eh)            E(eV)
   0   2.0000     -19.235896      -523.4353
   1   2.0000     -10.316087      -280.7150
   2   2.0000      -1.143876       -31.1265
   3   2.0000      -0.793280       -21.5862
   4   2.0000      -0.612759       -16.6740
   5   2.0000      -0.536007       -14.5855
   6   2.0000      -0.523774       -14.2526
   7   2.0000      -0.449582       -12.2338
   8   2.0000      -0.374879       -10.2010
   9   0.0000       0.068931         1.8757
  10   0.0000       0.132266         3.5992
  11   0.0000       0.151192         4.1142
  12   0.0000       0.164226         4.4688
  13   0.0000       0.188194         5.1210

MULLIKEN ATOMIC CHARGES
-----------------------
   0 C :   -0.001821
   1 O :   -0.004969
   2 H :   -0.001402
   3 H :   -0.000277
   4 H :   -0.000025
   5 H :    0.000152
   6 C :   -0.193484
   7 O :   -0.446687
   8 H :    0.311036
   9 H :    0.104203
  10 H :    0.109375
  11 H :    0.123898
Sum of atomic charges:   -0.0000000

LOEWDIN ATOMIC CHARGES
----------------------
   0 C :   -0.005456
   1 O :   -0.022364
   2 H :   -0.002751
   3 H :   -0.000334
   4 H :   -0.000125
   5 H :   -0.000229
   6 C :   -0.391169
   7 O :   -0.056576
   8 H :    0.175484
   9 H :    0.099133
  10 H :    0.099773
  11 H :    0.104615

  Mayer bond orders larger than 0.1
B(  6-C ,  7-O ) :   0.9957 B(  6-C ,  9-H ) :   0.9777 B(  6-C , 10-H ) :   0.9678
B(  6-C , 11-H ) :   0.9777 B(  7-O ,  8-H ) :   0.9160

Dispersion correction           -0.000241217
FINAL SINGLE POINT ENERGY      -115.732756309114

DIPOLE MOMENT
-------------
                                X             Y             Z
Electronic contribution:     -0.30758      -0.38645       1.88521
Nuclear contribution   :      0.81249       0.76941      -2.22391
                        -----------------------------------------
Total Dipole Moment    :      0.50492       0.38296      -0.33870
                        -----------------------------------------
Magnitude (a.u.)       :      0.71855
Magnitude (Debye)      :      1.82641

Rotational constants in cm-1:     4.275988     0.826044     0.793603
Rotational constants in MHz : 128190.885778 24764.177111 23791.630363

                             ****ORCA TERMINATED NORMALLY****
TOTAL RUN TIME: 0 days 0 hours 1 minutes 11 seconds 630 msec
