                         Program Version 4.1.2  - RELEASE  -
|  1> #Run DFT-D3 single point of the dimer
|  2> ! wB97X-D3 def2-TZVP TIGHTSCF CHELPG PMODEL PAL8
|  3>
|  4> %base "22-203_DFT_AB"
|  5>
|  6> %scf
|  7> MaxIter 1000
|  8> end
|  9>
| 10> * xyz 0 1
| 11>   C                      2.297773             -6.764124            0.287503
| 12>   O                      2.256616             -5.790287            -0.759902
| 13>   H                      2.855951             -5.067472            -0.529458
| 14>   H                      1.602706             -7.583123            0.132265
| 15>   H                      3.277914             -7.233672            0.455721
| 16>   H                      1.867347             -6.276976            1.178452
| 17>   C                      -1.039465            -5.980408            -0.633928
| 18>   O                      -0.525125            -4.704031            -0.958731
| 19>   H                      0.396405             -4.876705            -1.164711
| 20>   H                      -0.893255            -6.150147            0.412700
| 21>   H                      -2.104369            -6.036551            -0.840206
| 22>   H                      -0.600930            -6.805543            -1.238624
| 23> *
| 24>
| 25> #Run DFT-D3 single point of the molecule with dimer basis set
| 26> $new_job
| 27> %base "22-203_DFT_A"
| 28> ! wB97X-D3 def2-TZVP TIGHTSCF CHELPG PMODEL
| 29>
| 30> %scf
| 31> MaxIter 1000
| 32> end
| 33>
| 34> * xyz 0 1
| 35>   C                      2.297773             -6.764124            0.287503
| 36>   O                      2.256616             -5.790287            -0.759902
| 37>   H                      2.855951             -5.067472            -0.529458
| 38>   H                      1.602706             -7.583123            0.132265
| 39>   H                      3.277914             -7.233672            0.455721
| 40>   H                      1.867347             -6.276976            1.178452
| 41>   C                    : -1.039465            -5.980408            -0.633928
| 42>   O                    : -0.525125            -4.704031            -0.958731
| 43>   H                    : 0.396405             -4.876705            -1.164711
| 44>   H                    : -0.893255            -6.150147            0.412700
| 45>   H                    : -2.104369            -6.036551            -0.840206
| 46>   H                    : -0.600930            -6.805543            -1.238624
| 47> *
| 48>
| 49> #Run DFT-D3 single point of the particle with dimer basis set
| 50> $new_job
| 51> %base "22-203_DFT_B"
| 52> ! wB97X-D3 def2-TZVP TIGHTSCF CHELPG PMODEL
| 53>
| 54> %scf
| 55> MaxIter 1000
| 56> end
| 57>
| 58> * xyz 0 1
| 59>   C                    : 2.297773             -6.764124            0.287503
| 60>   O                    : 2.256616             -5.790287            -0.759902
| 61>   H                    : 2.855951             -5.067472            -0.529458
| 62>   H                    : 1.602706             -7.583123            0.132265
| 63>   H                    : 3.277914             -7.233672            0.455721
| 64>   H                    : 1.867347             -6.276976            1.178452
| 65>   C                      -1.039465            -5.980408            -0.633928
| 66>   O                      -0.525125            -4.704031            -0.958731
| 67>   H                      0.396405             -4.876705            -1.164711
| 68>   H                      -0.893255            -6.150147            0.412700
| 69>   H                      -2.104369            -6.036551            -0.840206
| 70>   H                      -0.600930            -6.805543            -1.238624
| 71> *
| 72>
| 73>                          ****END OF INPUT****
 Total Charge           Charge          ....    0
 Multiplicity           Mult            ....    1
 Number of Electrons    NEL             ....   36
Dispersion correction           -0.002389186
FINAL SINGLE POINT ENERGY      -231.476943040533
Dispersion correction           -0.000253330
FINAL SINGLE POINT ENERGY      -115.733632925395

CARTESIAN COORDINATES (ANGSTROEM)
---------------------------------
  C      2.297773   -6.764124    0.287503
  O      2.256616   -5.790287   -0.759902
  H      2.855951   -5.067472   -0.529458
  H      1.602706   -7.583123    0.132265
  H      3.277914   -7.233672    0.455721
  H      1.867347   -6.276976    1.178452
  C     -1.039465   -5.980408   -0.633928
  O     -0.525125   -4.704031   -0.958731
  H      0.396405   -4.876705   -1.164711
  H     -0.893255   -6.150147    0.412700
  H     -2.104369   -6.036551   -0.840206
  H     -0.600930   -6.805543   -1.238624

 Multiplicity           Mult            ....    1
 Number of Electrons    NEL             ....   18
 Basis Dimension        Dim             ....  172

ORBITAL ENERGIES
----------------

  NO   OCC          E(Eh)            E(eV)
   0   2.0000     -19.231667      -523.3203
   1   2.0000     -10.310896      -280.5737
   2   2.0000      -1.139365       -31.0037
   3   2.0000      -0.794830       -21.6284
   4   2.0000      -0.608758       -16.5651
   5   2.0000      -0.548815       -14.9340
   6   2.0000      -0.525573       -14.3016
   7   2.0000      -0.436204       -11.8697
   8   2.0000      -0.375419       -10.2157
   9   0.0000       0.071850         1.9551
  10   0.0000       0.132658         3.6098
  11   0.0000       0.143332         3.9003
  12   0.0000       0.172636         4.6977
  13   0.0000       0.190481         5.1833

MULLIKEN ATOMIC CHARGES
-----------------------
   0 C :    0.003134
   1 O :   -0.004016
   2 H :   -0.000683
   3 H :   -0.002498
   4 H :    0.000037
   5 H :   -0.000396
   6 C :   -0.184218
   7 O :   -0.464455
   8 H :    0.315181
   9 H :    0.108075
  10 H :    0.125671
  11 H :    0.104168
Sum of atomic charges:   -0.0000000

LOEWDIN ATOMIC CHARGES
----------------------
   0 C :   -0.007091
   1 O :   -0.013114
   2 H :   -0.001512
   3 H :   -0.002512
   4 H :   -0.000050
   5 H :   -0.000875
   6 C :   -0.383040
   7 O :   -0.067460
   8 H :    0.175076
   9 H :    0.093508
  10 H :    0.105257
  11 H :    0.101815

  Mayer bond orders larger than 0.1
B(  6-C ,  7-O ) :   0.9975 B(  6-C ,  9-H ) :   0.9791 B(  6-C , 10-H ) :   0.9734
B(  6-C , 11-H ) :   0.9803 B(  7-O ,  8-H ) :   0.9075

Dispersion correction           -0.000230404
FINAL SINGLE POINT ENERGY      -115.735079863981

DIPOLE MOMENT
-------------
                                X             Y             Z
Electronic contribution:      0.53438       1.73215      -0.37587
Nuclear contribution   :     -0.17660      -2.33901       0.36430
                        -----------------------------------------
Total Dipole Moment    :      0.35778      -0.60686      -0.01157
                        -----------------------------------------
Magnitude (a.u.)       :      0.70457
Magnitude (Debye)      :      1.79087

Rotational constants in cm-1:     4.294608     0.835089     0.806555
Rotational constants in MHz : 128749.109296 25035.346273 24179.898901

                             ****ORCA TERMINATED NORMALLY****
TOTAL RUN TIME: 0 days 0 hours 1 minutes 8 seconds 482 msec
