                         Program Version 4.1.2  - RELEASE  -
|  1> #Run DFT-D3 single point of the dimer
|  2> ! wB97X-D3 def2-TZVP TIGHTSCF CHELPG PMODEL PAL8
|  3>
|  4> %base "10-85_DFT_AB"
|  5>
|  6> %scf
|  7> MaxIter 1000
|  8> end
|  9>
| 10> * xyz 0 1
| 11>   C                      0.325050             3.682876             4.670970
| 12>   O                      -0.846528            4.166738             4.035653
| 13>   H                      -1.548622            4.059657             4.702336
| 14>   H                      0.917244             3.089913             4.008710
| 15>   H                      1.078371             4.362851             4.962118
| 16>   H                      0.047949             3.124406             5.575140
| 17>   C                      2.018643             1.948399             1.332270
| 18>   O                      3.332165             2.287138             1.756769
| 19>   H                      3.311944             2.537674             2.703339
| 20>   H                      2.054708             1.402109             0.362876
| 21>   H                      1.485087             1.342053             2.106728
| 22>   H                      1.462710             2.875440             1.361166
| 23> *
| 24>
| 25> #Run DFT-D3 single point of the molecule with dimer basis set
| 26> $new_job
| 27> %base "10-85_DFT_A"
| 28> ! wB97X-D3 def2-TZVP TIGHTSCF CHELPG PMODEL
| 29>
| 30> %scf
| 31> MaxIter 1000
| 32> end
| 33>
| 34> * xyz 0 1
| 35>   C                      0.325050             3.682876             4.670970
| 36>   O                      -0.846528            4.166738             4.035653
| 37>   H                      -1.548622            4.059657             4.702336
| 38>   H                      0.917244             3.089913             4.008710
| 39>   H                      1.078371             4.362851             4.962118
| 40>   H                      0.047949             3.124406             5.575140
| 41>   C                    : 2.018643             1.948399             1.332270
| 42>   O                    : 3.332165             2.287138             1.756769
| 43>   H                    : 3.311944             2.537674             2.703339
| 44>   H                    : 2.054708             1.402109             0.362876
| 45>   H                    : 1.485087             1.342053             2.106728
| 46>   H                    : 1.462710             2.875440             1.361166
| 47> *
| 48>
| 49> #Run DFT-D3 single point of the particle with dimer basis set
| 50> $new_job
| 51> %base "10-85_DFT_B"
| 52> ! wB97X-D3 def2-TZVP TIGHTSCF CHELPG PMODEL
| 53>
| 54> %scf
| 55> MaxIter 1000
| 56> end
| 57>
| 58> * xyz 0 1
| 59>   C                    : 0.325050             3.682876             4.670970
| 60>   O                    : -0.846528            4.166738             4.035653
| 61>   H                    : -1.548622            4.059657             4.702336
| 62>   H                    : 0.917244             3.089913             4.008710
| 63>   H                    : 1.078371             4.362851             4.962118
| 64>   H                    : 0.047949             3.124406             5.575140
| 65>   C                      2.018643             1.948399             1.332270
| 66>   O                      3.332165             2.287138             1.756769
| 67>   H                      3.311944             2.537674             2.703339
| 68>   H                      2.054708             1.402109             0.362876
| 69>   H                      1.485087             1.342053             2.106728
| 70>   H                      1.462710             2.875440             1.361166
| 71> *
| 72>
| 73>                          ****END OF INPUT****
 Total Charge           Charge          ....    0
 Multiplicity           Mult            ....    1
 Number of Electrons    NEL             ....   36
Dispersion correction           -0.001538229
FINAL SINGLE POINT ENERGY      -231.460566657127
Dispersion correction           -0.000247701
FINAL SINGLE POINT ENERGY      -115.728525568496

CARTESIAN COORDINATES (ANGSTROEM)
---------------------------------
  C      0.325050    3.682876    4.670970
  O     -0.846528    4.166738    4.035653
  H     -1.548622    4.059657    4.702336
  H      0.917244    3.089913    4.008710
  H      1.078371    4.362851    4.962118
  H      0.047949    3.124406    5.575140
  C      2.018643    1.948399    1.332270
  O      3.332165    2.287138    1.756769
  H      3.311944    2.537674    2.703339
  H      2.054708    1.402109    0.362876
  H      1.485087    1.342053    2.106728
  H      1.462710    2.875440    1.361166

 Multiplicity           Mult            ....    1
 Number of Electrons    NEL             ....   18
 Basis Dimension        Dim             ....  172

ORBITAL ENERGIES
----------------

  NO   OCC          E(Eh)            E(eV)
   0   2.0000     -19.227770      -523.2142
   1   2.0000     -10.316792      -280.7342
   2   2.0000      -1.128452       -30.7067
   3   2.0000      -0.790340       -21.5062
   4   2.0000      -0.608770       -16.5655
   5   2.0000      -0.542395       -14.7593
   6   2.0000      -0.519999       -14.1499
   7   2.0000      -0.434145       -11.8137
   8   2.0000      -0.366720        -9.9790
   9   0.0000       0.073281         1.9941
  10   0.0000       0.119536         3.2527
  11   0.0000       0.150036         4.0827
  12   0.0000       0.172248         4.6871
  13   0.0000       0.179038         4.8719

MULLIKEN ATOMIC CHARGES
-----------------------
   0 C :   -0.000626
   1 O :    0.000102
   2 H :    0.000013
   3 H :    0.000061
   4 H :   -0.000163
   5 H :    0.000007
   6 C :   -0.173930
   7 O :   -0.482549
   8 H :    0.316012
   9 H :    0.134345
  10 H :    0.099925
  11 H :    0.106803
Sum of atomic charges:   -0.0000000

LOEWDIN ATOMIC CHARGES
----------------------
   0 C :   -0.001561
   1 O :   -0.000077
   2 H :   -0.000002
   3 H :   -0.002697
   4 H :   -0.000047
   5 H :   -0.000005
   6 C :   -0.382314
   7 O :   -0.097382
   8 H :    0.177850
   9 H :    0.114615
  10 H :    0.097676
  11 H :    0.093945

  Mayer bond orders larger than 0.1
B(  6-C ,  7-O ) :   0.9819 B(  6-C ,  9-H ) :   0.9667 B(  6-C , 10-H ) :   0.9777
B(  6-C , 11-H ) :   0.9834 B(  7-O ,  8-H ) :   0.8973

Dispersion correction           -0.000230038
FINAL SINGLE POINT ENERGY      -115.731364852579

DIPOLE MOMENT
-------------
                                X             Y             Z
Electronic contribution:      1.71121       0.35617       0.23930
Nuclear contribution   :     -2.25490      -0.33412       0.19544
                        -----------------------------------------
Total Dipole Moment    :     -0.54370       0.02205       0.43473
                        -----------------------------------------
Magnitude (a.u.)       :      0.69648
Magnitude (Debye)      :      1.77031

Rotational constants in cm-1:     4.135195     0.834332     0.791025
Rotational constants in MHz : 123970.017165 25012.645057 23714.336493

                             ****ORCA TERMINATED NORMALLY****
TOTAL RUN TIME: 0 days 0 hours 1 minutes 2 seconds 103 msec
