                         Program Version 4.1.2  - RELEASE  -
|  1> #Run DFT-D3 single point of the dimer
|  2> ! wB97X-D3 def2-TZVP TIGHTSCF CHELPG PMODEL PAL8
|  3>
|  4> %base "2-130_DFT_AB"
|  5>
|  6> %scf
|  7> MaxIter 1000
|  8> end
|  9>
| 10> * xyz 0 1
| 11>   C                      0.388477             4.100360             7.695616
| 12>   O                      -0.947411            4.692757             7.944071
| 13>   H                      -1.091817            5.388982             7.292805
| 14>   H                      1.164795             4.910124             7.802517
| 15>   H                      0.723529             3.246645             8.329768
| 16>   H                      0.383064             3.620852             6.668489
| 17>   C                      -0.071571            7.586414             7.033307
| 18>   O                      -0.467724            8.887866             7.324802
| 19>   H                      -0.952794            9.275184             6.553216
| 20>   H                      0.866285             7.675874             6.438396
| 21>   H                      -0.027817            6.980002             7.944635
| 22>   H                      -0.725721            7.050403             6.424066
| 23> *
| 24>
| 25> #Run DFT-D3 single point of the molecule with dimer basis set
| 26> $new_job
| 27> %base "2-130_DFT_A"
| 28> ! wB97X-D3 def2-TZVP TIGHTSCF CHELPG PMODEL
| 29>
| 30> %scf
| 31> MaxIter 1000
| 32> end
| 33>
| 34> * xyz 0 1
| 35>   C                      0.388477             4.100360             7.695616
| 36>   O                      -0.947411            4.692757             7.944071
| 37>   H                      -1.091817            5.388982             7.292805
| 38>   H                      1.164795             4.910124             7.802517
| 39>   H                      0.723529             3.246645             8.329768
| 40>   H                      0.383064             3.620852             6.668489
| 41>   C                    : -0.071571            7.586414             7.033307
| 42>   O                    : -0.467724            8.887866             7.324802
| 43>   H                    : -0.952794            9.275184             6.553216
| 44>   H                    : 0.866285             7.675874             6.438396
| 45>   H                    : -0.027817            6.980002             7.944635
| 46>   H                    : -0.725721            7.050403             6.424066
| 47> *
| 48>
| 49> #Run DFT-D3 single point of the particle with dimer basis set
| 50> $new_job
| 51> %base "2-130_DFT_B"
| 52> ! wB97X-D3 def2-TZVP TIGHTSCF CHELPG PMODEL
| 53>
| 54> %scf
| 55> MaxIter 1000
| 56> end
| 57>
| 58> * xyz 0 1
| 59>   C                    : 0.388477             4.100360             7.695616
| 60>   O                    : -0.947411            4.692757             7.944071
| 61>   H                    : -1.091817            5.388982             7.292805
| 62>   H                    : 1.164795             4.910124             7.802517
| 63>   H                    : 0.723529             3.246645             8.329768
| 64>   H                    : 0.383064             3.620852             6.668489
| 65>   C                      -0.071571            7.586414             7.033307
| 66>   O                      -0.467724            8.887866             7.324802
| 67>   H                      -0.952794            9.275184             6.553216
| 68>   H                      0.866285             7.675874             6.438396
| 69>   H                      -0.027817            6.980002             7.944635
| 70>   H                      -0.725721            7.050403             6.424066
| 71> *
| 72>
| 73>                          ****END OF INPUT****
 Total Charge           Charge          ....    0
 Multiplicity           Mult            ....    1
 Number of Electrons    NEL             ....   36
Dispersion correction           -0.001976192
FINAL SINGLE POINT ENERGY      -231.455252866054
Dispersion correction           -0.000286752
FINAL SINGLE POINT ENERGY      -115.727399263584

CARTESIAN COORDINATES (ANGSTROEM)
---------------------------------
  C      0.388477    4.100360    7.695616
  O     -0.947411    4.692757    7.944071
  H     -1.091817    5.388982    7.292805
  H      1.164795    4.910124    7.802517
  H      0.723529    3.246645    8.329768
  H      0.383064    3.620852    6.668489
  C     -0.071571    7.586414    7.033307
  O     -0.467724    8.887866    7.324802
  H     -0.952794    9.275184    6.553216
  H      0.866285    7.675874    6.438396
  H     -0.027817    6.980002    7.944635
  H     -0.725721    7.050403    6.424066

 Multiplicity           Mult            ....    1
 Number of Electrons    NEL             ....   18
 Basis Dimension        Dim             ....  172

ORBITAL ENERGIES
----------------

  NO   OCC          E(Eh)            E(eV)
   0   2.0000     -19.230068      -523.2768
   1   2.0000     -10.306626      -280.4576
   2   2.0000      -1.135987       -30.9118
   3   2.0000      -0.794882       -21.6298
   4   2.0000      -0.616553       -16.7773
   5   2.0000      -0.551043       -14.9946
   6   2.0000      -0.519291       -14.1306
   7   2.0000      -0.430150       -11.7050
   8   2.0000      -0.369112       -10.0440
   9   0.0000       0.088128         2.3981
  10   0.0000       0.112275         3.0552
  11   0.0000       0.159423         4.3381
  12   0.0000       0.177316         4.8250
  13   0.0000       0.178880         4.8676

MULLIKEN ATOMIC CHARGES
-----------------------
   0 C :    0.000995
   1 O :    0.000973
   2 H :   -0.006247
   3 H :   -0.000586
   4 H :    0.000086
   5 H :   -0.000046
   6 C :   -0.147561
   7 O :   -0.476058
   8 H :    0.318483
   9 H :    0.090132
  10 H :    0.114818
  11 H :    0.105011
Sum of atomic charges:   -0.0000000

LOEWDIN ATOMIC CHARGES
----------------------
   0 C :   -0.006093
   1 O :   -0.005765
   2 H :   -0.019325
   3 H :   -0.003412
   4 H :   -0.000034
   5 H :   -0.000043
   6 C :   -0.388879
   7 O :   -0.073640
   8 H :    0.187837
   9 H :    0.101314
  10 H :    0.118838
  11 H :    0.089203

  Mayer bond orders larger than 0.1
B(  6-C ,  7-O ) :   1.0094 B(  6-C ,  9-H ) :   0.9731 B(  6-C , 10-H ) :   0.9715
B(  6-C , 11-H ) :   0.9759 B(  7-O ,  8-H ) :   0.8911

Dispersion correction           -0.000228721
FINAL SINGLE POINT ENERGY      -115.729611762196

DIPOLE MOMENT
-------------
                                X             Y             Z
Electronic contribution:     -0.49197       1.63997       0.56287
Nuclear contribution   :      0.28547      -1.90785      -1.17756
                        -----------------------------------------
Total Dipole Moment    :     -0.20649      -0.26788      -0.61469
                        -----------------------------------------
Magnitude (a.u.)       :      0.70161
Magnitude (Debye)      :      1.78334

Rotational constants in cm-1:     4.316999     0.852061     0.823232
Rotational constants in MHz : 129420.370828 25544.153565 24679.881465

                             ****ORCA TERMINATED NORMALLY****
TOTAL RUN TIME: 0 days 0 hours 6 minutes 22 seconds 665 msec
