                         Program Version 4.1.2  - RELEASE  -
|  1> #Run DFT-D3 single point of the dimer
|  2> ! wB97X-D3 def2-TZVP TIGHTSCF CHELPG PMODEL PAL8
|  3>
|  4> %base "22-61_DFT_AB"
|  5>
|  6> %scf
|  7> MaxIter 1000
|  8> end
|  9>
| 10> * xyz 0 1
| 11>   C                      7.094991             -5.874388            4.295036
| 12>   O                      6.607568             -5.115187            5.413430
| 13>   H                      6.014298             -4.411971            5.145993
| 14>   H                      6.600203             -5.667700            3.315345
| 15>   H                      8.165961             -5.827261            4.147364
| 16>   H                      6.868536             -6.907309            4.499651
| 17>   C                      4.711376             -9.401158            3.653627
| 18>   O                      4.517502             -8.654134            4.790164
| 19>   H                      4.547553             -9.274433            5.562109
| 20>   H                      4.063894             -10.339325           3.744388
| 21>   H                      4.302707             -8.863721            2.769714
| 22>   H                      5.778902             -9.594835            3.437364
| 23> *
| 24>
| 25> #Run DFT-D3 single point of the molecule with dimer basis set
| 26> $new_job
| 27> %base "22-61_DFT_A"
| 28> ! wB97X-D3 def2-TZVP TIGHTSCF CHELPG PMODEL
| 29>
| 30> %scf
| 31> MaxIter 1000
| 32> end
| 33>
| 34> * xyz 0 1
| 35>   C                      7.094991             -5.874388            4.295036
| 36>   O                      6.607568             -5.115187            5.413430
| 37>   H                      6.014298             -4.411971            5.145993
| 38>   H                      6.600203             -5.667700            3.315345
| 39>   H                      8.165961             -5.827261            4.147364
| 40>   H                      6.868536             -6.907309            4.499651
| 41>   C                    : 4.711376             -9.401158            3.653627
| 42>   O                    : 4.517502             -8.654134            4.790164
| 43>   H                    : 4.547553             -9.274433            5.562109
| 44>   H                    : 4.063894             -10.339325           3.744388
| 45>   H                    : 4.302707             -8.863721            2.769714
| 46>   H                    : 5.778902             -9.594835            3.437364
| 47> *
| 48>
| 49> #Run DFT-D3 single point of the particle with dimer basis set
| 50> $new_job
| 51> %base "22-61_DFT_B"
| 52> ! wB97X-D3 def2-TZVP TIGHTSCF CHELPG PMODEL
| 53>
| 54> %scf
| 55> MaxIter 1000
| 56> end
| 57>
| 58> * xyz 0 1
| 59>   C                    : 7.094991             -5.874388            4.295036
| 60>   O                    : 6.607568             -5.115187            5.413430
| 61>   H                    : 6.014298             -4.411971            5.145993
| 62>   H                    : 6.600203             -5.667700            3.315345
| 63>   H                    : 8.165961             -5.827261            4.147364
| 64>   H                    : 6.868536             -6.907309            4.499651
| 65>   C                      4.711376             -9.401158            3.653627
| 66>   O                      4.517502             -8.654134            4.790164
| 67>   H                      4.547553             -9.274433            5.562109
| 68>   H                      4.063894             -10.339325           3.744388
| 69>   H                      4.302707             -8.863721            2.769714
| 70>   H                      5.778902             -9.594835            3.437364
| 71> *
| 72>
| 73>                          ****END OF INPUT****
 Total Charge           Charge          ....    0
 Multiplicity           Mult            ....    1
 Number of Electrons    NEL             ....   36
Dispersion correction           -0.001438846
FINAL SINGLE POINT ENERGY      -231.465704934563
Dispersion correction           -0.000278292
FINAL SINGLE POINT ENERGY      -115.733043833308

CARTESIAN COORDINATES (ANGSTROEM)
---------------------------------
  C      7.094991   -5.874388    4.295036
  O      6.607568   -5.115187    5.413430
  H      6.014298   -4.411971    5.145993
  H      6.600203   -5.667700    3.315345
  H      8.165961   -5.827261    4.147364
  H      6.868536   -6.907309    4.499651
  C      4.711376   -9.401158    3.653627
  O      4.517502   -8.654134    4.790164
  H      4.547553   -9.274433    5.562109
  H      4.063894  -10.339325    3.744388
  H      4.302707   -8.863721    2.769714
  H      5.778902   -9.594835    3.437364

 Multiplicity           Mult            ....    1
 Number of Electrons    NEL             ....   18
 Basis Dimension        Dim             ....  172

ORBITAL ENERGIES
----------------

  NO   OCC          E(Eh)            E(eV)
   0   2.0000     -19.233160      -523.3609
   1   2.0000     -10.317642      -280.7573
   2   2.0000      -1.145310       -31.1655
   3   2.0000      -0.784530       -21.3481
   4   2.0000      -0.609300       -16.5799
   5   2.0000      -0.550152       -14.9704
   6   2.0000      -0.531112       -14.4523
   7   2.0000      -0.421244       -11.4626
   8   2.0000      -0.372268       -10.1299
   9   0.0000       0.092855         2.5267
  10   0.0000       0.115846         3.1523
  11   0.0000       0.149766         4.0753
  12   0.0000       0.175707         4.7812
  13   0.0000       0.193820         5.2741

MULLIKEN ATOMIC CHARGES
-----------------------
   0 C :    0.001763
   1 O :   -0.000097
   2 H :   -0.000010
   3 H :   -0.000385
   4 H :   -0.000095
   5 H :   -0.005098
   6 C :   -0.154934
   7 O :   -0.465008
   8 H :    0.320198
   9 H :    0.094572
  10 H :    0.111343
  11 H :    0.097752
Sum of atomic charges:   -0.0000000

LOEWDIN ATOMIC CHARGES
----------------------
   0 C :   -0.002682
   1 O :   -0.000064
   2 H :   -0.000027
   3 H :   -0.000095
   4 H :   -0.000025
   5 H :   -0.004431
   6 C :   -0.430532
   7 O :   -0.059235
   8 H :    0.191489
   9 H :    0.103073
  10 H :    0.108774
  11 H :    0.093755

  Mayer bond orders larger than 0.1
B(  6-C ,  7-O ) :   1.0020 B(  6-C ,  9-H ) :   0.9843 B(  6-C , 10-H ) :   0.9731
B(  6-C , 11-H ) :   0.9710 B(  7-O ,  8-H ) :   0.8912

Dispersion correction           -0.000232962
FINAL SINGLE POINT ENERGY      -115.731806135072

DIPOLE MOMENT
-------------
                                X             Y             Z
Electronic contribution:     -0.17287       1.12712       1.44905
Nuclear contribution   :      0.23689      -1.77756      -1.38427
                        -----------------------------------------
Total Dipole Moment    :      0.06402      -0.65044       0.06477
                        -----------------------------------------
Magnitude (a.u.)       :      0.65678
Magnitude (Debye)      :      1.66941

Rotational constants in cm-1:     4.062672     0.864390     0.837336
Rotational constants in MHz : 121795.850107 25913.746348 25102.704843

                             ****ORCA TERMINATED NORMALLY****
TOTAL RUN TIME: 0 days 0 hours 0 minutes 59 seconds 575 msec
