                         Program Version 4.1.2  - RELEASE  -
|  1> #Run DFT-D3 single point of the dimer
|  2> ! wB97X-D3 def2-TZVP TIGHTSCF CHELPG PMODEL PAL8
|  3>
|  4> %base "18-103_DFT_AB"
|  5>
|  6> %scf
|  7> MaxIter 1000
|  8> end
|  9>
| 10> * xyz 0 1
| 11>   C                      -7.533343            9.986893             10.024184
| 12>   O                      -8.434405            9.247854             9.253754
| 13>   H                      -9.360903            9.576773             9.322728
| 14>   H                      -7.287358            10.958760            9.543611
| 15>   H                      -7.914960            10.142009            11.017530
| 16>   H                      -6.603391            9.494522             10.069739
| 17>   C                      -8.215719            6.116822             6.804195
| 18>   O                      -9.389042            5.452235             7.337139
| 19>   H                      -9.485368            5.804453             8.222814
| 20>   H                      -7.452653            6.228875             7.592350
| 21>   H                      -7.798064            5.494275             6.044174
| 22>   H                      -8.502615            7.088903             6.458666
| 23> *
| 24>
| 25> #Run DFT-D3 single point of the molecule with dimer basis set
| 26> $new_job
| 27> %base "18-103_DFT_A"
| 28> ! wB97X-D3 def2-TZVP TIGHTSCF CHELPG PMODEL
| 29>
| 30> %scf
| 31> MaxIter 1000
| 32> end
| 33>
| 34> * xyz 0 1
| 35>   C                      -7.533343            9.986893             10.024184
| 36>   O                      -8.434405            9.247854             9.253754
| 37>   H                      -9.360903            9.576773             9.322728
| 38>   H                      -7.287358            10.958760            9.543611
| 39>   H                      -7.914960            10.142009            11.017530
| 40>   H                      -6.603391            9.494522             10.069739
| 41>   C                    : -8.215719            6.116822             6.804195
| 42>   O                    : -9.389042            5.452235             7.337139
| 43>   H                    : -9.485368            5.804453             8.222814
| 44>   H                    : -7.452653            6.228875             7.592350
| 45>   H                    : -7.798064            5.494275             6.044174
| 46>   H                    : -8.502615            7.088903             6.458666
| 47> *
| 48>
| 49> #Run DFT-D3 single point of the particle with dimer basis set
| 50> $new_job
| 51> %base "18-103_DFT_B"
| 52> ! wB97X-D3 def2-TZVP TIGHTSCF CHELPG PMODEL
| 53>
| 54> %scf
| 55> MaxIter 1000
| 56> end
| 57>
| 58> * xyz 0 1
| 59>   C                    : -7.533343            9.986893             10.024184
| 60>   O                    : -8.434405            9.247854             9.253754
| 61>   H                    : -9.360903            9.576773             9.322728
| 62>   H                    : -7.287358            10.958760            9.543611
| 63>   H                    : -7.914960            10.142009            11.017530
| 64>   H                    : -6.603391            9.494522             10.069739
| 65>   C                      -8.215719            6.116822             6.804195
| 66>   O                      -9.389042            5.452235             7.337139
| 67>   H                      -9.485368            5.804453             8.222814
| 68>   H                      -7.452653            6.228875             7.592350
| 69>   H                      -7.798064            5.494275             6.044174
| 70>   H                      -8.502615            7.088903             6.458666
| 71> *
| 72>
| 73>                          ****END OF INPUT****
 Total Charge           Charge          ....    0
 Multiplicity           Mult            ....    1
 Number of Electrons    NEL             ....   36
Dispersion correction           -0.001085599
FINAL SINGLE POINT ENERGY      -231.471072446317
Dispersion correction           -0.000242284
FINAL SINGLE POINT ENERGY      -115.734116001190

CARTESIAN COORDINATES (ANGSTROEM)
---------------------------------
  C     -7.533343    9.986893   10.024184
  O     -8.434405    9.247854    9.253754
  H     -9.360903    9.576773    9.322728
  H     -7.287358   10.958760    9.543611
  H     -7.914960   10.142009   11.017530
  H     -6.603391    9.494522   10.069739
  C     -8.215719    6.116822    6.804195
  O     -9.389042    5.452235    7.337139
  H     -9.485368    5.804453    8.222814
  H     -7.452653    6.228875    7.592350
  H     -7.798064    5.494275    6.044174
  H     -8.502615    7.088903    6.458666

 Multiplicity           Mult            ....    1
 Number of Electrons    NEL             ....   18
 Basis Dimension        Dim             ....  172

ORBITAL ENERGIES
----------------

  NO   OCC          E(Eh)            E(eV)
   0   2.0000     -19.227125      -523.1967
   1   2.0000     -10.311889      -280.6008
   2   2.0000      -1.126318       -30.6487
   3   2.0000      -0.797654       -21.7053
   4   2.0000      -0.602700       -16.4003
   5   2.0000      -0.547415       -14.8959
   6   2.0000      -0.520302       -14.1581
   7   2.0000      -0.439276       -11.9533
   8   2.0000      -0.374377       -10.1873
   9   0.0000       0.075136         2.0445
  10   0.0000       0.114533         3.1166
  11   0.0000       0.152174         4.1409
  12   0.0000       0.160684         4.3724
  13   0.0000       0.190447         5.1823

MULLIKEN ATOMIC CHARGES
-----------------------
   0 C :   -0.000019
   1 O :    0.000102
   2 H :   -0.000033
   3 H :   -0.000002
   4 H :   -0.000005
   5 H :   -0.000033
   6 C :   -0.166559
   7 O :   -0.479154
   8 H :    0.310938
   9 H :    0.102772
  10 H :    0.126613
  11 H :    0.105378
Sum of atomic charges:   -0.0000000

LOEWDIN ATOMIC CHARGES
----------------------
   0 C :   -0.000081
   1 O :   -0.000236
   2 H :   -0.000058
   3 H :   -0.000001
   4 H :   -0.000001
   5 H :   -0.000027
   6 C :   -0.350698
   7 O :   -0.105059
   8 H :    0.163735
   9 H :    0.098154
  10 H :    0.102705
  11 H :    0.091566

  Mayer bond orders larger than 0.1
B(  6-C ,  7-O ) :   0.9931 B(  6-C ,  9-H ) :   0.9826 B(  6-C , 10-H ) :   0.9738
B(  6-C , 11-H ) :   0.9760 B(  7-O ,  8-H ) :   0.9055

Dispersion correction           -0.000229185
FINAL SINGLE POINT ENERGY      -115.734806294421

DIPOLE MOMENT
-------------
                                X             Y             Z
Electronic contribution:     -1.44255      -0.87307       0.42735
Nuclear contribution   :      1.88181       1.36267      -0.09205
                        -----------------------------------------
Total Dipole Moment    :      0.43927       0.48961       0.33530
                        -----------------------------------------
Magnitude (a.u.)       :      0.73831
Magnitude (Debye)      :      1.87662

Rotational constants in cm-1:     4.261750     0.810564     0.782740
Rotational constants in MHz : 127764.064158 24300.091514 23465.953872

                             ****ORCA TERMINATED NORMALLY****
TOTAL RUN TIME: 0 days 0 hours 1 minutes 4 seconds 6 msec
