                         Program Version 4.1.2  - RELEASE  -
|  1> #Run DFT-D3 single point of the dimer
|  2> ! wB97X-D3 def2-TZVP TIGHTSCF CHELPG PMODEL PAL8
|  3>
|  4> %base "11-72_DFT_AB"
|  5>
|  6> %scf
|  7> MaxIter 1000
|  8> end
|  9>
| 10> * xyz 0 1
| 11>   C                      11.210682            9.246803             6.188863
| 12>   O                      11.549430            8.223964             5.224175
| 13>   H                      11.164311            8.328825             4.327987
| 14>   H                      10.399351            9.964930             5.876393
| 15>   H                      11.010089            8.837820             7.195674
| 16>   H                      12.169177            9.877960             6.296828
| 17>   C                      9.157064             9.774572             1.728110
| 18>   O                      9.164035             8.755019             2.668343
| 19>   H                      8.542077             8.981119             3.309272
| 20>   H                      8.202085             9.881156             1.210295
| 21>   H                      9.271872             10.805680            2.209505
| 22>   H                      10.024910            9.623918             1.030928
| 23> *
| 24>
| 25> #Run DFT-D3 single point of the molecule with dimer basis set
| 26> $new_job
| 27> %base "11-72_DFT_A"
| 28> ! wB97X-D3 def2-TZVP TIGHTSCF CHELPG PMODEL
| 29>
| 30> %scf
| 31> MaxIter 1000
| 32> end
| 33>
| 34> * xyz 0 1
| 35>   C                      11.210682            9.246803             6.188863
| 36>   O                      11.549430            8.223964             5.224175
| 37>   H                      11.164311            8.328825             4.327987
| 38>   H                      10.399351            9.964930             5.876393
| 39>   H                      11.010089            8.837820             7.195674
| 40>   H                      12.169177            9.877960             6.296828
| 41>   C                    : 9.157064             9.774572             1.728110
| 42>   O                    : 9.164035             8.755019             2.668343
| 43>   H                    : 8.542077             8.981119             3.309272
| 44>   H                    : 8.202085             9.881156             1.210295
| 45>   H                    : 9.271872             10.805680            2.209505
| 46>   H                    : 10.024910            9.623918             1.030928
| 47> *
| 48>
| 49> #Run DFT-D3 single point of the particle with dimer basis set
| 50> $new_job
| 51> %base "11-72_DFT_B"
| 52> ! wB97X-D3 def2-TZVP TIGHTSCF CHELPG PMODEL
| 53>
| 54> %scf
| 55> MaxIter 1000
| 56> end
| 57>
| 58> * xyz 0 1
| 59>   C                    : 11.210682            9.246803             6.188863
| 60>   O                    : 11.549430            8.223964             5.224175
| 61>   H                    : 11.164311            8.328825             4.327987
| 62>   H                    : 10.399351            9.964930             5.876393
| 63>   H                    : 11.010089            8.837820             7.195674
| 64>   H                    : 12.169177            9.877960             6.296828
| 65>   C                      9.157064             9.774572             1.728110
| 66>   O                      9.164035             8.755019             2.668343
| 67>   H                      8.542077             8.981119             3.309272
| 68>   H                      8.202085             9.881156             1.210295
| 69>   H                      9.271872             10.805680            2.209505
| 70>   H                      10.024910            9.623918             1.030928
| 71> *
| 72>
| 73>                          ****END OF INPUT****
 Total Charge           Charge          ....    0
 Multiplicity           Mult            ....    1
 Number of Electrons    NEL             ....   36
Dispersion correction           -0.001512410
FINAL SINGLE POINT ENERGY      -231.465355932168
Dispersion correction           -0.000298088
FINAL SINGLE POINT ENERGY      -115.728322171656

CARTESIAN COORDINATES (ANGSTROEM)
---------------------------------
  C     11.210682    9.246803    6.188863
  O     11.549430    8.223964    5.224175
  H     11.164311    8.328825    4.327987
  H     10.399351    9.964930    5.876393
  H     11.010089    8.837820    7.195674
  H     12.169177    9.877960    6.296828
  C      9.157064    9.774572    1.728110
  O      9.164035    8.755019    2.668343
  H      8.542077    8.981119    3.309272
  H      8.202085    9.881156    1.210295
  H      9.271872   10.805680    2.209505
  H     10.024910    9.623918    1.030928

 Multiplicity           Mult            ....    1
 Number of Electrons    NEL             ....   18
 Basis Dimension        Dim             ....  172

ORBITAL ENERGIES
----------------

  NO   OCC          E(Eh)            E(eV)
   0   2.0000     -19.230583      -523.2908
   1   2.0000     -10.319528      -280.8086
   2   2.0000      -1.156213       -31.4622
   3   2.0000      -0.792947       -21.5772
   4   2.0000      -0.625008       -17.0073
   5   2.0000      -0.538741       -14.6599
   6   2.0000      -0.528166       -14.3721
   7   2.0000      -0.439174       -11.9505
   8   2.0000      -0.371927       -10.1206
   9   0.0000       0.088275         2.4021
  10   0.0000       0.124286         3.3820
  11   0.0000       0.156014         4.2454
  12   0.0000       0.176745         4.8095
  13   0.0000       0.192209         5.2303

MULLIKEN ATOMIC CHARGES
-----------------------
   0 C :    0.000326
   1 O :    0.000313
   2 H :   -0.006242
   3 H :   -0.002028
   4 H :   -0.000071
   5 H :   -0.000072
   6 C :   -0.172748
   7 O :   -0.445188
   8 H :    0.308273
   9 H :    0.103408
  10 H :    0.090318
  11 H :    0.123710
Sum of atomic charges:   -0.0000000

LOEWDIN ATOMIC CHARGES
----------------------
   0 C :   -0.001121
   1 O :   -0.000764
   2 H :   -0.011757
   3 H :   -0.000728
   4 H :   -0.000011
   5 H :   -0.000006
   6 C :   -0.413523
   7 O :   -0.024560
   8 H :    0.146955
   9 H :    0.091629
  10 H :    0.098165
  11 H :    0.115721

  Mayer bond orders larger than 0.1
B(  6-C ,  7-O ) :   0.9975 B(  6-C ,  9-H ) :   0.9673 B(  6-C , 10-H ) :   0.9769
B(  6-C , 11-H ) :   0.9745 B(  7-O ,  8-H ) :   0.9071

Dispersion correction           -0.000230558
FINAL SINGLE POINT ENERGY      -115.732562525593

DIPOLE MOMENT
-------------
                                X             Y             Z
Electronic contribution:      0.07632      -1.54431       1.11682
Nuclear contribution   :     -0.49440       2.06154      -1.06012
                        -----------------------------------------
Total Dipole Moment    :     -0.41809       0.51723       0.05670
                        -----------------------------------------
Magnitude (a.u.)       :      0.66749
Magnitude (Debye)      :      1.69662

Rotational constants in cm-1:     4.203790     0.859529     0.819079
Rotational constants in MHz : 126026.451650 25768.031405 24555.375843

                             ****ORCA TERMINATED NORMALLY****
TOTAL RUN TIME: 0 days 0 hours 1 minutes 12 seconds 438 msec
