                         Program Version 4.1.2  - RELEASE  -
|  1> #Run DFT-D3 single point of the dimer
|  2> ! wB97X-D3 def2-TZVP TIGHTSCF CHELPG PMODEL PAL8
|  3>
|  4> %base "2-117_DFT_AB"
|  5>
|  6> %scf
|  7> MaxIter 1000
|  8> end
|  9>
| 10> * xyz 0 1
| 11>   C                      -9.194448            -7.165680            8.606012
| 12>   O                      -9.483807            -8.443194            7.922237
| 13>   H                      -8.780202            -9.018449            8.087057
| 14>   H                      -8.510834            -6.560886            7.980636
| 15>   H                      -10.076085           -6.566288            8.744051
| 16>   H                      -8.775180            -7.380842            9.649389
| 17>   C                      -8.600373            -11.666888           5.804609
| 18>   O                      -9.658383            -10.810582           6.072233
| 19>   H                      -10.396045           -11.217834           5.607485
| 20>   H                      -7.735293            -11.223088           5.223448
| 21>   H                      -8.153642            -12.001849           6.674101
| 22>   H                      -8.971639            -12.411657           5.175748
| 23> *
| 24>
| 25> #Run DFT-D3 single point of the molecule with dimer basis set
| 26> $new_job
| 27> %base "2-117_DFT_A"
| 28> ! wB97X-D3 def2-TZVP TIGHTSCF CHELPG PMODEL
| 29>
| 30> %scf
| 31> MaxIter 1000
| 32> end
| 33>
| 34> * xyz 0 1
| 35>   C                      -9.194448            -7.165680            8.606012
| 36>   O                      -9.483807            -8.443194            7.922237
| 37>   H                      -8.780202            -9.018449            8.087057
| 38>   H                      -8.510834            -6.560886            7.980636
| 39>   H                      -10.076085           -6.566288            8.744051
| 40>   H                      -8.775180            -7.380842            9.649389
| 41>   C                    : -8.600373            -11.666888           5.804609
| 42>   O                    : -9.658383            -10.810582           6.072233
| 43>   H                    : -10.396045           -11.217834           5.607485
| 44>   H                    : -7.735293            -11.223088           5.223448
| 45>   H                    : -8.153642            -12.001849           6.674101
| 46>   H                    : -8.971639            -12.411657           5.175748
| 47> *
| 48>
| 49> #Run DFT-D3 single point of the particle with dimer basis set
| 50> $new_job
| 51> %base "2-117_DFT_B"
| 52> ! wB97X-D3 def2-TZVP TIGHTSCF CHELPG PMODEL
| 53>
| 54> %scf
| 55> MaxIter 1000
| 56> end
| 57>
| 58> * xyz 0 1
| 59>   C                    : -9.194448            -7.165680            8.606012
| 60>   O                    : -9.483807            -8.443194            7.922237
| 61>   H                    : -8.780202            -9.018449            8.087057
| 62>   H                    : -8.510834            -6.560886            7.980636
| 63>   H                    : -10.076085           -6.566288            8.744051
| 64>   H                    : -8.775180            -7.380842            9.649389
| 65>   C                      -8.600373            -11.666888           5.804609
| 66>   O                      -9.658383            -10.810582           6.072233
| 67>   H                      -10.396045           -11.217834           5.607485
| 68>   H                      -7.735293            -11.223088           5.223448
| 69>   H                      -8.153642            -12.001849           6.674101
| 70>   H                      -8.971639            -12.411657           5.175748
| 71> *
| 72>
| 73>                          ****END OF INPUT****
 Total Charge           Charge          ....    0
 Multiplicity           Mult            ....    1
 Number of Electrons    NEL             ....   36
Dispersion correction           -0.001299383
FINAL SINGLE POINT ENERGY      -231.454070034156
Dispersion correction           -0.000270809
FINAL SINGLE POINT ENERGY      -115.730629035143

CARTESIAN COORDINATES (ANGSTROEM)
---------------------------------
  C     -9.194448   -7.165680    8.606012
  O     -9.483807   -8.443194    7.922237
  H     -8.780202   -9.018449    8.087057
  H     -8.510834   -6.560886    7.980636
  H    -10.076085   -6.566288    8.744051
  H     -8.775180   -7.380842    9.649389
  C     -8.600373  -11.666888    5.804609
  O     -9.658383  -10.810582    6.072233
  H    -10.396045  -11.217834    5.607485
  H     -7.735293  -11.223088    5.223448
  H     -8.153642  -12.001849    6.674101
  H     -8.971639  -12.411657    5.175748

 Multiplicity           Mult            ....    1
 Number of Electrons    NEL             ....   18
 Basis Dimension        Dim             ....  172

ORBITAL ENERGIES
----------------

  NO   OCC          E(Eh)            E(eV)
   0   2.0000     -19.231076      -523.3042
   1   2.0000     -10.302712      -280.3511
   2   2.0000      -1.148716       -31.2581
   3   2.0000      -0.797939       -21.7130
   4   2.0000      -0.622452       -16.9378
   5   2.0000      -0.550301       -14.9744
   6   2.0000      -0.532271       -14.4838
   7   2.0000      -0.437540       -11.9061
   8   2.0000      -0.370675       -10.0866
   9   0.0000       0.097071         2.6414
  10   0.0000       0.112969         3.0740
  11   0.0000       0.155528         4.2321
  12   0.0000       0.180556         4.9132
  13   0.0000       0.204014         5.5515

MULLIKEN ATOMIC CHARGES
-----------------------
   0 C :    0.000208
   1 O :    0.000151
   2 H :   -0.003932
   3 H :   -0.000009
   4 H :    0.000041
   5 H :   -0.000007
   6 C :   -0.158809
   7 O :   -0.456093
   8 H :    0.314868
   9 H :    0.089138
  10 H :    0.111934
  11 H :    0.102509
Sum of atomic charges:   -0.0000000

LOEWDIN ATOMIC CHARGES
----------------------
   0 C :   -0.000294
   1 O :   -0.006562
   2 H :   -0.004286
   3 H :   -0.000010
   4 H :   -0.000007
   5 H :   -0.000007
   6 C :   -0.396978
   7 O :   -0.048118
   8 H :    0.176756
   9 H :    0.103990
  10 H :    0.086674
  11 H :    0.088843

  Mayer bond orders larger than 0.1
B(  6-C ,  7-O ) :   1.0173 B(  6-C ,  9-H ) :   0.9723 B(  6-C , 10-H ) :   0.9818
B(  6-C , 11-H ) :   0.9954 B(  7-O ,  8-H ) :   0.9027

Dispersion correction           -0.000221633
FINAL SINGLE POINT ENERGY      -115.725770354204

DIPOLE MOMENT
-------------
                                X             Y             Z
Electronic contribution:     -1.36198       1.13837       0.54169
Nuclear contribution   :      1.27373      -1.75136      -0.94018
                        -----------------------------------------
Total Dipole Moment    :     -0.08825      -0.61299      -0.39849
                        -----------------------------------------
Magnitude (a.u.)       :      0.73644
Magnitude (Debye)      :      1.87187

Rotational constants in cm-1:     4.473481     0.868513     0.830753
Rotational constants in MHz : 134111.575373 26037.351801 24905.342887

                             ****ORCA TERMINATED NORMALLY****
TOTAL RUN TIME: 0 days 0 hours 5 minutes 59 seconds 117 msec
