                         Program Version 4.1.2  - RELEASE  -
|  1> #Run DFT-D3 single point of the dimer
|  2> ! wB97X-D3 def2-TZVP TIGHTSCF CHELPG PMODEL PAL8
|  3>
|  4> %base "9-133_DFT_AB"
|  5>
|  6> %scf
|  7> MaxIter 1000
|  8> end
|  9>
| 10> * xyz 0 1
| 11>   C                      -5.865951            8.801182             9.237158
| 12>   O                      -4.504364            9.024511             9.438902
| 13>   H                      -4.386974            8.905559             10.395434
| 14>   H                      -6.114894            8.254094             8.307403
| 15>   H                      -6.434138            8.201952             9.981236
| 16>   H                      -6.459091            9.717621             9.220402
| 17>   C                      -4.001292            5.700041             11.026275
| 18>   O                      -3.086965            5.555457             9.920102
| 19>   H                      -2.367967            6.146032             10.115542
| 20>   H                      -3.679989            5.258567             11.966806
| 21>   H                      -4.174496            6.808621             11.212356
| 22>   H                      -4.976876            5.231528             10.844541
| 23> *
| 24>
| 25> #Run DFT-D3 single point of the molecule with dimer basis set
| 26> $new_job
| 27> %base "9-133_DFT_A"
| 28> ! wB97X-D3 def2-TZVP TIGHTSCF CHELPG PMODEL
| 29>
| 30> %scf
| 31> MaxIter 1000
| 32> end
| 33>
| 34> * xyz 0 1
| 35>   C                      -5.865951            8.801182             9.237158
| 36>   O                      -4.504364            9.024511             9.438902
| 37>   H                      -4.386974            8.905559             10.395434
| 38>   H                      -6.114894            8.254094             8.307403
| 39>   H                      -6.434138            8.201952             9.981236
| 40>   H                      -6.459091            9.717621             9.220402
| 41>   C                    : -4.001292            5.700041             11.026275
| 42>   O                    : -3.086965            5.555457             9.920102
| 43>   H                    : -2.367967            6.146032             10.115542
| 44>   H                    : -3.679989            5.258567             11.966806
| 45>   H                    : -4.174496            6.808621             11.212356
| 46>   H                    : -4.976876            5.231528             10.844541
| 47> *
| 48>
| 49> #Run DFT-D3 single point of the particle with dimer basis set
| 50> $new_job
| 51> %base "9-133_DFT_B"
| 52> ! wB97X-D3 def2-TZVP TIGHTSCF CHELPG PMODEL
| 53>
| 54> %scf
| 55> MaxIter 1000
| 56> end
| 57>
| 58> * xyz 0 1
| 59>   C                    : -5.865951            8.801182             9.237158
| 60>   O                    : -4.504364            9.024511             9.438902
| 61>   H                    : -4.386974            8.905559             10.395434
| 62>   H                    : -6.114894            8.254094             8.307403
| 63>   H                    : -6.434138            8.201952             9.981236
| 64>   H                    : -6.459091            9.717621             9.220402
| 65>   C                      -4.001292            5.700041             11.026275
| 66>   O                      -3.086965            5.555457             9.920102
| 67>   H                      -2.367967            6.146032             10.115542
| 68>   H                      -3.679989            5.258567             11.966806
| 69>   H                      -4.174496            6.808621             11.212356
| 70>   H                      -4.976876            5.231528             10.844541
| 71> *
| 72>
| 73>                          ****END OF INPUT****
 Total Charge           Charge          ....    0
 Multiplicity           Mult            ....    1
 Number of Electrons    NEL             ....   36
Dispersion correction           -0.001863009
FINAL SINGLE POINT ENERGY      -231.464651635260
Dispersion correction           -0.000259621
FINAL SINGLE POINT ENERGY      -115.731338218125

CARTESIAN COORDINATES (ANGSTROEM)
---------------------------------
  C     -5.865951    8.801182    9.237158
  O     -4.504364    9.024511    9.438902
  H     -4.386974    8.905559   10.395434
  H     -6.114894    8.254094    8.307403
  H     -6.434138    8.201952    9.981236
  H     -6.459091    9.717621    9.220402
  C     -4.001292    5.700041   11.026275
  O     -3.086965    5.555457    9.920102
  H     -2.367967    6.146032   10.115542
  H     -3.679989    5.258567   11.966806
  H     -4.174496    6.808621   11.212356
  H     -4.976876    5.231528   10.844541

 Multiplicity           Mult            ....    1
 Number of Electrons    NEL             ....   18
 Basis Dimension        Dim             ....  172

ORBITAL ENERGIES
----------------

  NO   OCC          E(Eh)            E(eV)
   0   2.0000     -19.233087      -523.3589
   1   2.0000     -10.320609      -280.8380
   2   2.0000      -1.132891       -30.8275
   3   2.0000      -0.794967       -21.6322
   4   2.0000      -0.605813       -16.4850
   5   2.0000      -0.537503       -14.6262
   6   2.0000      -0.525218       -14.2919
   7   2.0000      -0.437317       -11.9000
   8   2.0000      -0.376167       -10.2360
   9   0.0000       0.083843         2.2815
  10   0.0000       0.121439         3.3045
  11   0.0000       0.150578         4.0974
  12   0.0000       0.165084         4.4922
  13   0.0000       0.199530         5.4295

MULLIKEN ATOMIC CHARGES
-----------------------
   0 C :    0.002033
   1 O :    0.000224
   2 H :    0.000332
   3 H :   -0.000291
   4 H :   -0.001668
   5 H :    0.000063
   6 C :   -0.177442
   7 O :   -0.467481
   8 H :    0.313436
   9 H :    0.109520
  10 H :    0.098703
  11 H :    0.122571
Sum of atomic charges:   -0.0000000

LOEWDIN ATOMIC CHARGES
----------------------
   0 C :   -0.002227
   1 O :   -0.001209
   2 H :   -0.005252
   3 H :   -0.000063
   4 H :   -0.000991
   5 H :   -0.000010
   6 C :   -0.371211
   7 O :   -0.089582
   8 H :    0.163035
   9 H :    0.092031
  10 H :    0.106486
  11 H :    0.108995

  Mayer bond orders larger than 0.1
B(  6-C ,  7-O ) :   0.9967 B(  6-C ,  9-H ) :   0.9684 B(  6-C , 10-H ) :   0.9831
B(  6-C , 11-H ) :   0.9745 B(  7-O ,  8-H ) :   0.9032

Dispersion correction           -0.000258218
FINAL SINGLE POINT ENERGY      -115.733394813611

DIPOLE MOMENT
-------------
                                X             Y             Z
Electronic contribution:      1.12211      -0.38433      -1.52313
Nuclear contribution   :     -1.04596       0.79818       2.09252
                        -----------------------------------------
Total Dipole Moment    :      0.07615       0.41385       0.56939
                        -----------------------------------------
Magnitude (a.u.)       :      0.70801
Magnitude (Debye)      :      1.79962

Rotational constants in cm-1:     4.281391     0.799514     0.769976
Rotational constants in MHz : 128352.871610 23968.825075 23083.285093

                             ****ORCA TERMINATED NORMALLY****
TOTAL RUN TIME: 0 days 0 hours 0 minutes 44 seconds 956 msec
