                         Program Version 4.1.2  - RELEASE  -
|  1> #Run DFT-D3 single point of the dimer
|  2> ! wB97X-D3 def2-TZVP TIGHTSCF CHELPG PMODEL PAL8
|  3>
|  4> %base "21-94_DFT_AB"
|  5>
|  6> %scf
|  7> MaxIter 1000
|  8> end
|  9>
| 10> * xyz 0 1
| 11>   C                      -0.279772            8.880130             -5.984317
| 12>   O                      0.783245             8.630714             -6.886738
| 13>   H                      0.274807             8.473379             -7.649880
| 14>   H                      -0.903684            9.718744             -6.263217
| 15>   H                      -0.970593            8.024726             -5.917269
| 16>   H                      0.085905             9.093486             -4.943612
| 17>   C                      -0.411546            4.687511             -8.903536
| 18>   O                      -0.678299            5.400739             -10.086564
| 19>   H                      -0.546198            4.894099             -10.882617
| 20>   H                      -0.136972            5.398320             -8.128632
| 21>   H                      -1.162960            4.005270             -8.509791
| 22>   H                      0.489109             4.041766             -8.921315
| 23> *
| 24>
| 25> #Run DFT-D3 single point of the molecule with dimer basis set
| 26> $new_job
| 27> %base "21-94_DFT_A"
| 28> ! wB97X-D3 def2-TZVP TIGHTSCF CHELPG PMODEL
| 29>
| 30> %scf
| 31> MaxIter 1000
| 32> end
| 33>
| 34> * xyz 0 1
| 35>   C                      -0.279772            8.880130             -5.984317
| 36>   O                      0.783245             8.630714             -6.886738
| 37>   H                      0.274807             8.473379             -7.649880
| 38>   H                      -0.903684            9.718744             -6.263217
| 39>   H                      -0.970593            8.024726             -5.917269
| 40>   H                      0.085905             9.093486             -4.943612
| 41>   C                    : -0.411546            4.687511             -8.903536
| 42>   O                    : -0.678299            5.400739             -10.086564
| 43>   H                    : -0.546198            4.894099             -10.882617
| 44>   H                    : -0.136972            5.398320             -8.128632
| 45>   H                    : -1.162960            4.005270             -8.509791
| 46>   H                    : 0.489109             4.041766             -8.921315
| 47> *
| 48>
| 49> #Run DFT-D3 single point of the particle with dimer basis set
| 50> $new_job
| 51> %base "21-94_DFT_B"
| 52> ! wB97X-D3 def2-TZVP TIGHTSCF CHELPG PMODEL
| 53>
| 54> %scf
| 55> MaxIter 1000
| 56> end
| 57>
| 58> * xyz 0 1
| 59>   C                    : -0.279772            8.880130             -5.984317
| 60>   O                    : 0.783245             8.630714             -6.886738
| 61>   H                    : 0.274807             8.473379             -7.649880
| 62>   H                    : -0.903684            9.718744             -6.263217
| 63>   H                    : -0.970593            8.024726             -5.917269
| 64>   H                    : 0.085905             9.093486             -4.943612
| 65>   C                      -0.411546            4.687511             -8.903536
| 66>   O                      -0.678299            5.400739             -10.086564
| 67>   H                      -0.546198            4.894099             -10.882617
| 68>   H                      -0.136972            5.398320             -8.128632
| 69>   H                      -1.162960            4.005270             -8.509791
| 70>   H                      0.489109             4.041766             -8.921315
| 71> *
| 72>
| 73>                          ****END OF INPUT****
 Total Charge           Charge          ....    0
 Multiplicity           Mult            ....    1
 Number of Electrons    NEL             ....   36
Dispersion correction           -0.001022646
FINAL SINGLE POINT ENERGY      -231.466357003925
Dispersion correction           -0.000223180
FINAL SINGLE POINT ENERGY      -115.732123685345

CARTESIAN COORDINATES (ANGSTROEM)
---------------------------------
  C     -0.279772    8.880130   -5.984317
  O      0.783245    8.630714   -6.886738
  H      0.274807    8.473379   -7.649880
  H     -0.903684    9.718744   -6.263217
  H     -0.970593    8.024726   -5.917269
  H      0.085905    9.093486   -4.943612
  C     -0.411546    4.687511   -8.903536
  O     -0.678299    5.400739  -10.086564
  H     -0.546198    4.894099  -10.882617
  H     -0.136972    5.398320   -8.128632
  H     -1.162960    4.005270   -8.509791
  H      0.489109    4.041766   -8.921315

 Multiplicity           Mult            ....    1
 Number of Electrons    NEL             ....   18
 Basis Dimension        Dim             ....  172

ORBITAL ENERGIES
----------------

  NO   OCC          E(Eh)            E(eV)
   0   2.0000     -19.232713      -523.3487
   1   2.0000     -10.313064      -280.6327
   2   2.0000      -1.137831       -30.9620
   3   2.0000      -0.801658       -21.8142
   4   2.0000      -0.621517       -16.9123
   5   2.0000      -0.538287       -14.6475
   6   2.0000      -0.523127       -14.2350
   7   2.0000      -0.427284       -11.6270
   8   2.0000      -0.376713       -10.2509
   9   0.0000       0.089095         2.4244
  10   0.0000       0.119288         3.2460
  11   0.0000       0.148819         4.0496
  12   0.0000       0.167905         4.5689
  13   0.0000       0.194945         5.3047

MULLIKEN ATOMIC CHARGES
-----------------------
   0 C :   -0.000442
   1 O :   -0.000024
   2 H :    0.000309
   3 H :    0.000003
   4 H :    0.000107
   5 H :   -0.000002
   6 C :   -0.166034
   7 O :   -0.478800
   8 H :    0.317829
   9 H :    0.123320
  10 H :    0.105259
  11 H :    0.098473
Sum of atomic charges:    0.0000000

LOEWDIN ATOMIC CHARGES
----------------------
   0 C :   -0.000257
   1 O :   -0.000121
   2 H :   -0.000315
   3 H :   -0.000002
   4 H :   -0.000159
   5 H :   -0.000001
   6 C :   -0.397723
   7 O :   -0.063444
   8 H :    0.164008
   9 H :    0.108294
  10 H :    0.092907
  11 H :    0.096811

  Mayer bond orders larger than 0.1
B(  6-C ,  7-O ) :   1.0094 B(  6-C ,  9-H ) :   0.9745 B(  6-C , 10-H ) :   0.9682
B(  6-C , 11-H ) :   0.9774 B(  7-O ,  8-H ) :   0.8957

Dispersion correction           -0.000279661
FINAL SINGLE POINT ENERGY      -115.732633101130

DIPOLE MOMENT
-------------
                                X             Y             Z
Electronic contribution:     -0.51596       1.05119      -1.58152
Nuclear contribution   :      0.73487      -1.66769       1.52912
                        -----------------------------------------
Total Dipole Moment    :      0.21891      -0.61650      -0.05240
                        -----------------------------------------
Magnitude (a.u.)       :      0.65631
Magnitude (Debye)      :      1.66820

Rotational constants in cm-1:     4.581382     0.814967     0.790479
Rotational constants in MHz : 137346.386372 24432.102232 23697.951168

                             ****ORCA TERMINATED NORMALLY****
TOTAL RUN TIME: 0 days 0 hours 0 minutes 45 seconds 461 msec
