                         Program Version 4.1.2  - RELEASE  -
|  1> #Run DFT-D3 single point of the dimer
|  2> ! wB97X-D3 def2-TZVP TIGHTSCF CHELPG PMODEL PAL8
|  3>
|  4> %base "1-146_DFT_AB"
|  5>
|  6> %scf
|  7> MaxIter 1000
|  8> end
|  9>
| 10> * xyz 0 1
| 11>   C                      4.251394             7.294140             -9.071538
| 12>   O                      4.129112             8.085859             -7.910491
| 13>   H                      4.697433             7.799815             -7.200312
| 14>   H                      3.814201             6.341575             -8.870141
| 15>   H                      3.722404             7.551431             -9.934583
| 16>   H                      5.262686             7.043294             -9.364330
| 17>   C                      3.680449             10.607964            -5.703086
| 18>   O                      4.071632             9.597134             -6.627084
| 19>   H                      4.160645             9.797598             -7.551576
| 20>   H                      3.991105             10.236331            -4.739492
| 21>   H                      4.161598             11.645183            -5.782352
| 22>   H                      2.621245             10.765525            -5.757643
| 23> *
| 24>
| 25> #Run DFT-D3 single point of the molecule with dimer basis set
| 26> $new_job
| 27> %base "1-146_DFT_A"
| 28> ! wB97X-D3 def2-TZVP TIGHTSCF CHELPG PMODEL
| 29>
| 30> %scf
| 31> MaxIter 1000
| 32> end
| 33>
| 34> * xyz 0 1
| 35>   C                      4.251394             7.294140             -9.071538
| 36>   O                      4.129112             8.085859             -7.910491
| 37>   H                      4.697433             7.799815             -7.200312
| 38>   H                      3.814201             6.341575             -8.870141
| 39>   H                      3.722404             7.551431             -9.934583
| 40>   H                      5.262686             7.043294             -9.364330
| 41>   C                    : 3.680449             10.607964            -5.703086
| 42>   O                    : 4.071632             9.597134             -6.627084
| 43>   H                    : 4.160645             9.797598             -7.551576
| 44>   H                    : 3.991105             10.236331            -4.739492
| 45>   H                    : 4.161598             11.645183            -5.782352
| 46>   H                    : 2.621245             10.765525            -5.757643
| 47> *
| 48>
| 49> #Run DFT-D3 single point of the particle with dimer basis set
| 50> $new_job
| 51> %base "1-146_DFT_B"
| 52> ! wB97X-D3 def2-TZVP TIGHTSCF CHELPG PMODEL
| 53>
| 54> %scf
| 55> MaxIter 1000
| 56> end
| 57>
| 58> * xyz 0 1
| 59>   C                    : 4.251394             7.294140             -9.071538
| 60>   O                    : 4.129112             8.085859             -7.910491
| 61>   H                    : 4.697433             7.799815             -7.200312
| 62>   H                    : 3.814201             6.341575             -8.870141
| 63>   H                    : 3.722404             7.551431             -9.934583
| 64>   H                    : 5.262686             7.043294             -9.364330
| 65>   C                      3.680449             10.607964            -5.703086
| 66>   O                      4.071632             9.597134             -6.627084
| 67>   H                      4.160645             9.797598             -7.551576
| 68>   H                      3.991105             10.236331            -4.739492
| 69>   H                      4.161598             11.645183            -5.782352
| 70>   H                      2.621245             10.765525            -5.757643
| 71> *
| 72>
| 73>                          ****END OF INPUT****
 Total Charge           Charge          ....    0
 Multiplicity           Mult            ....    1
 Number of Electrons    NEL             ....   36
Dispersion correction           -0.001569525
FINAL SINGLE POINT ENERGY      -231.424738357206
Dispersion correction           -0.000248047
FINAL SINGLE POINT ENERGY      -115.727120572591

CARTESIAN COORDINATES (ANGSTROEM)
---------------------------------
  C      4.251394    7.294140   -9.071538
  O      4.129112    8.085859   -7.910491
  H      4.697433    7.799815   -7.200312
  H      3.814201    6.341575   -8.870141
  H      3.722404    7.551431   -9.934583
  H      5.262686    7.043294   -9.364330
  C      3.680449   10.607964   -5.703086
  O      4.071632    9.597134   -6.627084
  H      4.160645    9.797598   -7.551576
  H      3.991105   10.236331   -4.739492
  H      4.161598   11.645183   -5.782352
  H      2.621245   10.765525   -5.757643

 Multiplicity           Mult            ....    1
 Number of Electrons    NEL             ....   18
 Basis Dimension        Dim             ....  172

ORBITAL ENERGIES
----------------

  NO   OCC          E(Eh)            E(eV)
   0   2.0000     -19.226716      -523.1855
   1   2.0000     -10.317821      -280.7622
   2   2.0000      -1.128097       -30.6971
   3   2.0000      -0.802785       -21.8449
   4   2.0000      -0.613990       -16.7075
   5   2.0000      -0.544397       -14.8138
   6   2.0000      -0.518203       -14.1010
   7   2.0000      -0.422148       -11.4872
   8   2.0000      -0.374601       -10.1934
   9   0.0000       0.087616         2.3841
  10   0.0000       0.130481         3.5506
  11   0.0000       0.152126         4.1396
  12   0.0000       0.180763         4.9188
  13   0.0000       0.198975         5.4144

MULLIKEN ATOMIC CHARGES
-----------------------
   0 C :   -0.000919
   1 O :   -0.001516
   2 H :   -0.010712
   3 H :    0.000192
   4 H :   -0.000011
   5 H :   -0.000072
   6 C :   -0.163716
   7 O :   -0.468887
   8 H :    0.317988
   9 H :    0.123403
  10 H :    0.095375
  11 H :    0.108875
Sum of atomic charges:    0.0000000

LOEWDIN ATOMIC CHARGES
----------------------
   0 C :   -0.005255
   1 O :   -0.102352
   2 H :   -0.028536
   3 H :   -0.000152
   4 H :   -0.000189
   5 H :   -0.000128
   6 C :   -0.368792
   7 O :    0.019014
   8 H :    0.182291
   9 H :    0.107762
  10 H :    0.104264
  11 H :    0.092073

  Mayer bond orders larger than 0.1
B(  6-C ,  7-O ) :   0.9947 B(  6-C ,  9-H ) :   0.9789 B(  6-C , 10-H ) :   0.9655
B(  6-C , 11-H ) :   0.9755 B(  7-O ,  8-H ) :   0.8903

Dispersion correction           -0.000292317
FINAL SINGLE POINT ENERGY      -115.730818447327

DIPOLE MOMENT
-------------
                                X             Y             Z
Electronic contribution:      0.44795      -1.32856      -1.10102
Nuclear contribution   :     -0.55567       1.89706       0.88952
                        -----------------------------------------
Total Dipole Moment    :     -0.10772       0.56850      -0.21149
                        -----------------------------------------
Magnitude (a.u.)       :      0.61606
Magnitude (Debye)      :      1.56590

Rotational constants in cm-1:     4.492027     0.801523     0.780526
Rotational constants in MHz : 134667.588211 24029.067335 23399.582409

                             ****ORCA TERMINATED NORMALLY****
TOTAL RUN TIME: 0 days 0 hours 5 minutes 59 seconds 620 msec
