                         Program Version 4.1.2  - RELEASE  -
|  1> #Run DFT-D3 single point of the dimer
|  2> ! wB97X-D3 def2-TZVP TIGHTSCF CHELPG PMODEL PAL8
|  3>
|  4> %base "19-3_DFT_AB"
|  5>
|  6> %scf
|  7> MaxIter 1000
|  8> end
|  9>
| 10> * xyz 0 1
| 11>   C                      4.218830             -7.367409            10.092198
| 12>   O                      4.342444             -8.557732            10.803951
| 13>   H                      4.070487             -8.609899            11.692965
| 14>   H                      3.801504             -7.551489            9.084576
| 15>   H                      3.484433             -6.691170            10.435203
| 16>   H                      5.199852             -6.817999            10.009492
| 17>   C                      6.259848             -7.037846            6.112969
| 18>   O                      7.006124             -5.919135            6.482023
| 19>   H                      7.929749             -6.229473            6.582186
| 20>   H                      6.674014             -7.345797            5.130091
| 21>   H                      6.195808             -7.890174            6.877800
| 22>   H                      5.252018             -6.719712            5.820286
| 23> *
| 24>
| 25> #Run DFT-D3 single point of the molecule with dimer basis set
| 26> $new_job
| 27> %base "19-3_DFT_A"
| 28> ! wB97X-D3 def2-TZVP TIGHTSCF CHELPG PMODEL
| 29>
| 30> %scf
| 31> MaxIter 1000
| 32> end
| 33>
| 34> * xyz 0 1
| 35>   C                      4.218830             -7.367409            10.092198
| 36>   O                      4.342444             -8.557732            10.803951
| 37>   H                      4.070487             -8.609899            11.692965
| 38>   H                      3.801504             -7.551489            9.084576
| 39>   H                      3.484433             -6.691170            10.435203
| 40>   H                      5.199852             -6.817999            10.009492
| 41>   C                    : 6.259848             -7.037846            6.112969
| 42>   O                    : 7.006124             -5.919135            6.482023
| 43>   H                    : 7.929749             -6.229473            6.582186
| 44>   H                    : 6.674014             -7.345797            5.130091
| 45>   H                    : 6.195808             -7.890174            6.877800
| 46>   H                    : 5.252018             -6.719712            5.820286
| 47> *
| 48>
| 49> #Run DFT-D3 single point of the particle with dimer basis set
| 50> $new_job
| 51> %base "19-3_DFT_B"
| 52> ! wB97X-D3 def2-TZVP TIGHTSCF CHELPG PMODEL
| 53>
| 54> %scf
| 55> MaxIter 1000
| 56> end
| 57>
| 58> * xyz 0 1
| 59>   C                    : 4.218830             -7.367409            10.092198
| 60>   O                    : 4.342444             -8.557732            10.803951
| 61>   H                    : 4.070487             -8.609899            11.692965
| 62>   H                    : 3.801504             -7.551489            9.084576
| 63>   H                    : 3.484433             -6.691170            10.435203
| 64>   H                    : 5.199852             -6.817999            10.009492
| 65>   C                      6.259848             -7.037846            6.112969
| 66>   O                      7.006124             -5.919135            6.482023
| 67>   H                      7.929749             -6.229473            6.582186
| 68>   H                      6.674014             -7.345797            5.130091
| 69>   H                      6.195808             -7.890174            6.877800
| 70>   H                      5.252018             -6.719712            5.820286
| 71> *
| 72>
| 73>                          ****END OF INPUT****
 Total Charge           Charge          ....    0
 Multiplicity           Mult            ....    1
 Number of Electrons    NEL             ....   36
Dispersion correction           -0.001108550
FINAL SINGLE POINT ENERGY      -231.460245505419
Dispersion correction           -0.000273839
FINAL SINGLE POINT ENERGY      -115.728198011844

CARTESIAN COORDINATES (ANGSTROEM)
---------------------------------
  C      4.218830   -7.367409   10.092198
  O      4.342444   -8.557732   10.803951
  H      4.070487   -8.609899   11.692965
  H      3.801504   -7.551489    9.084576
  H      3.484433   -6.691170   10.435203
  H      5.199852   -6.817999   10.009492
  C      6.259848   -7.037846    6.112969
  O      7.006124   -5.919135    6.482023
  H      7.929749   -6.229473    6.582186
  H      6.674014   -7.345797    5.130091
  H      6.195808   -7.890174    6.877800
  H      5.252018   -6.719712    5.820286

 Multiplicity           Mult            ....    1
 Number of Electrons    NEL             ....   18
 Basis Dimension        Dim             ....  172

ORBITAL ENERGIES
----------------

  NO   OCC          E(Eh)            E(eV)
   0   2.0000     -19.232963      -523.3555
   1   2.0000     -10.319058      -280.7958
   2   2.0000      -1.141143       -31.0521
   3   2.0000      -0.787331       -21.4244
   4   2.0000      -0.606364       -16.5000
   5   2.0000      -0.546185       -14.8625
   6   2.0000      -0.528407       -14.3787
   7   2.0000      -0.427074       -11.6213
   8   2.0000      -0.372236       -10.1291
   9   0.0000       0.086104         2.3430
  10   0.0000       0.114814         3.1242
  11   0.0000       0.147620         4.0169
  12   0.0000       0.170321         4.6347
  13   0.0000       0.185387         5.0446

MULLIKEN ATOMIC CHARGES
-----------------------
   0 C :    0.000619
   1 O :    0.000009
   2 H :    0.000004
   3 H :   -0.000640
   4 H :    0.000016
   5 H :   -0.000468
   6 C :   -0.158861
   7 O :   -0.467595
   8 H :    0.318364
   9 H :    0.097355
  10 H :    0.098526
  11 H :    0.112670
Sum of atomic charges:   -0.0000000

LOEWDIN ATOMIC CHARGES
----------------------
   0 C :   -0.000537
   1 O :   -0.000007
   2 H :   -0.000000
   3 H :   -0.000429
   4 H :   -0.000005
   5 H :   -0.000303
   6 C :   -0.415660
   7 O :   -0.073099
   8 H :    0.183100
   9 H :    0.097841
  10 H :    0.101565
  11 H :    0.107534

  Mayer bond orders larger than 0.1
B(  6-C ,  7-O ) :   1.0032 B(  6-C ,  9-H ) :   0.9876 B(  6-C , 10-H ) :   0.9628
B(  6-C , 11-H ) :   0.9735 B(  7-O ,  8-H ) :   0.8948

Dispersion correction           -0.000239487
FINAL SINGLE POINT ENERGY      -115.730953298962

DIPOLE MOMENT
-------------
                                X             Y             Z
Electronic contribution:      0.84651       1.52980       0.61862
Nuclear contribution   :     -0.56317      -2.11561      -0.72282
                        -----------------------------------------
Total Dipole Moment    :      0.28334      -0.58581      -0.10420
                        -----------------------------------------
Magnitude (a.u.)       :      0.65902
Magnitude (Debye)      :      1.67510

Rotational constants in cm-1:     4.103882     0.843893     0.820868
Rotational constants in MHz : 123031.295334 25299.263297 24609.005045

                             ****ORCA TERMINATED NORMALLY****
TOTAL RUN TIME: 0 days 0 hours 0 minutes 52 seconds 445 msec
