                         Program Version 4.1.2  - RELEASE  -
|  1> #Run DFT-D3 single point of the dimer
|  2> ! wB97X-D3 def2-TZVP TIGHTSCF CHELPG PMODEL PAL8
|  3>
|  4> %base "16-138_DFT_AB"
|  5>
|  6> %scf
|  7> MaxIter 1000
|  8> end
|  9>
| 10> * xyz 0 1
| 11>   C                      -3.172253            6.115077             -9.430730
| 12>   O                      -2.258837            5.717845             -8.440253
| 13>   H                      -1.895937            4.816713             -8.604891
| 14>   H                      -3.875050            5.249466             -9.500495
| 15>   H                      -3.779067            6.980646             -9.198653
| 16>   H                      -2.772807            6.321334             -10.463396
| 17>   C                      -1.631992            1.956017             -9.277053
| 18>   O                      -1.772947            3.220567             -9.838238
| 19>   H                      -1.416225            3.163725             -10.735111
| 20>   H                      -1.824583            1.947769             -8.203156
| 21>   H                      -2.335217            1.321095             -9.892011
| 22>   H                      -0.550905            1.698402             -9.377842
| 23> *
| 24>
| 25> #Run DFT-D3 single point of the molecule with dimer basis set
| 26> $new_job
| 27> %base "16-138_DFT_A"
| 28> ! wB97X-D3 def2-TZVP TIGHTSCF CHELPG PMODEL
| 29>
| 30> %scf
| 31> MaxIter 1000
| 32> end
| 33>
| 34> * xyz 0 1
| 35>   C                      -3.172253            6.115077             -9.430730
| 36>   O                      -2.258837            5.717845             -8.440253
| 37>   H                      -1.895937            4.816713             -8.604891
| 38>   H                      -3.875050            5.249466             -9.500495
| 39>   H                      -3.779067            6.980646             -9.198653
| 40>   H                      -2.772807            6.321334             -10.463396
| 41>   C                    : -1.631992            1.956017             -9.277053
| 42>   O                    : -1.772947            3.220567             -9.838238
| 43>   H                    : -1.416225            3.163725             -10.735111
| 44>   H                    : -1.824583            1.947769             -8.203156
| 45>   H                    : -2.335217            1.321095             -9.892011
| 46>   H                    : -0.550905            1.698402             -9.377842
| 47> *
| 48>
| 49> #Run DFT-D3 single point of the particle with dimer basis set
| 50> $new_job
| 51> %base "16-138_DFT_B"
| 52> ! wB97X-D3 def2-TZVP TIGHTSCF CHELPG PMODEL
| 53>
| 54> %scf
| 55> MaxIter 1000
| 56> end
| 57>
| 58> * xyz 0 1
| 59>   C                    : -3.172253            6.115077             -9.430730
| 60>   O                    : -2.258837            5.717845             -8.440253
| 61>   H                    : -1.895937            4.816713             -8.604891
| 62>   H                    : -3.875050            5.249466             -9.500495
| 63>   H                    : -3.779067            6.980646             -9.198653
| 64>   H                    : -2.772807            6.321334             -10.463396
| 65>   C                      -1.631992            1.956017             -9.277053
| 66>   O                      -1.772947            3.220567             -9.838238
| 67>   H                      -1.416225            3.163725             -10.735111
| 68>   H                      -1.824583            1.947769             -8.203156
| 69>   H                      -2.335217            1.321095             -9.892011
| 70>   H                      -0.550905            1.698402             -9.377842
| 71> *
| 72>
| 73>                          ****END OF INPUT****
 Total Charge           Charge          ....    0
 Multiplicity           Mult            ....    1
 Number of Electrons    NEL             ....   36
Dispersion correction           -0.001866712
FINAL SINGLE POINT ENERGY      -231.467107952349
Dispersion correction           -0.000257956
FINAL SINGLE POINT ENERGY      -115.729704263795

CARTESIAN COORDINATES (ANGSTROEM)
---------------------------------
  C     -3.172253    6.115077   -9.430730
  O     -2.258837    5.717845   -8.440253
  H     -1.895937    4.816713   -8.604891
  H     -3.875050    5.249466   -9.500495
  H     -3.779067    6.980646   -9.198653
  H     -2.772807    6.321334  -10.463396
  C     -1.631992    1.956017   -9.277053
  O     -1.772947    3.220567   -9.838238
  H     -1.416225    3.163725  -10.735111
  H     -1.824583    1.947769   -8.203156
  H     -2.335217    1.321095   -9.892011
  H     -0.550905    1.698402   -9.377842

 Multiplicity           Mult            ....    1
 Number of Electrons    NEL             ....   18
 Basis Dimension        Dim             ....  172

ORBITAL ENERGIES
----------------

  NO   OCC          E(Eh)            E(eV)
   0   2.0000     -19.226310      -523.1745
   1   2.0000     -10.317690      -280.7586
   2   2.0000      -1.143135       -31.1063
   3   2.0000      -0.787029       -21.4161
   4   2.0000      -0.605439       -16.4748
   5   2.0000      -0.555323       -15.1111
   6   2.0000      -0.532022       -14.4770
   7   2.0000      -0.425371       -11.5749
   8   2.0000      -0.367686       -10.0052
   9   0.0000       0.098127         2.6702
  10   0.0000       0.125767         3.4223
  11   0.0000       0.156651         4.2627
  12   0.0000       0.186007         5.0615
  13   0.0000       0.194025         5.2797

MULLIKEN ATOMIC CHARGES
-----------------------
   0 C :    0.009174
   1 O :    0.001157
   2 H :   -0.012922
   3 H :   -0.007745
   4 H :   -0.000408
   5 H :   -0.002215
   6 C :   -0.148775
   7 O :   -0.468083
   8 H :    0.315600
   9 H :    0.122162
  10 H :    0.097091
  11 H :    0.094962
Sum of atomic charges:   -0.0000000

LOEWDIN ATOMIC CHARGES
----------------------
   0 C :   -0.010156
   1 O :   -0.004645
   2 H :   -0.032970
   3 H :   -0.003961
   4 H :   -0.000117
   5 H :   -0.000751
   6 C :   -0.400923
   7 O :   -0.032647
   8 H :    0.175838
   9 H :    0.107105
  10 H :    0.104058
  11 H :    0.099168

  Mayer bond orders larger than 0.1
B(  6-C ,  7-O ) :   0.9725 B(  6-C ,  9-H ) :   0.9718 B(  6-C , 10-H ) :   0.9808
B(  6-C , 11-H ) :   0.9812 B(  7-O ,  8-H ) :   0.8940

Dispersion correction           -0.000203318
FINAL SINGLE POINT ENERGY      -115.729603693189

DIPOLE MOMENT
-------------
                                X             Y             Z
Electronic contribution:     -0.30039       1.59778      -0.47272
Nuclear contribution   :      0.59179      -2.10855       0.14583
                        -----------------------------------------
Total Dipole Moment    :      0.29140      -0.51077      -0.32689
                        -----------------------------------------
Magnitude (a.u.)       :      0.67280
Magnitude (Debye)      :      1.71011

Rotational constants in cm-1:     4.035756     0.862847     0.840033
Rotational constants in MHz : 120988.918679 25867.505200 25183.547932

                             ****ORCA TERMINATED NORMALLY****
TOTAL RUN TIME: 0 days 0 hours 1 minutes 9 seconds 19 msec
