                         Program Version 4.1.2  - RELEASE  -
|  1> #Run DFT-D3 single point of the dimer
|  2> ! wB97X-D3 def2-TZVP TIGHTSCF CHELPG PMODEL PAL8
|  3>
|  4> %base "20-170_DFT_AB"
|  5>
|  6> %scf
|  7> MaxIter 1000
|  8> end
|  9>
| 10> * xyz 0 1
| 11>   C                      -5.532352            1.521429             -4.986834
| 12>   O                      -5.929493            2.059288             -3.744234
| 13>   H                      -5.385958            2.828301             -3.642485
| 14>   H                      -6.063086            0.587966             -5.388403
| 15>   H                      -5.649632            2.148666             -5.799708
| 16>   H                      -4.452521            1.444972             -5.075906
| 17>   C                      -8.111994            3.864327             -2.835475
| 18>   O                      -8.642965            2.687762             -3.546571
| 19>   H                      -7.884377            2.387574             -4.042041
| 20>   H                      -8.864080            4.273964             -2.218906
| 21>   H                      -7.179942            3.645142             -2.258175
| 22>   H                      -7.839754            4.679312             -3.527098
| 23> *
| 24>
| 25> #Run DFT-D3 single point of the molecule with dimer basis set
| 26> $new_job
| 27> %base "20-170_DFT_A"
| 28> ! wB97X-D3 def2-TZVP TIGHTSCF CHELPG PMODEL
| 29>
| 30> %scf
| 31> MaxIter 1000
| 32> end
| 33>
| 34> * xyz 0 1
| 35>   C                      -5.532352            1.521429             -4.986834
| 36>   O                      -5.929493            2.059288             -3.744234
| 37>   H                      -5.385958            2.828301             -3.642485
| 38>   H                      -6.063086            0.587966             -5.388403
| 39>   H                      -5.649632            2.148666             -5.799708
| 40>   H                      -4.452521            1.444972             -5.075906
| 41>   C                    : -8.111994            3.864327             -2.835475
| 42>   O                    : -8.642965            2.687762             -3.546571
| 43>   H                    : -7.884377            2.387574             -4.042041
| 44>   H                    : -8.864080            4.273964             -2.218906
| 45>   H                    : -7.179942            3.645142             -2.258175
| 46>   H                    : -7.839754            4.679312             -3.527098
| 47> *
| 48>
| 49> #Run DFT-D3 single point of the particle with dimer basis set
| 50> $new_job
| 51> %base "20-170_DFT_B"
| 52> ! wB97X-D3 def2-TZVP TIGHTSCF CHELPG PMODEL
| 53>
| 54> %scf
| 55> MaxIter 1000
| 56> end
| 57>
| 58> * xyz 0 1
| 59>   C                    : -5.532352            1.521429             -4.986834
| 60>   O                    : -5.929493            2.059288             -3.744234
| 61>   H                    : -5.385958            2.828301             -3.642485
| 62>   H                    : -6.063086            0.587966             -5.388403
| 63>   H                    : -5.649632            2.148666             -5.799708
| 64>   H                    : -4.452521            1.444972             -5.075906
| 65>   C                      -8.111994            3.864327             -2.835475
| 66>   O                      -8.642965            2.687762             -3.546571
| 67>   H                      -7.884377            2.387574             -4.042041
| 68>   H                      -8.864080            4.273964             -2.218906
| 69>   H                      -7.179942            3.645142             -2.258175
| 70>   H                      -7.839754            4.679312             -3.527098
| 71> *
| 72>
| 73>                          ****END OF INPUT****
 Total Charge           Charge          ....    0
 Multiplicity           Mult            ....    1
 Number of Electrons    NEL             ....   36
Dispersion correction           -0.002066488
FINAL SINGLE POINT ENERGY      -231.457803102545
Dispersion correction           -0.000238021
FINAL SINGLE POINT ENERGY      -115.721863466044

CARTESIAN COORDINATES (ANGSTROEM)
---------------------------------
  C     -5.532352    1.521429   -4.986834
  O     -5.929493    2.059288   -3.744234
  H     -5.385958    2.828301   -3.642485
  H     -6.063086    0.587966   -5.388403
  H     -5.649632    2.148666   -5.799708
  H     -4.452521    1.444972   -5.075906
  C     -8.111994    3.864327   -2.835475
  O     -8.642965    2.687762   -3.546571
  H     -7.884377    2.387574   -4.042041
  H     -8.864080    4.273964   -2.218906
  H     -7.179942    3.645142   -2.258175
  H     -7.839754    4.679312   -3.527098

 Multiplicity           Mult            ....    1
 Number of Electrons    NEL             ....   18
 Basis Dimension        Dim             ....  172

ORBITAL ENERGIES
----------------

  NO   OCC          E(Eh)            E(eV)
   0   2.0000     -19.233844      -523.3795
   1   2.0000     -10.317976      -280.7664
   2   2.0000      -1.124619       -30.6024
   3   2.0000      -0.798707       -21.7339
   4   2.0000      -0.601567       -16.3695
   5   2.0000      -0.531872       -14.4730
   6   2.0000      -0.522366       -14.2143
   7   2.0000      -0.449219       -12.2239
   8   2.0000      -0.376661       -10.2495
   9   0.0000       0.068085         1.8527
  10   0.0000       0.133845         3.6421
  11   0.0000       0.146272         3.9803
  12   0.0000       0.169871         4.6224
  13   0.0000       0.185835         5.0568

MULLIKEN ATOMIC CHARGES
-----------------------
   0 C :   -0.002247
   1 O :   -0.005669
   2 H :    0.000181
   3 H :   -0.000015
   4 H :   -0.000133
   5 H :   -0.000066
   6 C :   -0.197498
   7 O :   -0.466076
   8 H :    0.311029
   9 H :    0.134962
  10 H :    0.113641
  11 H :    0.111891
Sum of atomic charges:   -0.0000000

LOEWDIN ATOMIC CHARGES
----------------------
   0 C :   -0.007097
   1 O :   -0.021528
   2 H :   -0.003913
   3 H :   -0.000369
   4 H :   -0.000456
   5 H :   -0.000129
   6 C :   -0.341332
   7 O :   -0.097719
   8 H :    0.168418
   9 H :    0.099497
  10 H :    0.105143
  11 H :    0.099485

  Mayer bond orders larger than 0.1
B(  6-C ,  7-O ) :   0.9890 B(  6-C ,  9-H ) :   0.9745 B(  6-C , 10-H ) :   0.9706
B(  6-C , 11-H ) :   0.9743 B(  7-O ,  8-H ) :   0.9152

Dispersion correction           -0.000258701
FINAL SINGLE POINT ENERGY      -115.733050268875

DIPOLE MOMENT
-------------
                                X             Y             Z
Electronic contribution:     -0.87952      -1.48936      -0.75750
Nuclear contribution   :      1.54821       1.80959       0.74987
                        -----------------------------------------
Total Dipole Moment    :      0.66869       0.32023      -0.00763
                        -----------------------------------------
Magnitude (a.u.)       :      0.74146
Magnitude (Debye)      :      1.88463

Rotational constants in cm-1:     4.291246     0.780207     0.751176
Rotational constants in MHz : 128648.325248 23390.017844 22519.704196

                             ****ORCA TERMINATED NORMALLY****
TOTAL RUN TIME: 0 days 0 hours 1 minutes 11 seconds 214 msec
