                         Program Version 4.1.2  - RELEASE  -
|  1> #Run DFT-D3 single point of the dimer
|  2> ! wB97X-D3 def2-TZVP TIGHTSCF CHELPG PMODEL PAL8
|  3>
|  4> %base "2-65_DFT_AB"
|  5>
|  6> %scf
|  7> MaxIter 1000
|  8> end
|  9>
| 10> * xyz 0 1
| 11>   C                      2.216168             -10.583670           6.792271
| 12>   O                      1.676542             -10.073466           5.612727
| 13>   H                      2.289929             -10.296612           4.873086
| 14>   H                      1.920652             -11.635590           6.979439
| 15>   H                      3.230282             -10.410300           6.926087
| 16>   H                      1.813010             -10.092693           7.607417
| 17>   C                      4.375305             -6.590619            8.570160
| 18>   O                      3.198486             -6.577218            7.791134
| 19>   H                      3.032970             -7.405576            7.363455
| 20>   H                      5.218908             -6.092983            8.186280
| 21>   H                      4.268135             -6.210172            9.560701
| 22>   H                      4.850639             -7.577461            8.626271
| 23> *
| 24>
| 25> #Run DFT-D3 single point of the molecule with dimer basis set
| 26> $new_job
| 27> %base "2-65_DFT_A"
| 28> ! wB97X-D3 def2-TZVP TIGHTSCF CHELPG PMODEL
| 29>
| 30> %scf
| 31> MaxIter 1000
| 32> end
| 33>
| 34> * xyz 0 1
| 35>   C                      2.216168             -10.583670           6.792271
| 36>   O                      1.676542             -10.073466           5.612727
| 37>   H                      2.289929             -10.296612           4.873086
| 38>   H                      1.920652             -11.635590           6.979439
| 39>   H                      3.230282             -10.410300           6.926087
| 40>   H                      1.813010             -10.092693           7.607417
| 41>   C                    : 4.375305             -6.590619            8.570160
| 42>   O                    : 3.198486             -6.577218            7.791134
| 43>   H                    : 3.032970             -7.405576            7.363455
| 44>   H                    : 5.218908             -6.092983            8.186280
| 45>   H                    : 4.268135             -6.210172            9.560701
| 46>   H                    : 4.850639             -7.577461            8.626271
| 47> *
| 48>
| 49> #Run DFT-D3 single point of the particle with dimer basis set
| 50> $new_job
| 51> %base "2-65_DFT_B"
| 52> ! wB97X-D3 def2-TZVP TIGHTSCF CHELPG PMODEL
| 53>
| 54> %scf
| 55> MaxIter 1000
| 56> end
| 57>
| 58> * xyz 0 1
| 59>   C                    : 2.216168             -10.583670           6.792271
| 60>   O                    : 1.676542             -10.073466           5.612727
| 61>   H                    : 2.289929             -10.296612           4.873086
| 62>   H                    : 1.920652             -11.635590           6.979439
| 63>   H                    : 3.230282             -10.410300           6.926087
| 64>   H                    : 1.813010             -10.092693           7.607417
| 65>   C                      4.375305             -6.590619            8.570160
| 66>   O                      3.198486             -6.577218            7.791134
| 67>   H                      3.032970             -7.405576            7.363455
| 68>   H                      5.218908             -6.092983            8.186280
| 69>   H                      4.268135             -6.210172            9.560701
| 70>   H                      4.850639             -7.577461            8.626271
| 71> *
| 72>
| 73>                          ****END OF INPUT****
 Total Charge           Charge          ....    0
 Multiplicity           Mult            ....    1
 Number of Electrons    NEL             ....   36
Dispersion correction           -0.001277829
FINAL SINGLE POINT ENERGY      -231.457760346044
Dispersion correction           -0.000238871
FINAL SINGLE POINT ENERGY      -115.728968200905

CARTESIAN COORDINATES (ANGSTROEM)
---------------------------------
  C      2.216168  -10.583670    6.792271
  O      1.676542  -10.073466    5.612727
  H      2.289929  -10.296612    4.873086
  H      1.920652  -11.635590    6.979439
  H      3.230282  -10.410300    6.926087
  H      1.813010  -10.092693    7.607417
  C      4.375305   -6.590619    8.570160
  O      3.198486   -6.577218    7.791134
  H      3.032970   -7.405576    7.363455
  H      5.218908   -6.092983    8.186280
  H      4.268135   -6.210172    9.560701
  H      4.850639   -7.577461    8.626271

 Multiplicity           Mult            ....    1
 Number of Electrons    NEL             ....   18
 Basis Dimension        Dim             ....  172

ORBITAL ENERGIES
----------------

  NO   OCC          E(Eh)            E(eV)
   0   2.0000     -19.231206      -523.3077
   1   2.0000     -10.306329      -280.4495
   2   2.0000      -1.137465       -30.9520
   3   2.0000      -0.808512       -22.0007
   4   2.0000      -0.622945       -16.9512
   5   2.0000      -0.540599       -14.7104
   6   2.0000      -0.528998       -14.3948
   7   2.0000      -0.428480       -11.6595
   8   2.0000      -0.375357       -10.2140
   9   0.0000       0.069166         1.8821
  10   0.0000       0.128155         3.4873
  11   0.0000       0.148902         4.0518
  12   0.0000       0.161303         4.3893
  13   0.0000       0.188069         5.1176

MULLIKEN ATOMIC CHARGES
-----------------------
   0 C :    0.000054
   1 O :    0.000073
   2 H :   -0.000010
   3 H :   -0.000116
   4 H :   -0.000367
   5 H :   -0.001515
   6 C :   -0.162235
   7 O :   -0.478638
   8 H :    0.319686
   9 H :    0.105758
  10 H :    0.117107
  11 H :    0.100201
Sum of atomic charges:   -0.0000000

LOEWDIN ATOMIC CHARGES
----------------------
   0 C :   -0.001838
   1 O :   -0.000048
   2 H :   -0.000019
   3 H :   -0.000038
   4 H :   -0.000351
   5 H :   -0.000775
   6 C :   -0.384161
   7 O :   -0.063296
   8 H :    0.161937
   9 H :    0.090110
  10 H :    0.098173
  11 H :    0.100307

  Mayer bond orders larger than 0.1
B(  6-C ,  7-O ) :   1.0061 B(  6-C ,  9-H ) :   0.9722 B(  6-C , 10-H ) :   0.9776
B(  6-C , 11-H ) :   0.9849 B(  7-O ,  8-H ) :   0.9014

Dispersion correction           -0.000264469
FINAL SINGLE POINT ENERGY      -115.727782887746

DIPOLE MOMENT
-------------
                                X             Y             Z
Electronic contribution:     -1.69362       0.21506      -0.98231
Nuclear contribution   :      2.08936      -0.78214       1.00811
                        -----------------------------------------
Total Dipole Moment    :      0.39574      -0.56708       0.02580
                        -----------------------------------------
Magnitude (a.u.)       :      0.69200
Magnitude (Debye)      :      1.75892

Rotational constants in cm-1:     4.771106     0.819328     0.785913
Rotational constants in MHz : 143034.162163 24562.844746 23561.092985

                             ****ORCA TERMINATED NORMALLY****
TOTAL RUN TIME: 0 days 0 hours 5 minutes 59 seconds 102 msec
