                         Program Version 4.1.2  - RELEASE  -
|  1> #Run DFT-D3 single point of the dimer
|  2> ! wB97X-D3 def2-TZVP TIGHTSCF CHELPG PMODEL PAL8
|  3>
|  4> %base "3-176_DFT_AB"
|  5>
|  6> %scf
|  7> MaxIter 1000
|  8> end
|  9>
| 10> * xyz 0 1
| 11>   C                      11.238228            10.317055            4.231244
| 12>   O                      11.004741            9.756456             5.502526
| 13>   H                      11.803424            9.691634             6.024288
| 14>   H                      12.221745            10.023129            3.904021
| 15>   H                      10.449135            10.039698            3.569231
| 16>   H                      11.320839            11.432934            4.327745
| 17>   C                      10.341195            7.879834             8.315473
| 18>   O                      9.184051             7.589000             7.623319
| 19>   H                      9.159229             7.996545             6.769346
| 20>   H                      11.140455            7.430580             7.707930
| 21>   H                      10.562793            8.937215             8.385997
| 22>   H                      10.308050            7.325955             9.300328
| 23> *
| 24>
| 25> #Run DFT-D3 single point of the molecule with dimer basis set
| 26> $new_job
| 27> %base "3-176_DFT_A"
| 28> ! wB97X-D3 def2-TZVP TIGHTSCF CHELPG PMODEL
| 29>
| 30> %scf
| 31> MaxIter 1000
| 32> end
| 33>
| 34> * xyz 0 1
| 35>   C                      11.238228            10.317055            4.231244
| 36>   O                      11.004741            9.756456             5.502526
| 37>   H                      11.803424            9.691634             6.024288
| 38>   H                      12.221745            10.023129            3.904021
| 39>   H                      10.449135            10.039698            3.569231
| 40>   H                      11.320839            11.432934            4.327745
| 41>   C                    : 10.341195            7.879834             8.315473
| 42>   O                    : 9.184051             7.589000             7.623319
| 43>   H                    : 9.159229             7.996545             6.769346
| 44>   H                    : 11.140455            7.430580             7.707930
| 45>   H                    : 10.562793            8.937215             8.385997
| 46>   H                    : 10.308050            7.325955             9.300328
| 47> *
| 48>
| 49> #Run DFT-D3 single point of the particle with dimer basis set
| 50> $new_job
| 51> %base "3-176_DFT_B"
| 52> ! wB97X-D3 def2-TZVP TIGHTSCF CHELPG PMODEL
| 53>
| 54> %scf
| 55> MaxIter 1000
| 56> end
| 57>
| 58> * xyz 0 1
| 59>   C                    : 11.238228            10.317055            4.231244
| 60>   O                    : 11.004741            9.756456             5.502526
| 61>   H                    : 11.803424            9.691634             6.024288
| 62>   H                    : 12.221745            10.023129            3.904021
| 63>   H                    : 10.449135            10.039698            3.569231
| 64>   H                    : 11.320839            11.432934            4.327745
| 65>   C                      10.341195            7.879834             8.315473
| 66>   O                      9.184051             7.589000             7.623319
| 67>   H                      9.159229             7.996545             6.769346
| 68>   H                      11.140455            7.430580             7.707930
| 69>   H                      10.562793            8.937215             8.385997
| 70>   H                      10.308050            7.325955             9.300328
| 71> *
| 72>
| 73>                          ****END OF INPUT****
 Total Charge           Charge          ....    0
 Multiplicity           Mult            ....    1
 Number of Electrons    NEL             ....   36
Dispersion correction           -0.001654077
FINAL SINGLE POINT ENERGY      -231.470057551932
Dispersion correction           -0.000231095
FINAL SINGLE POINT ENERGY      -115.733895296000

CARTESIAN COORDINATES (ANGSTROEM)
---------------------------------
  C     11.238228   10.317055    4.231244
  O     11.004741    9.756456    5.502526
  H     11.803424    9.691634    6.024288
  H     12.221745   10.023129    3.904021
  H     10.449135   10.039698    3.569231
  H     11.320839   11.432934    4.327745
  C     10.341195    7.879834    8.315473
  O      9.184051    7.589000    7.623319
  H      9.159229    7.996545    6.769346
  H     11.140455    7.430580    7.707930
  H     10.562793    8.937215    8.385997
  H     10.308050    7.325955    9.300328

 Multiplicity           Mult            ....    1
 Number of Electrons    NEL             ....   18
 Basis Dimension        Dim             ....  172

ORBITAL ENERGIES
----------------

  NO   OCC          E(Eh)            E(eV)
   0   2.0000     -19.223953      -523.1103
   1   2.0000     -10.313035      -280.6319
   2   2.0000      -1.146193       -31.1895
   3   2.0000      -0.793584       -21.5945
   4   2.0000      -0.619754       -16.8644
   5   2.0000      -0.544337       -14.8122
   6   2.0000      -0.530310       -14.4305
   7   2.0000      -0.427544       -11.6341
   8   2.0000      -0.366282        -9.9670
   9   0.0000       0.072635         1.9765
  10   0.0000       0.121335         3.3017
  11   0.0000       0.147514         4.0141
  12   0.0000       0.182867         4.9761
  13   0.0000       0.188894         5.1401

MULLIKEN ATOMIC CHARGES
-----------------------
   0 C :   -0.000084
   1 O :   -0.000036
   2 H :   -0.000885
   3 H :   -0.000013
   4 H :   -0.000015
   5 H :   -0.000003
   6 C :   -0.151282
   7 O :   -0.476775
   8 H :    0.312743
   9 H :    0.094668
  10 H :    0.099403
  11 H :    0.122279
Sum of atomic charges:   -0.0000000

LOEWDIN ATOMIC CHARGES
----------------------
   0 C :   -0.000235
   1 O :   -0.002382
   2 H :   -0.001846
   3 H :   -0.000004
   4 H :   -0.000021
   5 H :   -0.000004
   6 C :   -0.408490
   7 O :   -0.050296
   8 H :    0.159139
   9 H :    0.095526
  10 H :    0.089947
  11 H :    0.118666

  Mayer bond orders larger than 0.1
B(  6-C ,  7-O ) :   0.9926 B(  6-C ,  9-H ) :   0.9924 B(  6-C , 10-H ) :   0.9716
B(  6-C , 11-H ) :   0.9672 B(  7-O ,  8-H ) :   0.9005

Dispersion correction           -0.000219577
FINAL SINGLE POINT ENERGY      -115.731649788058

DIPOLE MOMENT
-------------
                                X             Y             Z
Electronic contribution:     -1.57102      -0.30916      -0.69113
Nuclear contribution   :      2.00044       0.68293       0.39160
                        -----------------------------------------
Total Dipole Moment    :      0.42942       0.37377      -0.29954
                        -----------------------------------------
Magnitude (a.u.)       :      0.64330
Magnitude (Debye)      :      1.63514

Rotational constants in cm-1:     4.230048     0.872299     0.832519
Rotational constants in MHz : 126813.660112 26150.855441 24958.281959

                             ****ORCA TERMINATED NORMALLY****
TOTAL RUN TIME: 0 days 0 hours 5 minutes 55 seconds 305 msec
