                         Program Version 4.1.2  - RELEASE  -
|  1> #Run DFT-D3 single point of the dimer
|  2> ! wB97X-D3 def2-TZVP TIGHTSCF CHELPG PMODEL PAL8
|  3>
|  4> %base "16-21_DFT_AB"
|  5>
|  6> %scf
|  7> MaxIter 1000
|  8> end
|  9>
| 10> * xyz 0 1
| 11>   C                      4.271779             4.712240             5.343485
| 12>   O                      4.861457             5.690898             4.454410
| 13>   H                      4.587557             5.662843             3.570705
| 14>   H                      4.713760             3.664029             5.121006
| 15>   H                      4.705710             4.923602             6.335144
| 16>   H                      3.190266             4.808637             5.377588
| 17>   C                      7.856281             6.990472             2.461391
| 18>   O                      7.999837             7.573358             1.195961
| 19>   H                      8.965035             7.663970             0.982130
| 20>   H                      8.441369             7.390414             3.360844
| 21>   H                      6.849756             6.852662             2.832672
| 22>   H                      8.225145             5.967884             2.572257
| 23> *
| 24>
| 25> #Run DFT-D3 single point of the molecule with dimer basis set
| 26> $new_job
| 27> %base "16-21_DFT_A"
| 28> ! wB97X-D3 def2-TZVP TIGHTSCF CHELPG PMODEL
| 29>
| 30> %scf
| 31> MaxIter 1000
| 32> end
| 33>
| 34> * xyz 0 1
| 35>   C                      4.271779             4.712240             5.343485
| 36>   O                      4.861457             5.690898             4.454410
| 37>   H                      4.587557             5.662843             3.570705
| 38>   H                      4.713760             3.664029             5.121006
| 39>   H                      4.705710             4.923602             6.335144
| 40>   H                      3.190266             4.808637             5.377588
| 41>   C                    : 7.856281             6.990472             2.461391
| 42>   O                    : 7.999837             7.573358             1.195961
| 43>   H                    : 8.965035             7.663970             0.982130
| 44>   H                    : 8.441369             7.390414             3.360844
| 45>   H                    : 6.849756             6.852662             2.832672
| 46>   H                    : 8.225145             5.967884             2.572257
| 47> *
| 48>
| 49> #Run DFT-D3 single point of the particle with dimer basis set
| 50> $new_job
| 51> %base "16-21_DFT_B"
| 52> ! wB97X-D3 def2-TZVP TIGHTSCF CHELPG PMODEL
| 53>
| 54> %scf
| 55> MaxIter 1000
| 56> end
| 57>
| 58> * xyz 0 1
| 59>   C                    : 4.271779             4.712240             5.343485
| 60>   O                    : 4.861457             5.690898             4.454410
| 61>   H                    : 4.587557             5.662843             3.570705
| 62>   H                    : 4.713760             3.664029             5.121006
| 63>   H                    : 4.705710             4.923602             6.335144
| 64>   H                    : 3.190266             4.808637             5.377588
| 65>   C                      7.856281             6.990472             2.461391
| 66>   O                      7.999837             7.573358             1.195961
| 67>   H                      8.965035             7.663970             0.982130
| 68>   H                      8.441369             7.390414             3.360844
| 69>   H                      6.849756             6.852662             2.832672
| 70>   H                      8.225145             5.967884             2.572257
| 71> *
| 72>
| 73>                          ****END OF INPUT****
 Total Charge           Charge          ....    0
 Multiplicity           Mult            ....    1
 Number of Electrons    NEL             ....   36
Dispersion correction           -0.001241200
FINAL SINGLE POINT ENERGY      -231.455411199424
Dispersion correction           -0.000280228
FINAL SINGLE POINT ENERGY      -115.729370213458

CARTESIAN COORDINATES (ANGSTROEM)
---------------------------------
  C      4.271779    4.712240    5.343485
  O      4.861457    5.690898    4.454410
  H      4.587557    5.662843    3.570705
  H      4.713760    3.664029    5.121006
  H      4.705710    4.923602    6.335144
  H      3.190266    4.808637    5.377588
  C      7.856281    6.990472    2.461391
  O      7.999837    7.573358    1.195961
  H      8.965035    7.663970    0.982130
  H      8.441369    7.390414    3.360844
  H      6.849756    6.852662    2.832672
  H      8.225145    5.967884    2.572257

 Multiplicity           Mult            ....    1
 Number of Electrons    NEL             ....   18
 Basis Dimension        Dim             ....  172

ORBITAL ENERGIES
----------------

  NO   OCC          E(Eh)            E(eV)
   0   2.0000     -19.243281      -523.6363
   1   2.0000     -10.316124      -280.7160
   2   2.0000      -1.138283       -30.9742
   3   2.0000      -0.797456       -21.6999
   4   2.0000      -0.620671       -16.8893
   5   2.0000      -0.534156       -14.5351
   6   2.0000      -0.520480       -14.1630
   7   2.0000      -0.436689       -11.8829
   8   2.0000      -0.370304       -10.0765
   9   0.0000       0.084684         2.3044
  10   0.0000       0.111431         3.0322
  11   0.0000       0.137411         3.7391
  12   0.0000       0.170239         4.6324
  13   0.0000       0.195796         5.3279

MULLIKEN ATOMIC CHARGES
-----------------------
   0 C :    0.000012
   1 O :    0.000113
   2 H :   -0.000303
   3 H :   -0.000011
   4 H :   -0.000002
   5 H :   -0.000000
   6 C :   -0.179417
   7 O :   -0.464589
   8 H :    0.324358
   9 H :    0.091698
  10 H :    0.129414
  11 H :    0.098727
Sum of atomic charges:    0.0000000

LOEWDIN ATOMIC CHARGES
----------------------
   0 C :   -0.000092
   1 O :   -0.001900
   2 H :   -0.001826
   3 H :   -0.000005
   4 H :   -0.000003
   5 H :   -0.000002
   6 C :   -0.422875
   7 O :   -0.070317
   8 H :    0.194464
   9 H :    0.101732
  10 H :    0.107776
  11 H :    0.093048

  Mayer bond orders larger than 0.1
B(  6-C ,  7-O ) :   1.0204 B(  6-C ,  9-H ) :   0.9694 B(  6-C , 10-H ) :   0.9742
B(  6-C , 11-H ) :   0.9743 B(  7-O ,  8-H ) :   0.8871

Dispersion correction           -0.000288983
FINAL SINGLE POINT ENERGY      -115.724500405593

DIPOLE MOMENT
-------------
                                X             Y             Z
Electronic contribution:     -0.04909       0.96740      -1.94799
Nuclear contribution   :      0.59778      -1.15916       2.28171
                        -----------------------------------------
Total Dipole Moment    :      0.54869      -0.19175       0.33372
                        -----------------------------------------
Magnitude (a.u.)       :      0.67022
Magnitude (Debye)      :      1.70357

Rotational constants in cm-1:     4.577269     0.814102     0.775857
Rotational constants in MHz : 137223.077991 24406.172711 23259.604796

                             ****ORCA TERMINATED NORMALLY****
TOTAL RUN TIME: 0 days 0 hours 0 minutes 54 seconds 489 msec
