                         Program Version 4.1.2  - RELEASE  -
|  1> #Run DFT-D3 single point of the dimer
|  2> ! wB97X-D3 def2-TZVP TIGHTSCF CHELPG PMODEL PAL8
|  3>
|  4> %base "2-154_DFT_AB"
|  5>
|  6> %scf
|  7> MaxIter 1000
|  8> end
|  9>
| 10> * xyz 0 1
| 11>   C                      -2.222377            -9.165229            -5.734418
| 12>   O                      -1.041588            -9.092182            -6.516666
| 13>   H                      -0.308865            -9.269490            -5.964832
| 14>   H                      -2.538768            -10.195934           -5.512925
| 15>   H                      -2.087220            -8.802993            -4.707319
| 16>   H                      -3.014672            -8.630073            -6.223898
| 17>   C                      1.939360             -9.035453            -7.082805
| 18>   O                      3.045270             -8.165502            -7.097040
| 19>   H                      3.112391             -7.736880            -6.215927
| 20>   H                      1.745708             -9.488842            -6.117196
| 21>   H                      0.983521             -8.509977            -7.267819
| 22>   H                      2.094026             -9.756410            -7.788334
| 23> *
| 24>
| 25> #Run DFT-D3 single point of the molecule with dimer basis set
| 26> $new_job
| 27> %base "2-154_DFT_A"
| 28> ! wB97X-D3 def2-TZVP TIGHTSCF CHELPG PMODEL
| 29>
| 30> %scf
| 31> MaxIter 1000
| 32> end
| 33>
| 34> * xyz 0 1
| 35>   C                      -2.222377            -9.165229            -5.734418
| 36>   O                      -1.041588            -9.092182            -6.516666
| 37>   H                      -0.308865            -9.269490            -5.964832
| 38>   H                      -2.538768            -10.195934           -5.512925
| 39>   H                      -2.087220            -8.802993            -4.707319
| 40>   H                      -3.014672            -8.630073            -6.223898
| 41>   C                    : 1.939360             -9.035453            -7.082805
| 42>   O                    : 3.045270             -8.165502            -7.097040
| 43>   H                    : 3.112391             -7.736880            -6.215927
| 44>   H                    : 1.745708             -9.488842            -6.117196
| 45>   H                    : 0.983521             -8.509977            -7.267819
| 46>   H                    : 2.094026             -9.756410            -7.788334
| 47> *
| 48>
| 49> #Run DFT-D3 single point of the particle with dimer basis set
| 50> $new_job
| 51> %base "2-154_DFT_B"
| 52> ! wB97X-D3 def2-TZVP TIGHTSCF CHELPG PMODEL
| 53>
| 54> %scf
| 55> MaxIter 1000
| 56> end
| 57>
| 58> * xyz 0 1
| 59>   C                    : -2.222377            -9.165229            -5.734418
| 60>   O                    : -1.041588            -9.092182            -6.516666
| 61>   H                    : -0.308865            -9.269490            -5.964832
| 62>   H                    : -2.538768            -10.195934           -5.512925
| 63>   H                    : -2.087220            -8.802993            -4.707319
| 64>   H                    : -3.014672            -8.630073            -6.223898
| 65>   C                      1.939360             -9.035453            -7.082805
| 66>   O                      3.045270             -8.165502            -7.097040
| 67>   H                      3.112391             -7.736880            -6.215927
| 68>   H                      1.745708             -9.488842            -6.117196
| 69>   H                      0.983521             -8.509977            -7.267819
| 70>   H                      2.094026             -9.756410            -7.788334
| 71> *
| 72>
| 73>                          ****END OF INPUT****
 Total Charge           Charge          ....    0
 Multiplicity           Mult            ....    1
 Number of Electrons    NEL             ....   36
Dispersion correction           -0.001500265
FINAL SINGLE POINT ENERGY      -231.464024335500
Dispersion correction           -0.000245884
FINAL SINGLE POINT ENERGY      -115.734489931055

CARTESIAN COORDINATES (ANGSTROEM)
---------------------------------
  C     -2.222377   -9.165229   -5.734418
  O     -1.041588   -9.092182   -6.516666
  H     -0.308865   -9.269490   -5.964832
  H     -2.538768  -10.195934   -5.512925
  H     -2.087220   -8.802993   -4.707319
  H     -3.014672   -8.630073   -6.223898
  C      1.939360   -9.035453   -7.082805
  O      3.045270   -8.165502   -7.097040
  H      3.112391   -7.736880   -6.215927
  H      1.745708   -9.488842   -6.117196
  H      0.983521   -8.509977   -7.267819
  H      2.094026   -9.756410   -7.788334

 Multiplicity           Mult            ....    1
 Number of Electrons    NEL             ....   18
 Basis Dimension        Dim             ....  172

ORBITAL ENERGIES
----------------

  NO   OCC          E(Eh)            E(eV)
   0   2.0000     -19.232152      -523.3335
   1   2.0000     -10.303875      -280.3827
   2   2.0000      -1.133974       -30.8570
   3   2.0000      -0.800253       -21.7760
   4   2.0000      -0.615326       -16.7439
   5   2.0000      -0.541332       -14.7304
   6   2.0000      -0.527496       -14.3539
   7   2.0000      -0.440292       -11.9810
   8   2.0000      -0.370333       -10.0773
   9   0.0000       0.083694         2.2774
  10   0.0000       0.114322         3.1109
  11   0.0000       0.151483         4.1221
  12   0.0000       0.179196         4.8762
  13   0.0000       0.197036         5.3616

MULLIKEN ATOMIC CHARGES
-----------------------
   0 C :   -0.000224
   1 O :    0.000407
   2 H :   -0.007721
   3 H :   -0.000079
   4 H :   -0.000106
   5 H :    0.000096
   6 C :   -0.147467
   7 O :   -0.474352
   8 H :    0.316117
   9 H :    0.098303
  10 H :    0.094584
  11 H :    0.120443
Sum of atomic charges:   -0.0000000

LOEWDIN ATOMIC CHARGES
----------------------
   0 C :   -0.000840
   1 O :   -0.014971
   2 H :   -0.016324
   3 H :   -0.000025
   4 H :   -0.000023
   5 H :   -0.000029
   6 C :   -0.373201
   7 O :   -0.076542
   8 H :    0.182641
   9 H :    0.099030
  10 H :    0.109522
  11 H :    0.090763

  Mayer bond orders larger than 0.1
B(  6-C ,  7-O ) :   1.0120 B(  6-C ,  9-H ) :   0.9821 B(  6-C , 10-H ) :   0.9755
B(  6-C , 11-H ) :   0.9705 B(  7-O ,  8-H ) :   0.8970

Dispersion correction           -0.000237907
FINAL SINGLE POINT ENERGY      -115.731781108270

DIPOLE MOMENT
-------------
                                X             Y             Z
Electronic contribution:      1.54248       1.00315      -0.22989
Nuclear contribution   :     -1.91797      -1.09112       0.79864
                        -----------------------------------------
Total Dipole Moment    :     -0.37549      -0.08797       0.56875
                        -----------------------------------------
Magnitude (a.u.)       :      0.68718
Magnitude (Debye)      :      1.74667

Rotational constants in cm-1:     4.438283     0.840637     0.806453
Rotational constants in MHz : 133056.386797 25201.651883 24176.838620

                             ****ORCA TERMINATED NORMALLY****
TOTAL RUN TIME: 0 days 0 hours 6 minutes 24 seconds 652 msec
