                         Program Version 4.1.2  - RELEASE  -
|  1> #Run DFT-D3 single point of the dimer
|  2> ! wB97X-D3 def2-TZVP TIGHTSCF CHELPG PMODEL PAL8
|  3>
|  4> %base "10-117_DFT_AB"
|  5>
|  6> %scf
|  7> MaxIter 1000
|  8> end
|  9>
| 10> * xyz 0 1
| 11>   C                      -2.445116            10.578755            -1.740875
| 12>   O                      -1.467800            11.215932            -2.506058
| 13>   H                      -0.636607            10.749939            -2.417039
| 14>   H                      -3.304628            10.206492            -2.355756
| 15>   H                      -2.017597            9.684624             -1.203176
| 16>   H                      -2.900465            11.246782            -0.991146
| 17>   C                      -2.543772            11.097149            -5.925851
| 18>   O                      -3.388210            10.718351            -4.863969
| 19>   H                      -2.857181            10.590265            -4.086998
| 20>   H                      -3.183957            11.399977            -6.794502
| 21>   H                      -2.030645            11.987127            -5.722639
| 22>   H                      -1.844225            10.332951            -6.223363
| 23> *
| 24>
| 25> #Run DFT-D3 single point of the molecule with dimer basis set
| 26> $new_job
| 27> %base "10-117_DFT_A"
| 28> ! wB97X-D3 def2-TZVP TIGHTSCF CHELPG PMODEL
| 29>
| 30> %scf
| 31> MaxIter 1000
| 32> end
| 33>
| 34> * xyz 0 1
| 35>   C                      -2.445116            10.578755            -1.740875
| 36>   O                      -1.467800            11.215932            -2.506058
| 37>   H                      -0.636607            10.749939            -2.417039
| 38>   H                      -3.304628            10.206492            -2.355756
| 39>   H                      -2.017597            9.684624             -1.203176
| 40>   H                      -2.900465            11.246782            -0.991146
| 41>   C                    : -2.543772            11.097149            -5.925851
| 42>   O                    : -3.388210            10.718351            -4.863969
| 43>   H                    : -2.857181            10.590265            -4.086998
| 44>   H                    : -3.183957            11.399977            -6.794502
| 45>   H                    : -2.030645            11.987127            -5.722639
| 46>   H                    : -1.844225            10.332951            -6.223363
| 47> *
| 48>
| 49> #Run DFT-D3 single point of the particle with dimer basis set
| 50> $new_job
| 51> %base "10-117_DFT_B"
| 52> ! wB97X-D3 def2-TZVP TIGHTSCF CHELPG PMODEL
| 53>
| 54> %scf
| 55> MaxIter 1000
| 56> end
| 57>
| 58> * xyz 0 1
| 59>   C                    : -2.445116            10.578755            -1.740875
| 60>   O                    : -1.467800            11.215932            -2.506058
| 61>   H                    : -0.636607            10.749939            -2.417039
| 62>   H                    : -3.304628            10.206492            -2.355756
| 63>   H                    : -2.017597            9.684624             -1.203176
| 64>   H                    : -2.900465            11.246782            -0.991146
| 65>   C                      -2.543772            11.097149            -5.925851
| 66>   O                      -3.388210            10.718351            -4.863969
| 67>   H                      -2.857181            10.590265            -4.086998
| 68>   H                      -3.183957            11.399977            -6.794502
| 69>   H                      -2.030645            11.987127            -5.722639
| 70>   H                      -1.844225            10.332951            -6.223363
| 71> *
| 72>
| 73>                          ****END OF INPUT****
 Total Charge           Charge          ....    0
 Multiplicity           Mult            ....    1
 Number of Electrons    NEL             ....   36
Dispersion correction           -0.001883878
FINAL SINGLE POINT ENERGY      -231.472513851037
Dispersion correction           -0.000256820
FINAL SINGLE POINT ENERGY      -115.734455647800

CARTESIAN COORDINATES (ANGSTROEM)
---------------------------------
  C     -2.445116   10.578755   -1.740875
  O     -1.467800   11.215932   -2.506058
  H     -0.636607   10.749939   -2.417039
  H     -3.304628   10.206492   -2.355756
  H     -2.017597    9.684624   -1.203176
  H     -2.900465   11.246782   -0.991146
  C     -2.543772   11.097149   -5.925851
  O     -3.388210   10.718351   -4.863969
  H     -2.857181   10.590265   -4.086998
  H     -3.183957   11.399977   -6.794502
  H     -2.030645   11.987127   -5.722639
  H     -1.844225   10.332951   -6.223363

 Multiplicity           Mult            ....    1
 Number of Electrons    NEL             ....   18
 Basis Dimension        Dim             ....  172

ORBITAL ENERGIES
----------------

  NO   OCC          E(Eh)            E(eV)
   0   2.0000     -19.229883      -523.2717
   1   2.0000     -10.308021      -280.4955
   2   2.0000      -1.139670       -31.0120
   3   2.0000      -0.800068       -21.7709
   4   2.0000      -0.615263       -16.7421
   5   2.0000      -0.550952       -14.9922
   6   2.0000      -0.522527       -14.2187
   7   2.0000      -0.431149       -11.7322
   8   2.0000      -0.377218       -10.2646
   9   0.0000       0.072749         1.9796
  10   0.0000       0.133803         3.6410
  11   0.0000       0.161601         4.3974
  12   0.0000       0.168534         4.5861
  13   0.0000       0.189880         5.1669

MULLIKEN ATOMIC CHARGES
-----------------------
   0 C :   -0.006627
   1 O :   -0.001813
   2 H :   -0.000073
   3 H :    0.000194
   4 H :    0.000430
   5 H :    0.000840
   6 C :   -0.166104
   7 O :   -0.467232
   8 H :    0.308835
   9 H :    0.117073
  10 H :    0.108157
  11 H :    0.106319
Sum of atomic charges:    0.0000000

LOEWDIN ATOMIC CHARGES
----------------------
   0 C :   -0.014423
   1 O :   -0.008236
   2 H :   -0.000597
   3 H :   -0.007577
   4 H :   -0.000157
   5 H :   -0.000177
   6 C :   -0.384084
   7 O :   -0.052155
   8 H :    0.171967
   9 H :    0.117508
  10 H :    0.085601
  11 H :    0.092330

  Mayer bond orders larger than 0.1
B(  6-C ,  7-O ) :   0.9911 B(  6-C ,  9-H ) :   0.9742 B(  6-C , 10-H ) :   0.9769
B(  6-C , 11-H ) :   0.9771 B(  7-O ,  8-H ) :   0.9099

Dispersion correction           -0.000235421
FINAL SINGLE POINT ENERGY      -115.734591655829

DIPOLE MOMENT
-------------
                                X             Y             Z
Electronic contribution:     -1.11004      -0.54513       1.32802
Nuclear contribution   :      1.78839       0.64282      -1.26393
                        -----------------------------------------
Total Dipole Moment    :      0.67836       0.09769       0.06410
                        -----------------------------------------
Magnitude (a.u.)       :      0.68834
Magnitude (Debye)      :      1.74963

Rotational constants in cm-1:     4.431634     0.836599     0.806305
Rotational constants in MHz : 132857.045271 25080.615107 24172.430524

                             ****ORCA TERMINATED NORMALLY****
TOTAL RUN TIME: 0 days 0 hours 1 minutes 4 seconds 44 msec
