                         Program Version 4.1.2  - RELEASE  -
|  1> #Run DFT-D3 single point of the dimer
|  2> ! wB97X-D3 def2-TZVP TIGHTSCF CHELPG PMODEL PAL8
|  3>
|  4> %base "6-3_DFT_AB"
|  5>
|  6> %scf
|  7> MaxIter 1000
|  8> end
|  9>
| 10> * xyz 0 1
| 11>   C                      3.221137             7.634066             8.195643
| 12>   O                      3.982834             7.118366             9.205529
| 13>   H                      4.894659             7.152275             8.965242
| 14>   H                      3.626544             8.552249             7.826368
| 15>   H                      3.290289             6.915142             7.335799
| 16>   H                      2.201108             7.700457             8.443460
| 17>   C                      7.754791             6.367372             9.485045
| 18>   O                      7.049576             7.425827             8.807849
| 19>   H                      7.715062             8.046957             8.548108
| 20>   H                      8.470335             6.703602             10.245140
| 21>   H                      7.075610             5.722960             9.922584
| 22>   H                      8.330576             5.765274             8.727619
| 23> *
| 24>
| 25> #Run DFT-D3 single point of the molecule with dimer basis set
| 26> $new_job
| 27> %base "6-3_DFT_A"
| 28> ! wB97X-D3 def2-TZVP TIGHTSCF CHELPG PMODEL
| 29>
| 30> %scf
| 31> MaxIter 1000
| 32> end
| 33>
| 34> * xyz 0 1
| 35>   C                      3.221137             7.634066             8.195643
| 36>   O                      3.982834             7.118366             9.205529
| 37>   H                      4.894659             7.152275             8.965242
| 38>   H                      3.626544             8.552249             7.826368
| 39>   H                      3.290289             6.915142             7.335799
| 40>   H                      2.201108             7.700457             8.443460
| 41>   C                    : 7.754791             6.367372             9.485045
| 42>   O                    : 7.049576             7.425827             8.807849
| 43>   H                    : 7.715062             8.046957             8.548108
| 44>   H                    : 8.470335             6.703602             10.245140
| 45>   H                    : 7.075610             5.722960             9.922584
| 46>   H                    : 8.330576             5.765274             8.727619
| 47> *
| 48>
| 49> #Run DFT-D3 single point of the particle with dimer basis set
| 50> $new_job
| 51> %base "6-3_DFT_B"
| 52> ! wB97X-D3 def2-TZVP TIGHTSCF CHELPG PMODEL
| 53>
| 54> %scf
| 55> MaxIter 1000
| 56> end
| 57>
| 58> * xyz 0 1
| 59>   C                    : 3.221137             7.634066             8.195643
| 60>   O                    : 3.982834             7.118366             9.205529
| 61>   H                    : 4.894659             7.152275             8.965242
| 62>   H                    : 3.626544             8.552249             7.826368
| 63>   H                    : 3.290289             6.915142             7.335799
| 64>   H                    : 2.201108             7.700457             8.443460
| 65>   C                      7.754791             6.367372             9.485045
| 66>   O                      7.049576             7.425827             8.807849
| 67>   H                      7.715062             8.046957             8.548108
| 68>   H                      8.470335             6.703602             10.245140
| 69>   H                      7.075610             5.722960             9.922584
| 70>   H                      8.330576             5.765274             8.727619
| 71> *
| 72>
| 73>                          ****END OF INPUT****
 Total Charge           Charge          ....    0
 Multiplicity           Mult            ....    1
 Number of Electrons    NEL             ....   36
Dispersion correction           -0.001478645
FINAL SINGLE POINT ENERGY      -231.472606755191
Dispersion correction           -0.000203949
FINAL SINGLE POINT ENERGY      -115.731489698204

CARTESIAN COORDINATES (ANGSTROEM)
---------------------------------
  C      3.221137    7.634066    8.195643
  O      3.982834    7.118366    9.205529
  H      4.894659    7.152275    8.965242
  H      3.626544    8.552249    7.826368
  H      3.290289    6.915142    7.335799
  H      2.201108    7.700457    8.443460
  C      7.754791    6.367372    9.485045
  O      7.049576    7.425827    8.807849
  H      7.715062    8.046957    8.548108
  H      8.470335    6.703602   10.245140
  H      7.075610    5.722960    9.922584
  H      8.330576    5.765274    8.727619

 Multiplicity           Mult            ....    1
 Number of Electrons    NEL             ....   18
 Basis Dimension        Dim             ....  172

ORBITAL ENERGIES
----------------

  NO   OCC          E(Eh)            E(eV)
   0   2.0000     -19.230818      -523.2972
   1   2.0000     -10.313123      -280.6343
   2   2.0000      -1.133023       -30.8311
   3   2.0000      -0.800804       -21.7910
   4   2.0000      -0.607868       -16.5409
   5   2.0000      -0.534854       -14.5541
   6   2.0000      -0.530958       -14.4481
   7   2.0000      -0.444127       -12.0853
   8   2.0000      -0.374399       -10.1879
   9   0.0000       0.100984         2.7479
  10   0.0000       0.122095         3.3224
  11   0.0000       0.153106         4.1662
  12   0.0000       0.184995         5.0340
  13   0.0000       0.199350         5.4246

MULLIKEN ATOMIC CHARGES
-----------------------
   0 C :    0.000991
   1 O :    0.000102
   2 H :   -0.008001
   3 H :   -0.000897
   4 H :   -0.000278
   5 H :   -0.000091
   6 C :   -0.174071
   7 O :   -0.461080
   8 H :    0.306020
   9 H :    0.109356
  10 H :    0.128951
  11 H :    0.098998
Sum of atomic charges:    0.0000000

LOEWDIN ATOMIC CHARGES
----------------------
   0 C :   -0.001356
   1 O :   -0.002150
   2 H :   -0.022289
   3 H :   -0.000266
   4 H :   -0.000069
   5 H :   -0.000016
   6 C :   -0.358437
   7 O :   -0.066637
   8 H :    0.158085
   9 H :    0.097308
  10 H :    0.093895
  11 H :    0.101934

  Mayer bond orders larger than 0.1
B(  6-C ,  7-O ) :   0.9970 B(  6-C ,  9-H ) :   0.9689 B(  6-C , 10-H ) :   0.9775
B(  6-C , 11-H ) :   0.9771 B(  7-O ,  8-H ) :   0.9052

Dispersion correction           -0.000244705
FINAL SINGLE POINT ENERGY      -115.733700141268

DIPOLE MOMENT
-------------
                                X             Y             Z
Electronic contribution:     -1.08572       1.29929      -0.72635
Nuclear contribution   :      1.78538      -1.34490       0.85675
                        -----------------------------------------
Total Dipole Moment    :      0.69966      -0.04562       0.13040
                        -----------------------------------------
Magnitude (a.u.)       :      0.71317
Magnitude (Debye)      :      1.81273

Rotational constants in cm-1:     4.354979     0.807414     0.782983
Rotational constants in MHz : 130558.996624 24205.649284 23473.237626

                             ****ORCA TERMINATED NORMALLY****
TOTAL RUN TIME: 0 days 0 hours 1 minutes 8 seconds 215 msec
