                         Program Version 4.1.2  - RELEASE  -
|  1> #Run DFT-D3 single point of the dimer
|  2> ! wB97X-D3 def2-TZVP TIGHTSCF CHELPG PMODEL PAL8
|  3>
|  4> %base "12-129_DFT_AB"
|  5>
|  6> %scf
|  7> MaxIter 1000
|  8> end
|  9>
| 10> * xyz 0 1
| 11>   C                      -11.022894           6.448989             1.627032
| 12>   O                      -9.925908            5.585104             1.684676
| 13>   H                      -10.290465           4.941397             2.303877
| 14>   H                      -11.009041           7.205912             2.404261
| 15>   H                      -10.852252           7.117249             0.818682
| 16>   H                      -12.057190           5.986624             1.398803
| 17>   C                      -7.713229            4.227343             -0.511895
| 18>   O                      -8.035849            5.574030             -0.400636
| 19>   H                      -8.691770            5.566973             0.273674
| 20>   H                      -8.487679            3.694594             -1.122684
| 21>   H                      -6.772463            4.108117             -0.921444
| 22>   H                      -7.696652            3.838080             0.479152
| 23> *
| 24>
| 25> #Run DFT-D3 single point of the molecule with dimer basis set
| 26> $new_job
| 27> %base "12-129_DFT_A"
| 28> ! wB97X-D3 def2-TZVP TIGHTSCF CHELPG PMODEL
| 29>
| 30> %scf
| 31> MaxIter 1000
| 32> end
| 33>
| 34> * xyz 0 1
| 35>   C                      -11.022894           6.448989             1.627032
| 36>   O                      -9.925908            5.585104             1.684676
| 37>   H                      -10.290465           4.941397             2.303877
| 38>   H                      -11.009041           7.205912             2.404261
| 39>   H                      -10.852252           7.117249             0.818682
| 40>   H                      -12.057190           5.986624             1.398803
| 41>   C                    : -7.713229            4.227343             -0.511895
| 42>   O                    : -8.035849            5.574030             -0.400636
| 43>   H                    : -8.691770            5.566973             0.273674
| 44>   H                    : -8.487679            3.694594             -1.122684
| 45>   H                    : -6.772463            4.108117             -0.921444
| 46>   H                    : -7.696652            3.838080             0.479152
| 47> *
| 48>
| 49> #Run DFT-D3 single point of the particle with dimer basis set
| 50> $new_job
| 51> %base "12-129_DFT_B"
| 52> ! wB97X-D3 def2-TZVP TIGHTSCF CHELPG PMODEL
| 53>
| 54> %scf
| 55> MaxIter 1000
| 56> end
| 57>
| 58> * xyz 0 1
| 59>   C                    : -11.022894           6.448989             1.627032
| 60>   O                    : -9.925908            5.585104             1.684676
| 61>   H                    : -10.290465           4.941397             2.303877
| 62>   H                    : -11.009041           7.205912             2.404261
| 63>   H                    : -10.852252           7.117249             0.818682
| 64>   H                    : -12.057190           5.986624             1.398803
| 65>   C                      -7.713229            4.227343             -0.511895
| 66>   O                      -8.035849            5.574030             -0.400636
| 67>   H                      -8.691770            5.566973             0.273674
| 68>   H                      -8.487679            3.694594             -1.122684
| 69>   H                      -6.772463            4.108117             -0.921444
| 70>   H                      -7.696652            3.838080             0.479152
| 71> *
| 72>
| 73>                          ****END OF INPUT****
 Total Charge           Charge          ....    0
 Multiplicity           Mult            ....    1
 Number of Electrons    NEL             ....   36
Dispersion correction           -0.001732879
FINAL SINGLE POINT ENERGY      -231.463207572058
Dispersion correction           -0.000238417
FINAL SINGLE POINT ENERGY      -115.725110015419

CARTESIAN COORDINATES (ANGSTROEM)
---------------------------------
  C    -11.022894    6.448989    1.627032
  O     -9.925908    5.585104    1.684676
  H    -10.290465    4.941397    2.303877
  H    -11.009041    7.205912    2.404261
  H    -10.852252    7.117249    0.818682
  H    -12.057190    5.986624    1.398803
  C     -7.713229    4.227343   -0.511895
  O     -8.035849    5.574030   -0.400636
  H     -8.691770    5.566973    0.273674
  H     -8.487679    3.694594   -1.122684
  H     -6.772463    4.108117   -0.921444
  H     -7.696652    3.838080    0.479152

 Multiplicity           Mult            ....    1
 Number of Electrons    NEL             ....   18
 Basis Dimension        Dim             ....  172

ORBITAL ENERGIES
----------------

  NO   OCC          E(Eh)            E(eV)
   0   2.0000     -19.226501      -523.1797
   1   2.0000     -10.303962      -280.3851
   2   2.0000      -1.151449       -31.3325
   3   2.0000      -0.797471       -21.7003
   4   2.0000      -0.616970       -16.7886
   5   2.0000      -0.549069       -14.9409
   6   2.0000      -0.537716       -14.6320
   7   2.0000      -0.439234       -11.9522
   8   2.0000      -0.371447       -10.1076
   9   0.0000       0.070575         1.9204
  10   0.0000       0.129437         3.5222
  11   0.0000       0.161844         4.4040
  12   0.0000       0.167062         4.5460
  13   0.0000       0.191491         5.2107

MULLIKEN ATOMIC CHARGES
-----------------------
   0 C :   -0.002153
   1 O :   -0.003901
   2 H :    0.000131
   3 H :   -0.000002
   4 H :   -0.000682
   5 H :    0.000166
   6 C :   -0.157367
   7 O :   -0.457536
   8 H :    0.310738
   9 H :    0.090738
  10 H :    0.120524
  11 H :    0.099344
Sum of atomic charges:    0.0000000

LOEWDIN ATOMIC CHARGES
----------------------
   0 C :   -0.004306
   1 O :   -0.022604
   2 H :   -0.000870
   3 H :   -0.000084
   4 H :   -0.000900
   5 H :   -0.000051
   6 C :   -0.388725
   7 O :   -0.038244
   8 H :    0.170853
   9 H :    0.100156
  10 H :    0.092593
  11 H :    0.092181

  Mayer bond orders larger than 0.1
B(  6-C ,  7-O ) :   0.9914 B(  6-C ,  9-H ) :   0.9745 B(  6-C , 10-H ) :   0.9758
B(  6-C , 11-H ) :   0.9922 B(  7-O ,  8-H ) :   0.9154

Dispersion correction           -0.000194412
FINAL SINGLE POINT ENERGY      -115.730422140800

DIPOLE MOMENT
-------------
                                X             Y             Z
Electronic contribution:     -0.20100       1.75581      -0.01268
Nuclear contribution   :     -0.05003      -2.26884       0.41224
                        -----------------------------------------
Total Dipole Moment    :     -0.25103      -0.51303       0.39955
                        -----------------------------------------
Magnitude (a.u.)       :      0.69704
Magnitude (Debye)      :      1.77173

Rotational constants in cm-1:     4.334488     0.872793     0.846994
Rotational constants in MHz : 129944.690238 26165.684070 25392.252607

                             ****ORCA TERMINATED NORMALLY****
TOTAL RUN TIME: 0 days 0 hours 1 minutes 10 seconds 835 msec
