                         Program Version 4.1.2  - RELEASE  -
|  1> #Run DFT-D3 single point of the dimer
|  2> ! wB97X-D3 def2-TZVP TIGHTSCF CHELPG PMODEL PAL8
|  3>
|  4> %base "20-169_DFT_AB"
|  5>
|  6> %scf
|  7> MaxIter 1000
|  8> end
|  9>
| 10> * xyz 0 1
| 11>   C                      -9.341786            0.402285             -5.756375
| 12>   O                      -8.319399            0.531478             -6.729478
| 13>   H                      -8.225053            -0.304545            -7.225641
| 14>   H                      -8.919223            -0.177893            -4.987154
| 15>   H                      -9.644535            1.322334             -5.269449
| 16>   H                      -10.175018           -0.165986            -6.165569
| 17>   C                      -8.079077            -3.785707            -5.508851
| 18>   O                      -6.714691            -3.486116            -5.848100
| 19>   H                      -6.723623            -2.813161            -6.595883
| 20>   H                      -8.103429            -4.614727            -4.728990
| 21>   H                      -8.547174            -2.871966            -5.034462
| 22>   H                      -8.627026            -4.078073            -6.404288
| 23> *
| 24>
| 25> #Run DFT-D3 single point of the molecule with dimer basis set
| 26> $new_job
| 27> %base "20-169_DFT_A"
| 28> ! wB97X-D3 def2-TZVP TIGHTSCF CHELPG PMODEL
| 29>
| 30> %scf
| 31> MaxIter 1000
| 32> end
| 33>
| 34> * xyz 0 1
| 35>   C                      -9.341786            0.402285             -5.756375
| 36>   O                      -8.319399            0.531478             -6.729478
| 37>   H                      -8.225053            -0.304545            -7.225641
| 38>   H                      -8.919223            -0.177893            -4.987154
| 39>   H                      -9.644535            1.322334             -5.269449
| 40>   H                      -10.175018           -0.165986            -6.165569
| 41>   C                    : -8.079077            -3.785707            -5.508851
| 42>   O                    : -6.714691            -3.486116            -5.848100
| 43>   H                    : -6.723623            -2.813161            -6.595883
| 44>   H                    : -8.103429            -4.614727            -4.728990
| 45>   H                    : -8.547174            -2.871966            -5.034462
| 46>   H                    : -8.627026            -4.078073            -6.404288
| 47> *
| 48>
| 49> #Run DFT-D3 single point of the particle with dimer basis set
| 50> $new_job
| 51> %base "20-169_DFT_B"
| 52> ! wB97X-D3 def2-TZVP TIGHTSCF CHELPG PMODEL
| 53>
| 54> %scf
| 55> MaxIter 1000
| 56> end
| 57>
| 58> * xyz 0 1
| 59>   C                    : -9.341786            0.402285             -5.756375
| 60>   O                    : -8.319399            0.531478             -6.729478
| 61>   H                    : -8.225053            -0.304545            -7.225641
| 62>   H                    : -8.919223            -0.177893            -4.987154
| 63>   H                    : -9.644535            1.322334             -5.269449
| 64>   H                    : -10.175018           -0.165986            -6.165569
| 65>   C                      -8.079077            -3.785707            -5.508851
| 66>   O                      -6.714691            -3.486116            -5.848100
| 67>   H                      -6.723623            -2.813161            -6.595883
| 68>   H                      -8.103429            -4.614727            -4.728990
| 69>   H                      -8.547174            -2.871966            -5.034462
| 70>   H                      -8.627026            -4.078073            -6.404288
| 71> *
| 72>
| 73>                          ****END OF INPUT****
 Total Charge           Charge          ....    0
 Multiplicity           Mult            ....    1
 Number of Electrons    NEL             ....   36
Dispersion correction           -0.001513854
FINAL SINGLE POINT ENERGY      -231.462736723038
Dispersion correction           -0.000223482
FINAL SINGLE POINT ENERGY      -115.730669347162

CARTESIAN COORDINATES (ANGSTROEM)
---------------------------------
  C     -9.341786    0.402285   -5.756375
  O     -8.319399    0.531478   -6.729478
  H     -8.225053   -0.304545   -7.225641
  H     -8.919223   -0.177893   -4.987154
  H     -9.644535    1.322334   -5.269449
  H    -10.175018   -0.165986   -6.165569
  C     -8.079077   -3.785707   -5.508851
  O     -6.714691   -3.486116   -5.848100
  H     -6.723623   -2.813161   -6.595883
  H     -8.103429   -4.614727   -4.728990
  H     -8.547174   -2.871966   -5.034462
  H     -8.627026   -4.078073   -6.404288

 Multiplicity           Mult            ....    1
 Number of Electrons    NEL             ....   18
 Basis Dimension        Dim             ....  172

ORBITAL ENERGIES
----------------

  NO   OCC          E(Eh)            E(eV)
   0   2.0000     -19.232441      -523.3413
   1   2.0000     -10.323048      -280.9044
   2   2.0000      -1.120335       -30.4859
   3   2.0000      -0.785149       -21.3650
   4   2.0000      -0.598250       -16.2792
   5   2.0000      -0.538797       -14.6614
   6   2.0000      -0.519704       -14.1419
   7   2.0000      -0.430765       -11.7217
   8   2.0000      -0.371238       -10.1019
   9   0.0000       0.072968         1.9856
  10   0.0000       0.118049         3.2123
  11   0.0000       0.148290         4.0352
  12   0.0000       0.170598         4.6422
  13   0.0000       0.186236         5.0678

MULLIKEN ATOMIC CHARGES
-----------------------
   0 C :   -0.000369
   1 O :   -0.000018
   2 H :   -0.000760
   3 H :    0.001708
   4 H :    0.000105
   5 H :   -0.000495
   6 C :   -0.168566
   7 O :   -0.478620
   8 H :    0.315492
   9 H :    0.121318
  10 H :    0.099778
  11 H :    0.110427
Sum of atomic charges:   -0.0000000

LOEWDIN ATOMIC CHARGES
----------------------
   0 C :   -0.001717
   1 O :   -0.000080
   2 H :   -0.000933
   3 H :   -0.001519
   4 H :   -0.000004
   5 H :   -0.000265
   6 C :   -0.380062
   7 O :   -0.118164
   8 H :    0.191513
   9 H :    0.116470
  10 H :    0.101141
  11 H :    0.093620

  Mayer bond orders larger than 0.1
B(  6-C ,  7-O ) :   0.9944 B(  6-C ,  9-H ) :   0.9703 B(  6-C , 10-H ) :   0.9742
B(  6-C , 11-H ) :   0.9761 B(  7-O ,  8-H ) :   0.8942

Dispersion correction           -0.000252081
FINAL SINGLE POINT ENERGY      -115.732336531026

DIPOLE MOMENT
-------------
                                X             Y             Z
Electronic contribution:      1.73650       0.21443      -0.36639
Nuclear contribution   :     -2.28821       0.06781       0.03628
                        -----------------------------------------
Total Dipole Moment    :     -0.55171       0.28224      -0.33012
                        -----------------------------------------
Magnitude (a.u.)       :      0.70216
Magnitude (Debye)      :      1.78474

Rotational constants in cm-1:     4.007736     0.807898     0.776471
Rotational constants in MHz : 120148.905524 24220.175500 23278.000248

                             ****ORCA TERMINATED NORMALLY****
TOTAL RUN TIME: 0 days 0 hours 0 minutes 57 seconds 285 msec
