                         Program Version 4.1.2  - RELEASE  -
|  1> #Run DFT-D3 single point of the dimer
|  2> ! wB97X-D3 def2-TZVP TIGHTSCF CHELPG PMODEL PAL8
|  3>
|  4> %base "13-220_DFT_AB"
|  5>
|  6> %scf
|  7> MaxIter 1000
|  8> end
|  9>
| 10> * xyz 0 1
| 11>   C                      10.341668            6.601642             -4.409817
| 12>   O                      11.690936            6.335511             -4.567534
| 13>   H                      11.782456            5.708723             -3.863163
| 14>   H                      10.120063            7.038252             -3.442425
| 15>   H                      9.927976             7.179461             -5.298297
| 16>   H                      9.726893             5.714083             -4.390775
| 17>   C                      11.182088            4.718349             -0.631126
| 18>   O                      11.233186            4.667703             -2.053851
| 19>   H                      10.467183            4.205962             -2.305741
| 20>   H                      10.332386            5.393297             -0.336643
| 21>   H                      11.164928            3.713559             -0.111626
| 22>   H                      12.155194            5.093004             -0.306110
| 23> *
| 24>
| 25> #Run DFT-D3 single point of the molecule with dimer basis set
| 26> $new_job
| 27> %base "13-220_DFT_A"
| 28> ! wB97X-D3 def2-TZVP TIGHTSCF CHELPG PMODEL
| 29>
| 30> %scf
| 31> MaxIter 1000
| 32> end
| 33>
| 34> * xyz 0 1
| 35>   C                      10.341668            6.601642             -4.409817
| 36>   O                      11.690936            6.335511             -4.567534
| 37>   H                      11.782456            5.708723             -3.863163
| 38>   H                      10.120063            7.038252             -3.442425
| 39>   H                      9.927976             7.179461             -5.298297
| 40>   H                      9.726893             5.714083             -4.390775
| 41>   C                    : 11.182088            4.718349             -0.631126
| 42>   O                    : 11.233186            4.667703             -2.053851
| 43>   H                    : 10.467183            4.205962             -2.305741
| 44>   H                    : 10.332386            5.393297             -0.336643
| 45>   H                    : 11.164928            3.713559             -0.111626
| 46>   H                    : 12.155194            5.093004             -0.306110
| 47> *
| 48>
| 49> #Run DFT-D3 single point of the particle with dimer basis set
| 50> $new_job
| 51> %base "13-220_DFT_B"
| 52> ! wB97X-D3 def2-TZVP TIGHTSCF CHELPG PMODEL
| 53>
| 54> %scf
| 55> MaxIter 1000
| 56> end
| 57>
| 58> * xyz 0 1
| 59>   C                    : 10.341668            6.601642             -4.409817
| 60>   O                    : 11.690936            6.335511             -4.567534
| 61>   H                    : 11.782456            5.708723             -3.863163
| 62>   H                    : 10.120063            7.038252             -3.442425
| 63>   H                    : 9.927976             7.179461             -5.298297
| 64>   H                    : 9.726893             5.714083             -4.390775
| 65>   C                      11.182088            4.718349             -0.631126
| 66>   O                      11.233186            4.667703             -2.053851
| 67>   H                      10.467183            4.205962             -2.305741
| 68>   H                      10.332386            5.393297             -0.336643
| 69>   H                      11.164928            3.713559             -0.111626
| 70>   H                      12.155194            5.093004             -0.306110
| 71> *
| 72>
| 73>                          ****END OF INPUT****
 Total Charge           Charge          ....    0
 Multiplicity           Mult            ....    1
 Number of Electrons    NEL             ....   36
Dispersion correction           -0.001935227
FINAL SINGLE POINT ENERGY      -231.468693058434
Dispersion correction           -0.000204948
FINAL SINGLE POINT ENERGY      -115.728580670034

CARTESIAN COORDINATES (ANGSTROEM)
---------------------------------
  C     10.341668    6.601642   -4.409817
  O     11.690936    6.335511   -4.567534
  H     11.782456    5.708723   -3.863163
  H     10.120063    7.038252   -3.442425
  H      9.927976    7.179461   -5.298297
  H      9.726893    5.714083   -4.390775
  C     11.182088    4.718349   -0.631126
  O     11.233186    4.667703   -2.053851
  H     10.467183    4.205962   -2.305741
  H     10.332386    5.393297   -0.336643
  H     11.164928    3.713559   -0.111626
  H     12.155194    5.093004   -0.306110

 Multiplicity           Mult            ....    1
 Number of Electrons    NEL             ....   18
 Basis Dimension        Dim             ....  172

ORBITAL ENERGIES
----------------

  NO   OCC          E(Eh)            E(eV)
   0   2.0000     -19.230403      -523.2859
   1   2.0000     -10.321333      -280.8577
   2   2.0000      -1.143016       -31.1030
   3   2.0000      -0.793395       -21.5894
   4   2.0000      -0.608223       -16.5506
   5   2.0000      -0.549575       -14.9547
   6   2.0000      -0.518208       -14.1011
   7   2.0000      -0.435509       -11.8508
   8   2.0000      -0.377818       -10.2810
   9   0.0000       0.093959         2.5567
  10   0.0000       0.131731         3.5846
  11   0.0000       0.154190         4.1957
  12   0.0000       0.182840         4.9753
  13   0.0000       0.188986         5.1426

MULLIKEN ATOMIC CHARGES
-----------------------
   0 C :    0.002700
   1 O :    0.000458
   2 H :   -0.007577
   3 H :   -0.004569
   4 H :   -0.000731
   5 H :   -0.004618
   6 C :   -0.172679
   7 O :   -0.449665
   8 H :    0.308394
   9 H :    0.107391
  10 H :    0.101569
  11 H :    0.119326
Sum of atomic charges:   -0.0000000

LOEWDIN ATOMIC CHARGES
----------------------
   0 C :   -0.012827
   1 O :   -0.002528
   2 H :   -0.024313
   3 H :   -0.003210
   4 H :   -0.000178
   5 H :   -0.002429
   6 C :   -0.385492
   7 O :   -0.032353
   8 H :    0.150004
   9 H :    0.102970
  10 H :    0.102240
  11 H :    0.108117

  Mayer bond orders larger than 0.1
B(  6-C ,  7-O ) :   0.9948 B(  6-C ,  9-H ) :   0.9737 B(  6-C , 10-H ) :   0.9650
B(  6-C , 11-H ) :   0.9784 B(  7-O ,  8-H ) :   0.9063

Dispersion correction           -0.000245575
FINAL SINGLE POINT ENERGY      -115.732736368391

DIPOLE MOMENT
-------------
                                X             Y             Z
Electronic contribution:      0.12033       0.00217      -1.80947
Nuclear contribution   :     -0.59426      -0.28873       2.21631
                        -----------------------------------------
Total Dipole Moment    :     -0.47393      -0.28655       0.40684
                        -----------------------------------------
Magnitude (a.u.)       :      0.68720
Magnitude (Debye)      :      1.74673

Rotational constants in cm-1:     4.151162     0.819526     0.800727
Rotational constants in MHz : 124448.700962 24568.764884 24005.177767

                             ****ORCA TERMINATED NORMALLY****
TOTAL RUN TIME: 0 days 0 hours 1 minutes 9 seconds 621 msec
