                         Program Version 4.1.2  - RELEASE  -
|  1> #Run DFT-D3 single point of the dimer
|  2> ! wB97X-D3 def2-TZVP TIGHTSCF CHELPG PMODEL PAL8
|  3>
|  4> %base "9-15_DFT_AB"
|  5>
|  6> %scf
|  7> MaxIter 1000
|  8> end
|  9>
| 10> * xyz 0 1
| 11>   C                      1.487376             -0.428665            4.266690
| 12>   O                      2.630056             -0.194025            5.057445
| 13>   H                      2.762876             -0.876611            5.745413
| 14>   H                      1.308714             0.285588             3.519412
| 15>   H                      1.633911             -1.323911            3.744331
| 16>   H                      0.553844             -0.624710            4.835763
| 17>   C                      -1.356228            -0.340846            0.709262
| 18>   O                      -0.810618            -0.266674            -0.606625
| 19>   H                      -1.477171            -0.764683            -1.013376
| 20>   H                      -0.663269            0.163702             1.446102
| 21>   H                      -2.321533            0.255748             0.727861
| 22>   H                      -1.548935            -1.338380            1.075579
| 23> *
| 24>
| 25> #Run DFT-D3 single point of the molecule with dimer basis set
| 26> $new_job
| 27> %base "9-15_DFT_A"
| 28> ! wB97X-D3 def2-TZVP TIGHTSCF CHELPG PMODEL
| 29>
| 30> %scf
| 31> MaxIter 1000
| 32> end
| 33>
| 34> * xyz 0 1
| 35>   C                      1.487376             -0.428665            4.266690
| 36>   O                      2.630056             -0.194025            5.057445
| 37>   H                      2.762876             -0.876611            5.745413
| 38>   H                      1.308714             0.285588             3.519412
| 39>   H                      1.633911             -1.323911            3.744331
| 40>   H                      0.553844             -0.624710            4.835763
| 41>   C                    : -1.356228            -0.340846            0.709262
| 42>   O                    : -0.810618            -0.266674            -0.606625
| 43>   H                    : -1.477171            -0.764683            -1.013376
| 44>   H                    : -0.663269            0.163702             1.446102
| 45>   H                    : -2.321533            0.255748             0.727861
| 46>   H                    : -1.548935            -1.338380            1.075579
| 47> *
| 48>
| 49> #Run DFT-D3 single point of the particle with dimer basis set
| 50> $new_job
| 51> %base "9-15_DFT_B"
| 52> ! wB97X-D3 def2-TZVP TIGHTSCF CHELPG PMODEL
| 53>
| 54> %scf
| 55> MaxIter 1000
| 56> end
| 57>
| 58> * xyz 0 1
| 59>   C                    : 1.487376             -0.428665            4.266690
| 60>   O                    : 2.630056             -0.194025            5.057445
| 61>   H                    : 2.762876             -0.876611            5.745413
| 62>   H                    : 1.308714             0.285588             3.519412
| 63>   H                    : 1.633911             -1.323911            3.744331
| 64>   H                    : 0.553844             -0.624710            4.835763
| 65>   C                      -1.356228            -0.340846            0.709262
| 66>   O                      -0.810618            -0.266674            -0.606625
| 67>   H                      -1.477171            -0.764683            -1.013376
| 68>   H                      -0.663269            0.163702             1.446102
| 69>   H                      -2.321533            0.255748             0.727861
| 70>   H                      -1.548935            -1.338380            1.075579
| 71> *
| 72>
| 73>                          ****END OF INPUT****
 Total Charge           Charge          ....    0
 Multiplicity           Mult            ....    1
 Number of Electrons    NEL             ....   36
Dispersion correction           -0.000996021
FINAL SINGLE POINT ENERGY      -231.458813487931
Dispersion correction           -0.000243512
FINAL SINGLE POINT ENERGY      -115.729501853543

CARTESIAN COORDINATES (ANGSTROEM)
---------------------------------
  C      1.487376   -0.428665    4.266690
  O      2.630056   -0.194025    5.057445
  H      2.762876   -0.876611    5.745413
  H      1.308714    0.285588    3.519412
  H      1.633911   -1.323911    3.744331
  H      0.553844   -0.624710    4.835763
  C     -1.356228   -0.340846    0.709262
  O     -0.810618   -0.266674   -0.606625
  H     -1.477171   -0.764683   -1.013376
  H     -0.663269    0.163702    1.446102
  H     -2.321533    0.255748    0.727861
  H     -1.548935   -1.338380    1.075579

 Multiplicity           Mult            ....    1
 Number of Electrons    NEL             ....   18
 Basis Dimension        Dim             ....  172

ORBITAL ENERGIES
----------------

  NO   OCC          E(Eh)            E(eV)
   0   2.0000     -19.232369      -523.3394
   1   2.0000     -10.321995      -280.8758
   2   2.0000      -1.150056       -31.2946
   3   2.0000      -0.789088       -21.4722
   4   2.0000      -0.611647       -16.6438
   5   2.0000      -0.542652       -14.7663
   6   2.0000      -0.521448       -14.1893
   7   2.0000      -0.446561       -12.1516
   8   2.0000      -0.376805       -10.2534
   9   0.0000       0.083629         2.2757
  10   0.0000       0.117713         3.2031
  11   0.0000       0.145990         3.9726
  12   0.0000       0.170500         4.6395
  13   0.0000       0.190054         5.1716

MULLIKEN ATOMIC CHARGES
-----------------------
   0 C :   -0.000265
   1 O :   -0.000001
   2 H :   -0.000001
   3 H :   -0.000047
   4 H :   -0.000023
   5 H :   -0.000022
   6 C :   -0.192607
   7 O :   -0.445630
   8 H :    0.306962
   9 H :    0.120707
  10 H :    0.101142
  11 H :    0.109786
Sum of atomic charges:    0.0000000

LOEWDIN ATOMIC CHARGES
----------------------
   0 C :   -0.001140
   1 O :   -0.000005
   2 H :   -0.000002
   3 H :   -0.001224
   4 H :   -0.000082
   5 H :   -0.000058
   6 C :   -0.390768
   7 O :   -0.065805
   8 H :    0.151228
   9 H :    0.115243
  10 H :    0.101983
  11 H :    0.090632

  Mayer bond orders larger than 0.1
B(  6-C ,  7-O ) :   1.0023 B(  6-C ,  9-H ) :   0.9742 B(  6-C , 10-H ) :   0.9779
B(  6-C , 11-H ) :   0.9684 B(  7-O ,  8-H ) :   0.9132

Dispersion correction           -0.000222809
FINAL SINGLE POINT ENERGY      -115.729022944091

DIPOLE MOMENT
-------------
                                X             Y             Z
Electronic contribution:      0.89250       0.05755      -1.71060
Nuclear contribution   :     -1.49863      -0.40091       1.96342
                        -----------------------------------------
Total Dipole Moment    :     -0.60612      -0.34336       0.25282
                        -----------------------------------------
Magnitude (a.u.)       :      0.74108
Magnitude (Debye)      :      1.88368

Rotational constants in cm-1:     4.153931     0.827910     0.797981
Rotational constants in MHz : 124531.724506 24820.125906 23922.864982

                             ****ORCA TERMINATED NORMALLY****
TOTAL RUN TIME: 0 days 0 hours 0 minutes 38 seconds 869 msec
