                         Program Version 4.1.2  - RELEASE  -
|  1> #Run DFT-D3 single point of the dimer
|  2> ! wB97X-D3 def2-TZVP TIGHTSCF CHELPG PMODEL PAL8
|  3>
|  4> %base "4-43_DFT_AB"
|  5>
|  6> %scf
|  7> MaxIter 1000
|  8> end
|  9>
| 10> * xyz 0 1
| 11>   C                      -5.908820            9.914225             2.928473
| 12>   O                      -5.230822            9.218383             3.952010
| 13>   H                      -5.789429            8.456262             4.113283
| 14>   H                      -5.594980            9.513840             1.948550
| 15>   H                      -6.928582            9.598080             2.978379
| 16>   H                      -5.841982            11.018729            3.005331
| 17>   C                      -3.676988            6.258992             5.410534
| 18>   O                      -2.437939            6.218606             6.109411
| 19>   H                      -2.542098            5.874862             6.986939
| 20>   H                      -4.129947            5.276658             5.246592
| 21>   H                      -4.294873            7.006507             5.893704
| 22>   H                      -3.527705            6.585124             4.395753
| 23> *
| 24>
| 25> #Run DFT-D3 single point of the molecule with dimer basis set
| 26> $new_job
| 27> %base "4-43_DFT_A"
| 28> ! wB97X-D3 def2-TZVP TIGHTSCF CHELPG PMODEL
| 29>
| 30> %scf
| 31> MaxIter 1000
| 32> end
| 33>
| 34> * xyz 0 1
| 35>   C                      -5.908820            9.914225             2.928473
| 36>   O                      -5.230822            9.218383             3.952010
| 37>   H                      -5.789429            8.456262             4.113283
| 38>   H                      -5.594980            9.513840             1.948550
| 39>   H                      -6.928582            9.598080             2.978379
| 40>   H                      -5.841982            11.018729            3.005331
| 41>   C                    : -3.676988            6.258992             5.410534
| 42>   O                    : -2.437939            6.218606             6.109411
| 43>   H                    : -2.542098            5.874862             6.986939
| 44>   H                    : -4.129947            5.276658             5.246592
| 45>   H                    : -4.294873            7.006507             5.893704
| 46>   H                    : -3.527705            6.585124             4.395753
| 47> *
| 48>
| 49> #Run DFT-D3 single point of the particle with dimer basis set
| 50> $new_job
| 51> %base "4-43_DFT_B"
| 52> ! wB97X-D3 def2-TZVP TIGHTSCF CHELPG PMODEL
| 53>
| 54> %scf
| 55> MaxIter 1000
| 56> end
| 57>
| 58> * xyz 0 1
| 59>   C                    : -5.908820            9.914225             2.928473
| 60>   O                    : -5.230822            9.218383             3.952010
| 61>   H                    : -5.789429            8.456262             4.113283
| 62>   H                    : -5.594980            9.513840             1.948550
| 63>   H                    : -6.928582            9.598080             2.978379
| 64>   H                    : -5.841982            11.018729            3.005331
| 65>   C                      -3.676988            6.258992             5.410534
| 66>   O                      -2.437939            6.218606             6.109411
| 67>   H                      -2.542098            5.874862             6.986939
| 68>   H                      -4.129947            5.276658             5.246592
| 69>   H                      -4.294873            7.006507             5.893704
| 70>   H                      -3.527705            6.585124             4.395753
| 71> *
| 72>
| 73>                          ****END OF INPUT****
 Total Charge           Charge          ....    0
 Multiplicity           Mult            ....    1
 Number of Electrons    NEL             ....   36
Dispersion correction           -0.001296221
FINAL SINGLE POINT ENERGY      -231.464640266969
Dispersion correction           -0.000218551
FINAL SINGLE POINT ENERGY      -115.730923216285

CARTESIAN COORDINATES (ANGSTROEM)
---------------------------------
  C     -5.908820    9.914225    2.928473
  O     -5.230822    9.218383    3.952010
  H     -5.789429    8.456262    4.113283
  H     -5.594980    9.513840    1.948550
  H     -6.928582    9.598080    2.978379
  H     -5.841982   11.018729    3.005331
  C     -3.676988    6.258992    5.410534
  O     -2.437939    6.218606    6.109411
  H     -2.542098    5.874862    6.986939
  H     -4.129947    5.276658    5.246592
  H     -4.294873    7.006507    5.893704
  H     -3.527705    6.585124    4.395753

 Multiplicity           Mult            ....    1
 Number of Electrons    NEL             ....   18
 Basis Dimension        Dim             ....  172

ORBITAL ENERGIES
----------------

  NO   OCC          E(Eh)            E(eV)
   0   2.0000     -19.225803      -523.1607
   1   2.0000     -10.310825      -280.5718
   2   2.0000      -1.132026       -30.8040
   3   2.0000      -0.801323       -21.8051
   4   2.0000      -0.605660       -16.4809
   5   2.0000      -0.553218       -15.0538
   6   2.0000      -0.525279       -14.2936
   7   2.0000      -0.423261       -11.5175
   8   2.0000      -0.375852       -10.2275
   9   0.0000       0.085958         2.3390
  10   0.0000       0.120020         3.2659
  11   0.0000       0.143306         3.8996
  12   0.0000       0.184510         5.0208
  13   0.0000       0.191667         5.2155

MULLIKEN ATOMIC CHARGES
-----------------------
   0 C :   -0.000152
   1 O :   -0.000454
   2 H :   -0.000641
   3 H :   -0.000013
   4 H :   -0.000005
   5 H :    0.000014
   6 C :   -0.153802
   7 O :   -0.486116
   8 H :    0.315128
   9 H :    0.101634
  10 H :    0.106711
  11 H :    0.117696
Sum of atomic charges:    0.0000000

LOEWDIN ATOMIC CHARGES
----------------------
   0 C :   -0.000104
   1 O :   -0.001259
   2 H :   -0.002339
   3 H :   -0.000010
   4 H :   -0.000001
   5 H :   -0.000001
   6 C :   -0.373835
   7 O :   -0.080546
   8 H :    0.158389
   9 H :    0.096559
  10 H :    0.096888
  11 H :    0.106259

  Mayer bond orders larger than 0.1
B(  6-C ,  7-O ) :   0.9949 B(  6-C ,  9-H ) :   0.9696 B(  6-C , 10-H ) :   0.9841
B(  6-C , 11-H ) :   0.9727 B(  7-O ,  8-H ) :   0.8988

Dispersion correction           -0.000249174
FINAL SINGLE POINT ENERGY      -115.733522070548

DIPOLE MOMENT
-------------
                                X             Y             Z
Electronic contribution:      1.56853      -0.03646       0.83358
Nuclear contribution   :     -2.13767      -0.16463      -0.58237
                        -----------------------------------------
Total Dipole Moment    :     -0.56914      -0.20110       0.25121
                        -----------------------------------------
Magnitude (a.u.)       :      0.65381
Magnitude (Debye)      :      1.66185

Rotational constants in cm-1:     4.433947     0.813167     0.799661
Rotational constants in MHz : 132926.376851 24378.141870 23973.246911

                             ****ORCA TERMINATED NORMALLY****
TOTAL RUN TIME: 0 days 0 hours 1 minutes 24 seconds 887 msec
