                         Program Version 4.1.2  - RELEASE  -
|  1> #Run DFT-D3 single point of the dimer
|  2> ! wB97X-D3 def2-TZVP TIGHTSCF CHELPG PMODEL PAL8
|  3>
|  4> %base "7-32_DFT_AB"
|  5>
|  6> %scf
|  7> MaxIter 1000
|  8> end
|  9>
| 10> * xyz 0 1
| 11>   C                      0.666390             -0.715815            -0.420100
| 12>   O                      1.567490             0.321839             -0.143165
| 13>   H                      1.326093             1.086254             -0.696441
| 14>   H                      -0.316124            -0.427597            -0.014911
| 15>   H                      0.543968             -0.926248            -1.464179
| 16>   H                      1.024687             -1.624058            0.019191
| 17>   C                      -0.054853            -2.760449            -4.019701
| 18>   O                      1.160841             -3.032682            -4.713743
| 19>   H                      1.662629             -2.238347            -4.884516
| 20>   H                      0.122158             -2.158063            -3.125153
| 21>   H                      -0.722976            -2.123060            -4.581221
| 22>   H                      -0.512045            -3.724581            -3.800778
| 23> *
| 24>
| 25> #Run DFT-D3 single point of the molecule with dimer basis set
| 26> $new_job
| 27> %base "7-32_DFT_A"
| 28> ! wB97X-D3 def2-TZVP TIGHTSCF CHELPG PMODEL
| 29>
| 30> %scf
| 31> MaxIter 1000
| 32> end
| 33>
| 34> * xyz 0 1
| 35>   C                      0.666390             -0.715815            -0.420100
| 36>   O                      1.567490             0.321839             -0.143165
| 37>   H                      1.326093             1.086254             -0.696441
| 38>   H                      -0.316124            -0.427597            -0.014911
| 39>   H                      0.543968             -0.926248            -1.464179
| 40>   H                      1.024687             -1.624058            0.019191
| 41>   C                    : -0.054853            -2.760449            -4.019701
| 42>   O                    : 1.160841             -3.032682            -4.713743
| 43>   H                    : 1.662629             -2.238347            -4.884516
| 44>   H                    : 0.122158             -2.158063            -3.125153
| 45>   H                    : -0.722976            -2.123060            -4.581221
| 46>   H                    : -0.512045            -3.724581            -3.800778
| 47> *
| 48>
| 49> #Run DFT-D3 single point of the particle with dimer basis set
| 50> $new_job
| 51> %base "7-32_DFT_B"
| 52> ! wB97X-D3 def2-TZVP TIGHTSCF CHELPG PMODEL
| 53>
| 54> %scf
| 55> MaxIter 1000
| 56> end
| 57>
| 58> * xyz 0 1
| 59>   C                    : 0.666390             -0.715815            -0.420100
| 60>   O                    : 1.567490             0.321839             -0.143165
| 61>   H                    : 1.326093             1.086254             -0.696441
| 62>   H                    : -0.316124            -0.427597            -0.014911
| 63>   H                    : 0.543968             -0.926248            -1.464179
| 64>   H                    : 1.024687             -1.624058            0.019191
| 65>   C                      -0.054853            -2.760449            -4.019701
| 66>   O                      1.160841             -3.032682            -4.713743
| 67>   H                      1.662629             -2.238347            -4.884516
| 68>   H                      0.122158             -2.158063            -3.125153
| 69>   H                      -0.722976            -2.123060            -4.581221
| 70>   H                      -0.512045            -3.724581            -3.800778
| 71> *
| 72>
| 73>                          ****END OF INPUT****
 Total Charge           Charge          ....    0
 Multiplicity           Mult            ....    1
 Number of Electrons    NEL             ....   36
Dispersion correction           -0.001218518
FINAL SINGLE POINT ENERGY      -231.470533645305
Dispersion correction           -0.000225229
FINAL SINGLE POINT ENERGY      -115.735522864344

CARTESIAN COORDINATES (ANGSTROEM)
---------------------------------
  C      0.666390   -0.715815   -0.420100
  O      1.567490    0.321839   -0.143165
  H      1.326093    1.086254   -0.696441
  H     -0.316124   -0.427597   -0.014911
  H      0.543968   -0.926248   -1.464179
  H      1.024687   -1.624058    0.019191
  C     -0.054853   -2.760449   -4.019701
  O      1.160841   -3.032682   -4.713743
  H      1.662629   -2.238347   -4.884516
  H      0.122158   -2.158063   -3.125153
  H     -0.722976   -2.123060   -4.581221
  H     -0.512045   -3.724581   -3.800778

 Multiplicity           Mult            ....    1
 Number of Electrons    NEL             ....   18
 Basis Dimension        Dim             ....  172

ORBITAL ENERGIES
----------------

  NO   OCC          E(Eh)            E(eV)
   0   2.0000     -19.226554      -523.1811
   1   2.0000     -10.312703      -280.6229
   2   2.0000      -1.129900       -30.7461
   3   2.0000      -0.799195       -21.7472
   4   2.0000      -0.615164       -16.7395
   5   2.0000      -0.531868       -14.4729
   6   2.0000      -0.528059       -14.3692
   7   2.0000      -0.436237       -11.8706
   8   2.0000      -0.370416       -10.0795
   9   0.0000       0.082918         2.2563
  10   0.0000       0.120753         3.2859
  11   0.0000       0.152338         4.1453
  12   0.0000       0.169551         4.6137
  13   0.0000       0.192915         5.2495

MULLIKEN ATOMIC CHARGES
-----------------------
   0 C :   -0.004673
   1 O :    0.000007
   2 H :    0.000004
   3 H :    0.000395
   4 H :    0.008635
   5 H :   -0.000198
   6 C :   -0.137939
   7 O :   -0.487022
   8 H :    0.312505
   9 H :    0.082357
  10 H :    0.102374
  11 H :    0.123555
Sum of atomic charges:    0.0000000

LOEWDIN ATOMIC CHARGES
----------------------
   0 C :   -0.003704
   1 O :   -0.000020
   2 H :   -0.000003
   3 H :   -0.000038
   4 H :   -0.008450
   5 H :   -0.000151
   6 C :   -0.366145
   7 O :   -0.084985
   8 H :    0.161211
   9 H :    0.100064
  10 H :    0.091301
  11 H :    0.110919

  Mayer bond orders larger than 0.1
B(  6-C ,  7-O ) :   0.9883 B(  6-C ,  9-H ) :   0.9790 B(  6-C , 10-H ) :   0.9764
B(  6-C , 11-H ) :   0.9756 B(  7-O ,  8-H ) :   0.8989

Dispersion correction           -0.000246214
FINAL SINGLE POINT ENERGY      -115.735235543236

DIPOLE MOMENT
-------------
                                X             Y             Z
Electronic contribution:      1.46014      -0.52932      -0.86220
Nuclear contribution   :     -1.63848       1.16196       1.03890
                        -----------------------------------------
Total Dipole Moment    :     -0.17833       0.63264       0.17670
                        -----------------------------------------
Magnitude (a.u.)       :      0.68063
Magnitude (Debye)      :      1.73003

Rotational constants in cm-1:     4.359231     0.824492     0.785506
Rotational constants in MHz : 130686.470425 24717.651221 23548.869723

                             ****ORCA TERMINATED NORMALLY****
TOTAL RUN TIME: 0 days 0 hours 0 minutes 56 seconds 246 msec
