                         Program Version 4.1.2  - RELEASE  -
|  1> #Run DFT-D3 single point of the dimer
|  2> ! wB97X-D3 def2-TZVP TIGHTSCF  CHELPG PAL8
|  3>
|  4> %base "140_charges"
|  5>
|  6> %scf
|  7> MaxIter 1000
|  8> end
|  9> %output
| 10>   Print[ P_Mayer ] 1
| 11>   Print[ P_NatPop ] 1
| 12>   Print[ P_Hirshfeld ] 1
| 13>   Print[ P_Mulliken ] 1
| 14>   Print [ P_Loewdin ] 1
| 15> end
| 16>
| 17> * xyz 0 1
| 18>   C                      -3.711648            7.802668             -6.226796
| 19>   O                      -2.773601            6.938961             -5.606967
| 20>   H                      -2.109174            6.807230             -6.248859
| 21>   H                      -4.285816            7.265234             -7.050281
| 22>   H                      -4.571025            8.053848             -5.516668
| 23>   H                      -3.234337            8.690665             -6.687964
| 24> *
| 25>
| 26>                          ****END OF INPUT****

CARTESIAN COORDINATES (ANGSTROEM)
---------------------------------
  C     -3.711648    7.802668   -6.226796
  O     -2.773601    6.938961   -5.606967
  H     -2.109174    6.807230   -6.248859
  H     -4.285816    7.265234   -7.050281
  H     -4.571025    8.053848   -5.516668
  H     -3.234337    8.690665   -6.687964

 Total Charge           Charge          ....    0
 Multiplicity           Mult            ....    1
 Number of Electrons    NEL             ....   18
 Basis Dimension        Dim             ....   86

ORBITAL ENERGIES
----------------

  NO   OCC          E(Eh)            E(eV)
   0   2.0000     -19.231351      -523.3117
   1   2.0000     -10.325520      -280.9717
   2   2.0000      -1.144465       -31.1425
   3   2.0000      -0.789196       -21.4751
   4   2.0000      -0.613322       -16.6893
   5   2.0000      -0.540556       -14.7093
   6   2.0000      -0.519826       -14.1452
   7   2.0000      -0.437853       -11.9146
   8   2.0000      -0.373033       -10.1507
   9   0.0000       0.116341         3.1658
  10   0.0000       0.152428         4.1478
  11   0.0000       0.195019         5.3067
  12   0.0000       0.198614         5.4045
  13   0.0000       0.225306         6.1309

MULLIKEN ATOMIC CHARGES
-----------------------
   0 C :   -0.178985
   1 O :   -0.457028
   2 H :    0.309742
   3 H :    0.096786
   4 H :    0.121770
   5 H :    0.107716
Sum of atomic charges:   -0.0000000

LOEWDIN ATOMIC CHARGES
----------------------
   0 C :   -0.399772
   1 O :   -0.065897
   2 H :    0.152686
   3 H :    0.098611
   4 H :    0.118089
   5 H :    0.096282

  Mayer bond orders larger than 0.1
B(  0-C ,  1-O ) :   1.0017 B(  0-C ,  3-H ) :   0.9729 B(  0-C ,  4-H ) :   0.9715
B(  0-C ,  5-H ) :   0.9717 B(  1-O ,  2-H ) :   0.9065

Dispersion correction           -0.000249488
FINAL SINGLE POINT ENERGY      -115.731392941632

DIPOLE MOMENT
-------------
                                X             Y             Z
Electronic contribution:      1.27915      -1.04533       1.00311
Nuclear contribution   :     -1.22105       1.28930      -1.64583
                        -----------------------------------------
Total Dipole Moment    :      0.05810       0.24398      -0.64272
                        -----------------------------------------
Magnitude (a.u.)       :      0.68992
Magnitude (Debye)      :      1.75363

Rotational constants in cm-1:     4.131583     0.823936     0.789793
Rotational constants in MHz : 123861.752553 24700.967131 23677.383533

                             ****ORCA TERMINATED NORMALLY****
TOTAL RUN TIME: 0 days 0 hours 0 minutes 40 seconds 677 msec
