                         Program Version 4.1.2  - RELEASE  -
|  1> #Run DFT-D3 single point of the dimer
|  2> ! wB97X-D3 def2-TZVP TIGHTSCF CHELPG PMODEL PAL8
|  3>
|  4> %base "5-37_DFT_AB"
|  5>
|  6> %scf
|  7> MaxIter 1000
|  8> end
|  9>
| 10> * xyz 0 1
| 11>   C                      0.049032             -10.783737           -3.547147
| 12>   O                      -1.245113            -10.968864           -2.996254
| 13>   H                      -1.364851            -11.804296           -2.480069
| 14>   H                      0.119904             -9.931125            -4.234255
| 15>   H                      0.661525             -10.373009           -2.824909
| 16>   H                      0.387264             -11.742814           -4.004112
| 17>   C                      2.151310             -9.375479            1.494125
| 18>   O                      1.398269             -9.213215            2.665177
| 19>   H                      0.489051             -9.614509            2.487930
| 20>   H                      3.081860             -8.821404            1.550915
| 21>   H                      2.262270             -10.438042           1.210438
| 22>   H                      1.555600             -8.862164            0.704413
| 23> *
| 24>
| 25> #Run DFT-D3 single point of the molecule with dimer basis set
| 26> $new_job
| 27> %base "5-37_DFT_A"
| 28> ! wB97X-D3 def2-TZVP TIGHTSCF CHELPG PMODEL
| 29>
| 30> %scf
| 31> MaxIter 1000
| 32> end
| 33>
| 34> * xyz 0 1
| 35>   C                      0.049032             -10.783737           -3.547147
| 36>   O                      -1.245113            -10.968864           -2.996254
| 37>   H                      -1.364851            -11.804296           -2.480069
| 38>   H                      0.119904             -9.931125            -4.234255
| 39>   H                      0.661525             -10.373009           -2.824909
| 40>   H                      0.387264             -11.742814           -4.004112
| 41>   C                    : 2.151310             -9.375479            1.494125
| 42>   O                    : 1.398269             -9.213215            2.665177
| 43>   H                    : 0.489051             -9.614509            2.487930
| 44>   H                    : 3.081860             -8.821404            1.550915
| 45>   H                    : 2.262270             -10.438042           1.210438
| 46>   H                    : 1.555600             -8.862164            0.704413
| 47> *
| 48>
| 49> #Run DFT-D3 single point of the particle with dimer basis set
| 50> $new_job
| 51> %base "5-37_DFT_B"
| 52> ! wB97X-D3 def2-TZVP TIGHTSCF CHELPG PMODEL
| 53>
| 54> %scf
| 55> MaxIter 1000
| 56> end
| 57>
| 58> * xyz 0 1
| 59>   C                    : 0.049032             -10.783737           -3.547147
| 60>   O                    : -1.245113            -10.968864           -2.996254
| 61>   H                    : -1.364851            -11.804296           -2.480069
| 62>   H                    : 0.119904             -9.931125            -4.234255
| 63>   H                    : 0.661525             -10.373009           -2.824909
| 64>   H                    : 0.387264             -11.742814           -4.004112
| 65>   C                      2.151310             -9.375479            1.494125
| 66>   O                      1.398269             -9.213215            2.665177
| 67>   H                      0.489051             -9.614509            2.487930
| 68>   H                      3.081860             -8.821404            1.550915
| 69>   H                      2.262270             -10.438042           1.210438
| 70>   H                      1.555600             -8.862164            0.704413
| 71> *
| 72>
| 73>                          ****END OF INPUT****
 Total Charge           Charge          ....    0
 Multiplicity           Mult            ....    1
 Number of Electrons    NEL             ....   36
Dispersion correction           -0.000653913
FINAL SINGLE POINT ENERGY      -231.455519225132
Dispersion correction           -0.000251193
FINAL SINGLE POINT ENERGY      -115.724120666872

CARTESIAN COORDINATES (ANGSTROEM)
---------------------------------
  C      0.049032  -10.783737   -3.547147
  O     -1.245113  -10.968864   -2.996254
  H     -1.364851  -11.804296   -2.480069
  H      0.119904   -9.931125   -4.234255
  H      0.661525  -10.373009   -2.824909
  H      0.387264  -11.742814   -4.004112
  C      2.151310   -9.375479    1.494125
  O      1.398269   -9.213215    2.665177
  H      0.489051   -9.614509    2.487930
  H      3.081860   -8.821404    1.550915
  H      2.262270  -10.438042    1.210438
  H      1.555600   -8.862164    0.704413

 Multiplicity           Mult            ....    1
 Number of Electrons    NEL             ....   18
 Basis Dimension        Dim             ....  172

ORBITAL ENERGIES
----------------

  NO   OCC          E(Eh)            E(eV)
   0   2.0000     -19.231668      -523.3203
   1   2.0000     -10.313772      -280.6520
   2   2.0000      -1.131464       -30.7887
   3   2.0000      -0.786817       -21.4104
   4   2.0000      -0.604661       -16.4537
   5   2.0000      -0.543602       -14.7922
   6   2.0000      -0.529903       -14.4194
   7   2.0000      -0.430454       -11.7132
   8   2.0000      -0.367232        -9.9929
   9   0.0000       0.082269         2.2387
  10   0.0000       0.108245         2.9455
  11   0.0000       0.148102         4.0301
  12   0.0000       0.159761         4.3473
  13   0.0000       0.187908         5.1132

MULLIKEN ATOMIC CHARGES
-----------------------
   0 C :    0.000174
   1 O :   -0.000003
   2 H :   -0.000003
   3 H :   -0.000008
   4 H :   -0.000380
   5 H :   -0.000003
   6 C :   -0.159518
   7 O :   -0.476392
   8 H :    0.318802
   9 H :    0.121881
  10 H :    0.099493
  11 H :    0.095958
Sum of atomic charges:    0.0000000

LOEWDIN ATOMIC CHARGES
----------------------
   0 C :   -0.000031
   1 O :   -0.000001
   2 H :   -0.000001
   3 H :   -0.000001
   4 H :   -0.000141
   5 H :   -0.000000
   6 C :   -0.401619
   7 O :   -0.095496
   8 H :    0.198321
   9 H :    0.106328
  10 H :    0.094876
  11 H :    0.097765

  Mayer bond orders larger than 0.1
B(  6-C ,  7-O ) :   0.9979 B(  6-C ,  9-H ) :   0.9689 B(  6-C , 10-H ) :   0.9705
B(  6-C , 11-H ) :   0.9900 B(  7-O ,  8-H ) :   0.8905

Dispersion correction           -0.000221387
FINAL SINGLE POINT ENERGY      -115.731206058285

DIPOLE MOMENT
-------------
                                X             Y             Z
Electronic contribution:     -0.67085       0.20615       1.64482
Nuclear contribution   :      0.40838      -0.49481      -2.20431
                        -----------------------------------------
Total Dipole Moment    :     -0.26247      -0.28866      -0.55949
                        -----------------------------------------
Magnitude (a.u.)       :      0.68209
Magnitude (Debye)      :      1.73372

Rotational constants in cm-1:     4.099018     0.848664     0.814195
Rotational constants in MHz : 122885.454151 25442.301936 24408.955259

                             ****ORCA TERMINATED NORMALLY****
TOTAL RUN TIME: 0 days 0 hours 0 minutes 49 seconds 68 msec
