                         Program Version 4.1.2  - RELEASE  -
|  1> #Run DFT-D3 single point of the dimer
|  2> ! wB97X-D3 def2-TZVP TIGHTSCF CHELPG PMODEL PAL8
|  3>
|  4> %base "20-17_DFT_AB"
|  5>
|  6> %scf
|  7> MaxIter 1000
|  8> end
|  9>
| 10> * xyz 0 1
| 11>   C                      -3.541612            8.218738             -6.097579
| 12>   O                      -2.500026            7.841059             -5.165467
| 13>   H                      -2.808424            8.091062             -4.276652
| 14>   H                      -4.504519            8.175344             -5.636522
| 15>   H                      -3.270904            9.255707             -6.480989
| 16>   H                      -3.586497            7.616042             -6.948879
| 17>   C                      0.829014             9.682152             -8.392368
| 18>   O                      0.042463             9.828848             -7.232744
| 19>   H                      -0.519026            9.064280             -7.065889
| 20>   H                      0.225105             9.659612             -9.356101
| 21>   H                      1.633908             10.448807            -8.471243
| 22>   H                      1.253393             8.698865             -8.328509
| 23> *
| 24>
| 25> #Run DFT-D3 single point of the molecule with dimer basis set
| 26> $new_job
| 27> %base "20-17_DFT_A"
| 28> ! wB97X-D3 def2-TZVP TIGHTSCF CHELPG PMODEL
| 29>
| 30> %scf
| 31> MaxIter 1000
| 32> end
| 33>
| 34> * xyz 0 1
| 35>   C                      -3.541612            8.218738             -6.097579
| 36>   O                      -2.500026            7.841059             -5.165467
| 37>   H                      -2.808424            8.091062             -4.276652
| 38>   H                      -4.504519            8.175344             -5.636522
| 39>   H                      -3.270904            9.255707             -6.480989
| 40>   H                      -3.586497            7.616042             -6.948879
| 41>   C                    : 0.829014             9.682152             -8.392368
| 42>   O                    : 0.042463             9.828848             -7.232744
| 43>   H                    : -0.519026            9.064280             -7.065889
| 44>   H                    : 0.225105             9.659612             -9.356101
| 45>   H                    : 1.633908             10.448807            -8.471243
| 46>   H                    : 1.253393             8.698865             -8.328509
| 47> *
| 48>
| 49> #Run DFT-D3 single point of the particle with dimer basis set
| 50> $new_job
| 51> %base "20-17_DFT_B"
| 52> ! wB97X-D3 def2-TZVP TIGHTSCF CHELPG PMODEL
| 53>
| 54> %scf
| 55> MaxIter 1000
| 56> end
| 57>
| 58> * xyz 0 1
| 59>   C                    : -3.541612            8.218738             -6.097579
| 60>   O                    : -2.500026            7.841059             -5.165467
| 61>   H                    : -2.808424            8.091062             -4.276652
| 62>   H                    : -4.504519            8.175344             -5.636522
| 63>   H                    : -3.270904            9.255707             -6.480989
| 64>   H                    : -3.586497            7.616042             -6.948879
| 65>   C                      0.829014             9.682152             -8.392368
| 66>   O                      0.042463             9.828848             -7.232744
| 67>   H                      -0.519026            9.064280             -7.065889
| 68>   H                      0.225105             9.659612             -9.356101
| 69>   H                      1.633908             10.448807            -8.471243
| 70>   H                      1.253393             8.698865             -8.328509
| 71> *
| 72>
| 73>                          ****END OF INPUT****
 Total Charge           Charge          ....    0
 Multiplicity           Mult            ....    1
 Number of Electrons    NEL             ....   36
Dispersion correction           -0.001300837
FINAL SINGLE POINT ENERGY      -231.465773565245
Dispersion correction           -0.000249729
FINAL SINGLE POINT ENERGY      -115.730795393197

CARTESIAN COORDINATES (ANGSTROEM)
---------------------------------
  C     -3.541612    8.218738   -6.097579
  O     -2.500026    7.841059   -5.165467
  H     -2.808424    8.091062   -4.276652
  H     -4.504519    8.175344   -5.636522
  H     -3.270904    9.255707   -6.480989
  H     -3.586497    7.616042   -6.948879
  C      0.829014    9.682152   -8.392368
  O      0.042463    9.828848   -7.232744
  H     -0.519026    9.064280   -7.065889
  H      0.225105    9.659612   -9.356101
  H      1.633908   10.448807   -8.471243
  H      1.253393    8.698865   -8.328509

 Multiplicity           Mult            ....    1
 Number of Electrons    NEL             ....   18
 Basis Dimension        Dim             ....  172

ORBITAL ENERGIES
----------------

  NO   OCC          E(Eh)            E(eV)
   0   2.0000     -19.228418      -523.2319
   1   2.0000     -10.318394      -280.7778
   2   2.0000      -1.134838       -30.8805
   3   2.0000      -0.793585       -21.5945
   4   2.0000      -0.613302       -16.6888
   5   2.0000      -0.537346       -14.6219
   6   2.0000      -0.530743       -14.4422
   7   2.0000      -0.428295       -11.6545
   8   2.0000      -0.368994       -10.0408
   9   0.0000       0.075579         2.0566
  10   0.0000       0.126100         3.4313
  11   0.0000       0.151605         4.1254
  12   0.0000       0.163504         4.4492
  13   0.0000       0.194324         5.2878

MULLIKEN ATOMIC CHARGES
-----------------------
   0 C :    0.000114
   1 O :    0.000011
   2 H :   -0.000006
   3 H :   -0.000188
   4 H :   -0.002719
   5 H :    0.000028
   6 C :   -0.154014
   7 O :   -0.483036
   8 H :    0.320088
   9 H :    0.091699
  10 H :    0.123099
  11 H :    0.104925
Sum of atomic charges:    0.0000000

LOEWDIN ATOMIC CHARGES
----------------------
   0 C :   -0.001955
   1 O :   -0.000532
   2 H :   -0.000031
   3 H :   -0.000044
   4 H :   -0.001534
   5 H :   -0.000106
   6 C :   -0.390267
   7 O :   -0.077833
   8 H :    0.170338
   9 H :    0.098688
  10 H :    0.112570
  11 H :    0.090706

  Mayer bond orders larger than 0.1
B(  6-C ,  7-O ) :   0.9949 B(  6-C ,  9-H ) :   0.9679 B(  6-C , 10-H ) :   0.9683
B(  6-C , 11-H ) :   0.9905 B(  7-O ,  8-H ) :   0.8924

Dispersion correction           -0.000246467
FINAL SINGLE POINT ENERGY      -115.732103193081

DIPOLE MOMENT
-------------
                                X             Y             Z
Electronic contribution:     -0.89631       0.40300       1.53693
Nuclear contribution   :      0.87565      -0.97627      -1.87927
                        -----------------------------------------
Total Dipole Moment    :     -0.02066      -0.57327      -0.34234
                        -----------------------------------------
Magnitude (a.u.)       :      0.66802
Magnitude (Debye)      :      1.69798

Rotational constants in cm-1:     4.273617     0.830471     0.795947
Rotational constants in MHz : 128119.822414 24896.884942 23861.891387

                             ****ORCA TERMINATED NORMALLY****
TOTAL RUN TIME: 0 days 0 hours 0 minutes 56 seconds 379 msec
