                         Program Version 4.1.2  - RELEASE  -
|  1> #Run DFT-D3 single point of the dimer
|  2> ! wB97X-D3 def2-TZVP TIGHTSCF CHELPG PMODEL PAL8
|  3>
|  4> %base "21-159_DFT_AB"
|  5>
|  6> %scf
|  7> MaxIter 1000
|  8> end
|  9>
| 10> * xyz 0 1
| 11>   C                      2.873291             -2.529165            -7.643603
| 12>   O                      3.707500             -3.600925            -7.742358
| 13>   H                      4.663623             -3.302338            -7.745049
| 14>   H                      1.923567             -2.610872            -8.190210
| 15>   H                      2.564570             -2.405424            -6.552309
| 16>   H                      3.394196             -1.553683            -7.938926
| 17>   C                      6.116449             -2.829464            -5.620753
| 18>   O                      6.255045             -2.353373            -6.959713
| 19>   H                      7.130615             -2.363186            -7.284429
| 20>   H                      7.038531             -3.072071            -5.237766
| 21>   H                      5.737454             -2.054060            -4.932750
| 22>   H                      5.437193             -3.696490            -5.586526
| 23> *
| 24>
| 25> #Run DFT-D3 single point of the molecule with dimer basis set
| 26> $new_job
| 27> %base "21-159_DFT_A"
| 28> ! wB97X-D3 def2-TZVP TIGHTSCF CHELPG PMODEL
| 29>
| 30> %scf
| 31> MaxIter 1000
| 32> end
| 33>
| 34> * xyz 0 1
| 35>   C                      2.873291             -2.529165            -7.643603
| 36>   O                      3.707500             -3.600925            -7.742358
| 37>   H                      4.663623             -3.302338            -7.745049
| 38>   H                      1.923567             -2.610872            -8.190210
| 39>   H                      2.564570             -2.405424            -6.552309
| 40>   H                      3.394196             -1.553683            -7.938926
| 41>   C                    : 6.116449             -2.829464            -5.620753
| 42>   O                    : 6.255045             -2.353373            -6.959713
| 43>   H                    : 7.130615             -2.363186            -7.284429
| 44>   H                    : 7.038531             -3.072071            -5.237766
| 45>   H                    : 5.737454             -2.054060            -4.932750
| 46>   H                    : 5.437193             -3.696490            -5.586526
| 47> *
| 48>
| 49> #Run DFT-D3 single point of the particle with dimer basis set
| 50> $new_job
| 51> %base "21-159_DFT_B"
| 52> ! wB97X-D3 def2-TZVP TIGHTSCF CHELPG PMODEL
| 53>
| 54> %scf
| 55> MaxIter 1000
| 56> end
| 57>
| 58> * xyz 0 1
| 59>   C                    : 2.873291             -2.529165            -7.643603
| 60>   O                    : 3.707500             -3.600925            -7.742358
| 61>   H                    : 4.663623             -3.302338            -7.745049
| 62>   H                    : 1.923567             -2.610872            -8.190210
| 63>   H                    : 2.564570             -2.405424            -6.552309
| 64>   H                    : 3.394196             -1.553683            -7.938926
| 65>   C                      6.116449             -2.829464            -5.620753
| 66>   O                      6.255045             -2.353373            -6.959713
| 67>   H                      7.130615             -2.363186            -7.284429
| 68>   H                      7.038531             -3.072071            -5.237766
| 69>   H                      5.737454             -2.054060            -4.932750
| 70>   H                      5.437193             -3.696490            -5.586526
| 71> *
| 72>
| 73>                          ****END OF INPUT****
 Total Charge           Charge          ....    0
 Multiplicity           Mult            ....    1
 Number of Electrons    NEL             ....   36
Dispersion correction           -0.002157336
FINAL SINGLE POINT ENERGY      -231.470340156254
Dispersion correction           -0.000247460
FINAL SINGLE POINT ENERGY      -115.729170389246

CARTESIAN COORDINATES (ANGSTROEM)
---------------------------------
  C      2.873291   -2.529165   -7.643603
  O      3.707500   -3.600925   -7.742358
  H      4.663623   -3.302338   -7.745049
  H      1.923567   -2.610872   -8.190210
  H      2.564570   -2.405424   -6.552309
  H      3.394196   -1.553683   -7.938926
  C      6.116449   -2.829464   -5.620753
  O      6.255045   -2.353373   -6.959713
  H      7.130615   -2.363186   -7.284429
  H      7.038531   -3.072071   -5.237766
  H      5.737454   -2.054060   -4.932750
  H      5.437193   -3.696490   -5.586526

 Multiplicity           Mult            ....    1
 Number of Electrons    NEL             ....   18
 Basis Dimension        Dim             ....  172

ORBITAL ENERGIES
----------------

  NO   OCC          E(Eh)            E(eV)
   0   2.0000     -19.224375      -523.1218
   1   2.0000     -10.310365      -280.5593
   2   2.0000      -1.132676       -30.8217
   3   2.0000      -0.805479       -21.9182
   4   2.0000      -0.618455       -16.8290
   5   2.0000      -0.537831       -14.6351
   6   2.0000      -0.530936       -14.4475
   7   2.0000      -0.429083       -11.6760
   8   2.0000      -0.373906       -10.1745
   9   0.0000       0.098763         2.6875
  10   0.0000       0.128962         3.5092
  11   0.0000       0.151876         4.1328
  12   0.0000       0.181413         4.9365
  13   0.0000       0.199080         5.4173

MULLIKEN ATOMIC CHARGES
-----------------------
   0 C :    0.006564
   1 O :   -0.001222
   2 H :   -0.007609
   3 H :    0.000002
   4 H :   -0.000543
   5 H :   -0.004270
   6 C :   -0.155611
   7 O :   -0.484451
   8 H :    0.312449
   9 H :    0.112691
  10 H :    0.110842
  11 H :    0.111159
Sum of atomic charges:   -0.0000000

LOEWDIN ATOMIC CHARGES
----------------------
   0 C :   -0.003781
   1 O :   -0.004161
   2 H :   -0.034548
   3 H :   -0.000022
   4 H :   -0.000225
   5 H :   -0.001995
   6 C :   -0.354005
   7 O :   -0.044127
   8 H :    0.148375
   9 H :    0.083019
  10 H :    0.104997
  11 H :    0.106474

  Mayer bond orders larger than 0.1
B(  6-C ,  7-O ) :   0.9941 B(  6-C ,  9-H ) :   0.9826 B(  6-C , 10-H ) :   0.9734
B(  6-C , 11-H ) :   0.9793 B(  7-O ,  8-H ) :   0.9016

Dispersion correction           -0.000254529
FINAL SINGLE POINT ENERGY      -115.730930589297

DIPOLE MOMENT
-------------
                                X             Y             Z
Electronic contribution:      0.11682       0.57034      -1.67275
Nuclear contribution   :      0.46098      -0.78033       2.04125
                        -----------------------------------------
Total Dipole Moment    :      0.57780      -0.20999       0.36851
                        -----------------------------------------
Magnitude (a.u.)       :      0.71676
Magnitude (Debye)      :      1.82186

Rotational constants in cm-1:     4.547155     0.809760     0.790927
Rotational constants in MHz : 136320.291997 24275.999195 23711.380148

                             ****ORCA TERMINATED NORMALLY****
TOTAL RUN TIME: 0 days 0 hours 1 minutes 8 seconds 422 msec
