                         Program Version 4.1.2  - RELEASE  -
|  1> #Run DFT-D3 single point of the dimer
|  2> ! wB97X-D3 def2-TZVP TIGHTSCF CHELPG PMODEL PAL8
|  3>
|  4> %base "16-110_DFT_AB"
|  5>
|  6> %scf
|  7> MaxIter 1000
|  8> end
|  9>
| 10> * xyz 0 1
| 11>   C                      -6.170275            7.304904             2.945659
| 12>   O                      -6.004982            5.919241             2.961373
| 13>   H                      -5.177506            5.678358             2.626186
| 14>   H                      -5.361011            7.815695             3.442207
| 15>   H                      -6.204885            7.631160             1.917815
| 16>   H                      -7.083981            7.553979             3.478656
| 17>   C                      -4.622937            6.512677             6.094771
| 18>   O                      -5.730739            5.646685             5.979663
| 19>   H                      -5.703783            5.372196             5.033767
| 20>   H                      -4.238808            6.649470             7.055892
| 21>   H                      -3.794243            6.162017             5.517498
| 22>   H                      -4.796104            7.446366             5.644331
| 23> *
| 24>
| 25> #Run DFT-D3 single point of the molecule with dimer basis set
| 26> $new_job
| 27> %base "16-110_DFT_A"
| 28> ! wB97X-D3 def2-TZVP TIGHTSCF CHELPG PMODEL
| 29>
| 30> %scf
| 31> MaxIter 1000
| 32> end
| 33>
| 34> * xyz 0 1
| 35>   C                      -6.170275            7.304904             2.945659
| 36>   O                      -6.004982            5.919241             2.961373
| 37>   H                      -5.177506            5.678358             2.626186
| 38>   H                      -5.361011            7.815695             3.442207
| 39>   H                      -6.204885            7.631160             1.917815
| 40>   H                      -7.083981            7.553979             3.478656
| 41>   C                    : -4.622937            6.512677             6.094771
| 42>   O                    : -5.730739            5.646685             5.979663
| 43>   H                    : -5.703783            5.372196             5.033767
| 44>   H                    : -4.238808            6.649470             7.055892
| 45>   H                    : -3.794243            6.162017             5.517498
| 46>   H                    : -4.796104            7.446366             5.644331
| 47> *
| 48>
| 49> #Run DFT-D3 single point of the particle with dimer basis set
| 50> $new_job
| 51> %base "16-110_DFT_B"
| 52> ! wB97X-D3 def2-TZVP TIGHTSCF CHELPG PMODEL
| 53>
| 54> %scf
| 55> MaxIter 1000
| 56> end
| 57>
| 58> * xyz 0 1
| 59>   C                    : -6.170275            7.304904             2.945659
| 60>   O                    : -6.004982            5.919241             2.961373
| 61>   H                    : -5.177506            5.678358             2.626186
| 62>   H                    : -5.361011            7.815695             3.442207
| 63>   H                    : -6.204885            7.631160             1.917815
| 64>   H                    : -7.083981            7.553979             3.478656
| 65>   C                      -4.622937            6.512677             6.094771
| 66>   O                      -5.730739            5.646685             5.979663
| 67>   H                      -5.703783            5.372196             5.033767
| 68>   H                      -4.238808            6.649470             7.055892
| 69>   H                      -3.794243            6.162017             5.517498
| 70>   H                      -4.796104            7.446366             5.644331
| 71> *
| 72>
| 73>                          ****END OF INPUT****
 Total Charge           Charge          ....    0
 Multiplicity           Mult            ....    1
 Number of Electrons    NEL             ....   36
Dispersion correction           -0.002376552
FINAL SINGLE POINT ENERGY      -231.471371552373
Dispersion correction           -0.000219311
FINAL SINGLE POINT ENERGY      -115.735600828044

CARTESIAN COORDINATES (ANGSTROEM)
---------------------------------
  C     -6.170275    7.304904    2.945659
  O     -6.004982    5.919241    2.961373
  H     -5.177506    5.678358    2.626186
  H     -5.361011    7.815695    3.442207
  H     -6.204885    7.631160    1.917815
  H     -7.083981    7.553979    3.478656
  C     -4.622937    6.512677    6.094771
  O     -5.730739    5.646685    5.979663
  H     -5.703783    5.372196    5.033767
  H     -4.238808    6.649470    7.055892
  H     -3.794243    6.162017    5.517498
  H     -4.796104    7.446366    5.644331

 Multiplicity           Mult            ....    1
 Number of Electrons    NEL             ....   18
 Basis Dimension        Dim             ....  172

ORBITAL ENERGIES
----------------

  NO   OCC          E(Eh)            E(eV)
   0   2.0000     -19.235162      -523.4154
   1   2.0000     -10.299599      -280.2663
   2   2.0000      -1.136098       -30.9148
   3   2.0000      -0.803649       -21.8684
   4   2.0000      -0.613289       -16.6885
   5   2.0000      -0.545801       -14.8520
   6   2.0000      -0.531739       -14.4694
   7   2.0000      -0.441256       -12.0072
   8   2.0000      -0.373135       -10.1535
   9   0.0000       0.070631         1.9220
  10   0.0000       0.133137         3.6229
  11   0.0000       0.150488         4.0950
  12   0.0000       0.165473         4.5028
  13   0.0000       0.204818         5.5734

MULLIKEN ATOMIC CHARGES
-----------------------
   0 C :   -0.003802
   1 O :   -0.001830
   2 H :   -0.000477
   3 H :   -0.001796
   4 H :   -0.000085
   5 H :    0.000300
   6 C :   -0.182792
   7 O :   -0.463644
   8 H :    0.318017
   9 H :    0.127568
  10 H :    0.102081
  11 H :    0.106459
Sum of atomic charges:   -0.0000000

LOEWDIN ATOMIC CHARGES
----------------------
   0 C :   -0.009218
   1 O :   -0.011250
   2 H :   -0.001556
   3 H :   -0.004450
   4 H :   -0.000132
   5 H :   -0.000919
   6 C :   -0.378082
   7 O :   -0.070915
   8 H :    0.193641
   9 H :    0.097542
  10 H :    0.094438
  11 H :    0.090900

  Mayer bond orders larger than 0.1
B(  6-C ,  7-O ) :   0.9983 B(  6-C ,  9-H ) :   0.9749 B(  6-C , 10-H ) :   0.9897
B(  6-C , 11-H ) :   0.9783 B(  7-O ,  8-H ) :   0.9016

Dispersion correction           -0.000216317
FINAL SINGLE POINT ENERGY      -115.729062964332

DIPOLE MOMENT
-------------
                                X             Y             Z
Electronic contribution:     -1.55729      -1.10152       0.17754
Nuclear contribution   :      2.03381       1.27147      -0.70941
                        -----------------------------------------
Total Dipole Moment    :      0.47651       0.16995      -0.53186
                        -----------------------------------------
Magnitude (a.u.)       :      0.73405
Magnitude (Debye)      :      1.86580

Rotational constants in cm-1:     4.573952     0.841337     0.804160
Rotational constants in MHz : 137123.627498 25222.660368 24108.114534

                             ****ORCA TERMINATED NORMALLY****
TOTAL RUN TIME: 0 days 0 hours 1 minutes 7 seconds 298 msec
