                         Program Version 4.1.2  - RELEASE  -
|  1> #Run DFT-D3 single point of the dimer
|  2> ! wB97X-D3 def2-TZVP TIGHTSCF CHELPG PMODEL PAL8
|  3>
|  4> %base "12-39_DFT_AB"
|  5>
|  6> %scf
|  7> MaxIter 1000
|  8> end
|  9>
| 10> * xyz 0 1
| 11>   C                      -8.068520            9.350120             1.189583
| 12>   O                      -8.752625            10.376869            1.873308
| 13>   H                      -8.135761            11.181691            1.909176
| 14>   H                      -6.977706            9.408543             1.361703
| 15>   H                      -8.315950            8.386054             1.585649
| 16>   H                      -8.351789            9.399995             0.160666
| 17>   C                      -4.684964            9.543818             5.077523
| 18>   O                      -4.916414            8.767088             6.234499
| 19>   H                      -5.675565            8.157495             5.938927
| 20>   H                      -3.998904            10.359055            5.346054
| 21>   H                      -4.087212            8.875435             4.456311
| 22>   H                      -5.571175            9.865341             4.530724
| 23> *
| 24>
| 25> #Run DFT-D3 single point of the molecule with dimer basis set
| 26> $new_job
| 27> %base "12-39_DFT_A"
| 28> ! wB97X-D3 def2-TZVP TIGHTSCF CHELPG PMODEL
| 29>
| 30> %scf
| 31> MaxIter 1000
| 32> end
| 33>
| 34> * xyz 0 1
| 35>   C                      -8.068520            9.350120             1.189583
| 36>   O                      -8.752625            10.376869            1.873308
| 37>   H                      -8.135761            11.181691            1.909176
| 38>   H                      -6.977706            9.408543             1.361703
| 39>   H                      -8.315950            8.386054             1.585649
| 40>   H                      -8.351789            9.399995             0.160666
| 41>   C                    : -4.684964            9.543818             5.077523
| 42>   O                    : -4.916414            8.767088             6.234499
| 43>   H                    : -5.675565            8.157495             5.938927
| 44>   H                    : -3.998904            10.359055            5.346054
| 45>   H                    : -4.087212            8.875435             4.456311
| 46>   H                    : -5.571175            9.865341             4.530724
| 47> *
| 48>
| 49> #Run DFT-D3 single point of the particle with dimer basis set
| 50> $new_job
| 51> %base "12-39_DFT_B"
| 52> ! wB97X-D3 def2-TZVP TIGHTSCF CHELPG PMODEL
| 53>
| 54> %scf
| 55> MaxIter 1000
| 56> end
| 57>
| 58> * xyz 0 1
| 59>   C                    : -8.068520            9.350120             1.189583
| 60>   O                    : -8.752625            10.376869            1.873308
| 61>   H                    : -8.135761            11.181691            1.909176
| 62>   H                    : -6.977706            9.408543             1.361703
| 63>   H                    : -8.315950            8.386054             1.585649
| 64>   H                    : -8.351789            9.399995             0.160666
| 65>   C                      -4.684964            9.543818             5.077523
| 66>   O                      -4.916414            8.767088             6.234499
| 67>   H                      -5.675565            8.157495             5.938927
| 68>   H                      -3.998904            10.359055            5.346054
| 69>   H                      -4.087212            8.875435             4.456311
| 70>   H                      -5.571175            9.865341             4.530724
| 71> *
| 72>
| 73>                          ****END OF INPUT****
 Total Charge           Charge          ....    0
 Multiplicity           Mult            ....    1
 Number of Electrons    NEL             ....   36
Dispersion correction           -0.000802240
FINAL SINGLE POINT ENERGY      -231.460246119010
Dispersion correction           -0.000235555
FINAL SINGLE POINT ENERGY      -115.731197490574

CARTESIAN COORDINATES (ANGSTROEM)
---------------------------------
  C     -8.068520    9.350120    1.189583
  O     -8.752625   10.376869    1.873308
  H     -8.135761   11.181691    1.909176
  H     -6.977706    9.408543    1.361703
  H     -8.315950    8.386054    1.585649
  H     -8.351789    9.399995    0.160666
  C     -4.684964    9.543818    5.077523
  O     -4.916414    8.767088    6.234499
  H     -5.675565    8.157495    5.938927
  H     -3.998904   10.359055    5.346054
  H     -4.087212    8.875435    4.456311
  H     -5.571175    9.865341    4.530724

 Multiplicity           Mult            ....    1
 Number of Electrons    NEL             ....   18
 Basis Dimension        Dim             ....  172

ORBITAL ENERGIES
----------------

  NO   OCC          E(Eh)            E(eV)
   0   2.0000     -19.233410      -523.3677
   1   2.0000     -10.311302      -280.5848
   2   2.0000      -1.129481       -30.7347
   3   2.0000      -0.786697       -21.4071
   4   2.0000      -0.605254       -16.4698
   5   2.0000      -0.541442       -14.7334
   6   2.0000      -0.522501       -14.2180
   7   2.0000      -0.441203       -12.0058
   8   2.0000      -0.366088        -9.9618
   9   0.0000       0.077515         2.1093
  10   0.0000       0.109764         2.9868
  11   0.0000       0.150052         4.0831
  12   0.0000       0.161418         4.3924
  13   0.0000       0.184818         5.0292

MULLIKEN ATOMIC CHARGES
-----------------------
   0 C :    0.000159
   1 O :   -0.000009
   2 H :   -0.000062
   3 H :   -0.000282
   4 H :   -0.000020
   5 H :   -0.000007
   6 C :   -0.175014
   7 O :   -0.466958
   8 H :    0.313412
   9 H :    0.117894
  10 H :    0.103502
  11 H :    0.107384
Sum of atomic charges:   -0.0000000

LOEWDIN ATOMIC CHARGES
----------------------
   0 C :   -0.000187
   1 O :   -0.000013
   2 H :   -0.000073
   3 H :   -0.000210
   4 H :   -0.000007
   5 H :   -0.000002
   6 C :   -0.397319
   7 O :   -0.103204
   8 H :    0.202392
   9 H :    0.109473
  10 H :    0.095858
  11 H :    0.093292

  Mayer bond orders larger than 0.1
B(  6-C ,  7-O ) :   0.9961 B(  6-C ,  9-H ) :   0.9718 B(  6-C , 10-H ) :   0.9894
B(  6-C , 11-H ) :   0.9692 B(  7-O ,  8-H ) :   0.8963

Dispersion correction           -0.000217321
FINAL SINGLE POINT ENERGY      -115.728699928155

DIPOLE MOMENT
-------------
                                X             Y             Z
Electronic contribution:     -0.30569      -0.76411       1.56958
Nuclear contribution   :     -0.05408       0.69727      -2.19056
                        -----------------------------------------
Total Dipole Moment    :     -0.35977      -0.06684      -0.62098
                        -----------------------------------------
Magnitude (a.u.)       :      0.72077
Magnitude (Debye)      :      1.83206

Rotational constants in cm-1:     4.090516     0.850012     0.806842
Rotational constants in MHz : 122630.592961 25482.716776 24188.522484

                             ****ORCA TERMINATED NORMALLY****
TOTAL RUN TIME: 0 days 0 hours 1 minutes 12 seconds 705 msec
