                         Program Version 4.1.2  - RELEASE  -
|  1> #Run DFT-D3 single point of the dimer
|  2> ! wB97X-D3 def2-TZVP TIGHTSCF CHELPG PMODEL PAL8
|  3>
|  4> %base "20-48_DFT_AB"
|  5>
|  6> %scf
|  7> MaxIter 1000
|  8> end
|  9>
| 10> * xyz 0 1
| 11>   C                      10.369788            -1.022027            1.137112
| 12>   O                      9.385676             -0.662923            2.037067
| 13>   H                      8.915815             -1.406507            2.396030
| 14>   H                      9.951602             -1.529467            0.290434
| 15>   H                      10.979370            -0.132618            0.842871
| 16>   H                      10.919377            -1.856796            1.581003
| 17>   C                      6.766022             -3.917719            2.381730
| 18>   O                      7.772565             -3.097563            1.827956
| 19>   H                      7.951166             -3.382504            0.942799
| 20>   H                      6.964779             -4.974818            2.252323
| 21>   H                      6.662954             -3.634798            3.443312
| 22>   H                      5.831206             -3.625263            1.912155
| 23> *
| 24>
| 25> #Run DFT-D3 single point of the molecule with dimer basis set
| 26> $new_job
| 27> %base "20-48_DFT_A"
| 28> ! wB97X-D3 def2-TZVP TIGHTSCF CHELPG PMODEL
| 29>
| 30> %scf
| 31> MaxIter 1000
| 32> end
| 33>
| 34> * xyz 0 1
| 35>   C                      10.369788            -1.022027            1.137112
| 36>   O                      9.385676             -0.662923            2.037067
| 37>   H                      8.915815             -1.406507            2.396030
| 38>   H                      9.951602             -1.529467            0.290434
| 39>   H                      10.979370            -0.132618            0.842871
| 40>   H                      10.919377            -1.856796            1.581003
| 41>   C                    : 6.766022             -3.917719            2.381730
| 42>   O                    : 7.772565             -3.097563            1.827956
| 43>   H                    : 7.951166             -3.382504            0.942799
| 44>   H                    : 6.964779             -4.974818            2.252323
| 45>   H                    : 6.662954             -3.634798            3.443312
| 46>   H                    : 5.831206             -3.625263            1.912155
| 47> *
| 48>
| 49> #Run DFT-D3 single point of the particle with dimer basis set
| 50> $new_job
| 51> %base "20-48_DFT_B"
| 52> ! wB97X-D3 def2-TZVP TIGHTSCF CHELPG PMODEL
| 53>
| 54> %scf
| 55> MaxIter 1000
| 56> end
| 57>
| 58> * xyz 0 1
| 59>   C                    : 10.369788            -1.022027            1.137112
| 60>   O                    : 9.385676             -0.662923            2.037067
| 61>   H                    : 8.915815             -1.406507            2.396030
| 62>   H                    : 9.951602             -1.529467            0.290434
| 63>   H                    : 10.979370            -0.132618            0.842871
| 64>   H                    : 10.919377            -1.856796            1.581003
| 65>   C                      6.766022             -3.917719            2.381730
| 66>   O                      7.772565             -3.097563            1.827956
| 67>   H                      7.951166             -3.382504            0.942799
| 68>   H                      6.964779             -4.974818            2.252323
| 69>   H                      6.662954             -3.634798            3.443312
| 70>   H                      5.831206             -3.625263            1.912155
| 71> *
| 72>
| 73>                          ****END OF INPUT****
 Total Charge           Charge          ....    0
 Multiplicity           Mult            ....    1
 Number of Electrons    NEL             ....   36
Dispersion correction           -0.001715071
FINAL SINGLE POINT ENERGY      -231.472750369397
Dispersion correction           -0.000216196
FINAL SINGLE POINT ENERGY      -115.730204450948

CARTESIAN COORDINATES (ANGSTROEM)
---------------------------------
  C     10.369788   -1.022027    1.137112
  O      9.385676   -0.662923    2.037067
  H      8.915815   -1.406507    2.396030
  H      9.951602   -1.529467    0.290434
  H     10.979370   -0.132618    0.842871
  H     10.919377   -1.856796    1.581003
  C      6.766022   -3.917719    2.381730
  O      7.772565   -3.097563    1.827956
  H      7.951166   -3.382504    0.942799
  H      6.964779   -4.974818    2.252323
  H      6.662954   -3.634798    3.443312
  H      5.831206   -3.625263    1.912155

 Multiplicity           Mult            ....    1
 Number of Electrons    NEL             ....   18
 Basis Dimension        Dim             ....  172

ORBITAL ENERGIES
----------------

  NO   OCC          E(Eh)            E(eV)
   0   2.0000     -19.226223      -523.1721
   1   2.0000     -10.311895      -280.6009
   2   2.0000      -1.138147       -30.9706
   3   2.0000      -0.796656       -21.6781
   4   2.0000      -0.611599       -16.6425
   5   2.0000      -0.547198       -14.8900
   6   2.0000      -0.526502       -14.3268
   7   2.0000      -0.433387       -11.7931
   8   2.0000      -0.372077       -10.1247
   9   0.0000       0.095702         2.6042
  10   0.0000       0.128516         3.4971
  11   0.0000       0.158359         4.3092
  12   0.0000       0.182514         4.9665
  13   0.0000       0.204120         5.5544

MULLIKEN ATOMIC CHARGES
-----------------------
   0 C :    0.002823
   1 O :    0.001296
   2 H :   -0.011144
   3 H :   -0.001927
   4 H :   -0.000191
   5 H :   -0.002054
   6 C :   -0.156997
   7 O :   -0.469035
   8 H :    0.310921
   9 H :    0.107118
  10 H :    0.119988
  11 H :    0.099201
Sum of atomic charges:   -0.0000000

LOEWDIN ATOMIC CHARGES
----------------------
   0 C :   -0.005372
   1 O :   -0.004962
   2 H :   -0.028035
   3 H :   -0.001154
   4 H :   -0.000068
   5 H :   -0.000842
   6 C :   -0.378864
   7 O :   -0.041741
   8 H :    0.159967
   9 H :    0.093847
  10 H :    0.112905
  11 H :    0.094318

  Mayer bond orders larger than 0.1
B(  6-C ,  7-O ) :   0.9878 B(  6-C ,  9-H ) :   0.9713 B(  6-C , 10-H ) :   0.9759
B(  6-C , 11-H ) :   0.9813 B(  7-O ,  8-H ) :   0.8990

Dispersion correction           -0.000226058
FINAL SINGLE POINT ENERGY      -115.735967155239

DIPOLE MOMENT
-------------
                                X             Y             Z
Electronic contribution:      1.29305       0.96987      -0.57419
Nuclear contribution   :     -1.59497      -1.48687       0.23329
                        -----------------------------------------
Total Dipole Moment    :     -0.30192      -0.51700      -0.34090
                        -----------------------------------------
Magnitude (a.u.)       :      0.68896
Magnitude (Debye)      :      1.75118

Rotational constants in cm-1:     4.272121     0.842051     0.810777
Rotational constants in MHz : 128074.958571 25244.047605 24306.484622

                             ****ORCA TERMINATED NORMALLY****
TOTAL RUN TIME: 0 days 0 hours 1 minutes 8 seconds 380 msec
