                         Program Version 4.1.2  - RELEASE  -
|  1> #Run DFT-D3 single point of the dimer
|  2> ! wB97X-D3 def2-TZVP TIGHTSCF CHELPG PMODEL PAL8
|  3>
|  4> %base "4-20_DFT_AB"
|  5>
|  6> %scf
|  7> MaxIter 1000
|  8> end
|  9>
| 10> * xyz 0 1
| 11>   C                      1.278964             -10.654822           2.337766
| 12>   O                      1.975469             -10.763566           3.561013
| 13>   H                      2.763265             -11.256909           3.348373
| 14>   H                      0.900062             -11.560758           2.008515
| 15>   H                      0.551293             -9.905268            2.334664
| 16>   H                      2.032881             -10.389157           1.510708
| 17>   C                      2.405074             -7.507225            -1.165628
| 18>   O                      3.752418             -7.256396            -1.638356
| 19>   H                      3.717271             -6.375185            -2.022879
| 20>   H                      2.346605             -6.997940            -0.188107
| 21>   H                      1.723621             -7.057570            -1.833022
| 22>   H                      2.136773             -8.542108            -1.082817
| 23> *
| 24>
| 25> #Run DFT-D3 single point of the molecule with dimer basis set
| 26> $new_job
| 27> %base "4-20_DFT_A"
| 28> ! wB97X-D3 def2-TZVP TIGHTSCF CHELPG PMODEL
| 29>
| 30> %scf
| 31> MaxIter 1000
| 32> end
| 33>
| 34> * xyz 0 1
| 35>   C                      1.278964             -10.654822           2.337766
| 36>   O                      1.975469             -10.763566           3.561013
| 37>   H                      2.763265             -11.256909           3.348373
| 38>   H                      0.900062             -11.560758           2.008515
| 39>   H                      0.551293             -9.905268            2.334664
| 40>   H                      2.032881             -10.389157           1.510708
| 41>   C                    : 2.405074             -7.507225            -1.165628
| 42>   O                    : 3.752418             -7.256396            -1.638356
| 43>   H                    : 3.717271             -6.375185            -2.022879
| 44>   H                    : 2.346605             -6.997940            -0.188107
| 45>   H                    : 1.723621             -7.057570            -1.833022
| 46>   H                    : 2.136773             -8.542108            -1.082817
| 47> *
| 48>
| 49> #Run DFT-D3 single point of the particle with dimer basis set
| 50> $new_job
| 51> %base "4-20_DFT_B"
| 52> ! wB97X-D3 def2-TZVP TIGHTSCF CHELPG PMODEL
| 53>
| 54> %scf
| 55> MaxIter 1000
| 56> end
| 57>
| 58> * xyz 0 1
| 59>   C                    : 1.278964             -10.654822           2.337766
| 60>   O                    : 1.975469             -10.763566           3.561013
| 61>   H                    : 2.763265             -11.256909           3.348373
| 62>   H                    : 0.900062             -11.560758           2.008515
| 63>   H                    : 0.551293             -9.905268            2.334664
| 64>   H                    : 2.032881             -10.389157           1.510708
| 65>   C                      2.405074             -7.507225            -1.165628
| 66>   O                      3.752418             -7.256396            -1.638356
| 67>   H                      3.717271             -6.375185            -2.022879
| 68>   H                      2.346605             -6.997940            -0.188107
| 69>   H                      1.723621             -7.057570            -1.833022
| 70>   H                      2.136773             -8.542108            -1.082817
| 71> *
| 72>
| 73>                          ****END OF INPUT****
 Total Charge           Charge          ....    0
 Multiplicity           Mult            ....    1
 Number of Electrons    NEL             ....   36
Dispersion correction           -0.000842244
FINAL SINGLE POINT ENERGY      -231.461319661773
Dispersion correction           -0.000217317
FINAL SINGLE POINT ENERGY      -115.729194117263

CARTESIAN COORDINATES (ANGSTROEM)
---------------------------------
  C      1.278964  -10.654822    2.337766
  O      1.975469  -10.763566    3.561013
  H      2.763265  -11.256909    3.348373
  H      0.900062  -11.560758    2.008515
  H      0.551293   -9.905268    2.334664
  H      2.032881  -10.389157    1.510708
  C      2.405074   -7.507225   -1.165628
  O      3.752418   -7.256396   -1.638356
  H      3.717271   -6.375185   -2.022879
  H      2.346605   -6.997940   -0.188107
  H      1.723621   -7.057570   -1.833022
  H      2.136773   -8.542108   -1.082817

 Multiplicity           Mult            ....    1
 Number of Electrons    NEL             ....   18
 Basis Dimension        Dim             ....  172

ORBITAL ENERGIES
----------------

  NO   OCC          E(Eh)            E(eV)
   0   2.0000     -19.227130      -523.1968
   1   2.0000     -10.310404      -280.5604
   2   2.0000      -1.125712       -30.6322
   3   2.0000      -0.798466       -21.7274
   4   2.0000      -0.602653       -16.3990
   5   2.0000      -0.543721       -14.7954
   6   2.0000      -0.528137       -14.3713
   7   2.0000      -0.437319       -11.9001
   8   2.0000      -0.371821       -10.1178
   9   0.0000       0.086025         2.3409
  10   0.0000       0.114636         3.1194
  11   0.0000       0.146170         3.9775
  12   0.0000       0.175475         4.7749
  13   0.0000       0.185337         5.0433

MULLIKEN ATOMIC CHARGES
-----------------------
   0 C :   -0.000069
   1 O :   -0.000002
   2 H :   -0.000001
   3 H :    0.000008
   4 H :   -0.000026
   5 H :    0.000005
   6 C :   -0.172881
   7 O :   -0.481373
   8 H :    0.313052
   9 H :    0.105978
  10 H :    0.109608
  11 H :    0.125700
Sum of atomic charges:    0.0000000

LOEWDIN ATOMIC CHARGES
----------------------
   0 C :   -0.000218
   1 O :   -0.000003
   2 H :   -0.000000
   3 H :   -0.000002
   4 H :   -0.000036
   5 H :   -0.000398
   6 C :   -0.350958
   7 O :   -0.108678
   8 H :    0.168030
   9 H :    0.101672
  10 H :    0.088304
  11 H :    0.102287

  Mayer bond orders larger than 0.1
B(  6-C ,  7-O ) :   0.9891 B(  6-C ,  9-H ) :   0.9831 B(  6-C , 10-H ) :   0.9827
B(  6-C , 11-H ) :   0.9687 B(  7-O ,  8-H ) :   0.9028

Dispersion correction           -0.000225550
FINAL SINGLE POINT ENERGY      -115.731639846152

DIPOLE MOMENT
-------------
                                X             Y             Z
Electronic contribution:      1.66063       0.04671      -0.56609
Nuclear contribution   :     -2.26549       0.39750       0.50171
                        -----------------------------------------
Total Dipole Moment    :     -0.60486       0.44421      -0.06438
                        -----------------------------------------
Magnitude (a.u.)       :      0.75321
Magnitude (Debye)      :      1.91451

Rotational constants in cm-1:     4.330806     0.807038     0.782144
Rotational constants in MHz : 129834.293366 24194.377163 23448.073192

                             ****ORCA TERMINATED NORMALLY****
TOTAL RUN TIME: 0 days 0 hours 1 minutes 28 seconds 529 msec
