                         Program Version 4.1.2  - RELEASE  -
|  1> #Run DFT-D3 single point of the dimer
|  2> ! wB97X-D3 def2-TZVP TIGHTSCF CHELPG PMODEL PAL8
|  3>
|  4> %base "19-92_DFT_AB"
|  5>
|  6> %scf
|  7> MaxIter 1000
|  8> end
|  9>
| 10> * xyz 0 1
| 11>   C                      1.790265             3.458561             8.299905
| 12>   O                      0.760315             4.348827             7.951540
| 13>   H                      0.700689             4.320397             6.985783
| 14>   H                      2.747720             4.048782             8.453165
| 15>   H                      1.540345             2.807398             9.173545
| 16>   H                      2.017215             2.823354             7.489023
| 17>   C                      4.982957             4.001329             5.891778
| 18>   O                      4.613225             3.537500             4.583148
| 19>   H                      5.346133             3.845427             3.967900
| 20>   H                      4.870589             3.154463             6.600303
| 21>   H                      6.029761             4.384582             5.912499
| 22>   H                      4.309728             4.826055             6.124172
| 23> *
| 24>
| 25> #Run DFT-D3 single point of the molecule with dimer basis set
| 26> $new_job
| 27> %base "19-92_DFT_A"
| 28> ! wB97X-D3 def2-TZVP TIGHTSCF CHELPG PMODEL
| 29>
| 30> %scf
| 31> MaxIter 1000
| 32> end
| 33>
| 34> * xyz 0 1
| 35>   C                      1.790265             3.458561             8.299905
| 36>   O                      0.760315             4.348827             7.951540
| 37>   H                      0.700689             4.320397             6.985783
| 38>   H                      2.747720             4.048782             8.453165
| 39>   H                      1.540345             2.807398             9.173545
| 40>   H                      2.017215             2.823354             7.489023
| 41>   C                    : 4.982957             4.001329             5.891778
| 42>   O                    : 4.613225             3.537500             4.583148
| 43>   H                    : 5.346133             3.845427             3.967900
| 44>   H                    : 4.870589             3.154463             6.600303
| 45>   H                    : 6.029761             4.384582             5.912499
| 46>   H                    : 4.309728             4.826055             6.124172
| 47> *
| 48>
| 49> #Run DFT-D3 single point of the particle with dimer basis set
| 50> $new_job
| 51> %base "19-92_DFT_B"
| 52> ! wB97X-D3 def2-TZVP TIGHTSCF CHELPG PMODEL
| 53>
| 54> %scf
| 55> MaxIter 1000
| 56> end
| 57>
| 58> * xyz 0 1
| 59>   C                    : 1.790265             3.458561             8.299905
| 60>   O                    : 0.760315             4.348827             7.951540
| 61>   H                    : 0.700689             4.320397             6.985783
| 62>   H                    : 2.747720             4.048782             8.453165
| 63>   H                    : 1.540345             2.807398             9.173545
| 64>   H                    : 2.017215             2.823354             7.489023
| 65>   C                      4.982957             4.001329             5.891778
| 66>   O                      4.613225             3.537500             4.583148
| 67>   H                      5.346133             3.845427             3.967900
| 68>   H                      4.870589             3.154463             6.600303
| 69>   H                      6.029761             4.384582             5.912499
| 70>   H                      4.309728             4.826055             6.124172
| 71> *
| 72>
| 73>                          ****END OF INPUT****
 Total Charge           Charge          ....    0
 Multiplicity           Mult            ....    1
 Number of Electrons    NEL             ....   36
Dispersion correction           -0.001464432
FINAL SINGLE POINT ENERGY      -231.465407124858
Dispersion correction           -0.000237640
FINAL SINGLE POINT ENERGY      -115.731565703968

CARTESIAN COORDINATES (ANGSTROEM)
---------------------------------
  C      1.790265    3.458561    8.299905
  O      0.760315    4.348827    7.951540
  H      0.700689    4.320397    6.985783
  H      2.747720    4.048782    8.453165
  H      1.540345    2.807398    9.173545
  H      2.017215    2.823354    7.489023
  C      4.982957    4.001329    5.891778
  O      4.613225    3.537500    4.583148
  H      5.346133    3.845427    3.967900
  H      4.870589    3.154463    6.600303
  H      6.029761    4.384582    5.912499
  H      4.309728    4.826055    6.124172

 Multiplicity           Mult            ....    1
 Number of Electrons    NEL             ....   18
 Basis Dimension        Dim             ....  172

ORBITAL ENERGIES
----------------

  NO   OCC          E(Eh)            E(eV)
   0   2.0000     -19.231056      -523.3036
   1   2.0000     -10.317183      -280.7448
   2   2.0000      -1.121137       -30.5077
   3   2.0000      -0.786885       -21.4122
   4   2.0000      -0.600427       -16.3385
   5   2.0000      -0.541827       -14.7439
   6   2.0000      -0.516518       -14.0552
   7   2.0000      -0.435378       -11.8472
   8   2.0000      -0.370689       -10.0870
   9   0.0000       0.088304         2.4029
  10   0.0000       0.109939         2.9916
  11   0.0000       0.154783         4.2119
  12   0.0000       0.166433         4.5289
  13   0.0000       0.184315         5.0155

MULLIKEN ATOMIC CHARGES
-----------------------
   0 C :   -0.000313
   1 O :   -0.000054
   2 H :   -0.000013
   3 H :   -0.000488
   4 H :    0.000074
   5 H :    0.000829
   6 C :   -0.178498
   7 O :   -0.476053
   8 H :    0.316196
   9 H :    0.116355
  10 H :    0.109459
  11 H :    0.112507
Sum of atomic charges:    0.0000000

LOEWDIN ATOMIC CHARGES
----------------------
   0 C :   -0.002004
   1 O :   -0.000017
   2 H :   -0.000038
   3 H :   -0.001601
   4 H :   -0.000005
   5 H :   -0.000558
   6 C :   -0.374929
   7 O :   -0.118380
   8 H :    0.192685
   9 H :    0.106660
  10 H :    0.099632
  11 H :    0.098554

  Mayer bond orders larger than 0.1
B(  6-C ,  7-O ) :   1.0013 B(  6-C ,  9-H ) :   0.9725 B(  6-C , 10-H ) :   0.9784
B(  6-C , 11-H ) :   0.9753 B(  7-O ,  8-H ) :   0.8970

Dispersion correction           -0.000248283
FINAL SINGLE POINT ENERGY      -115.732259455340

DIPOLE MOMENT
-------------
                                X             Y             Z
Electronic contribution:     -0.58713      -0.65153      -1.51941
Nuclear contribution   :      1.20184       1.03388       1.65369
                        -----------------------------------------
Total Dipole Moment    :      0.61470       0.38235       0.13427
                        -----------------------------------------
Magnitude (a.u.)       :      0.73626
Magnitude (Debye)      :      1.87142

Rotational constants in cm-1:     4.035995     0.817668     0.785006
Rotational constants in MHz : 120996.095808 24513.063343 23533.874151

                             ****ORCA TERMINATED NORMALLY****
TOTAL RUN TIME: 0 days 0 hours 0 minutes 52 seconds 689 msec
