                         Program Version 4.1.2  - RELEASE  -
|  1> #Run DFT-D3 single point of the dimer
|  2> ! wB97X-D3 def2-TZVP TIGHTSCF CHELPG PMODEL PAL8
|  3>
|  4> %base "12-61_DFT_AB"
|  5>
|  6> %scf
|  7> MaxIter 1000
|  8> end
|  9>
| 10> * xyz 0 1
| 11>   C                      1.228255             8.850175             -3.515345
| 12>   O                      1.191600             8.715200             -2.081027
| 13>   H                      0.242599             8.844409             -1.860280
| 14>   H                      1.453714             9.811640             -3.993332
| 15>   H                      1.787758             7.990946             -3.923253
| 16>   H                      0.282204             8.617246             -3.914783
| 17>   C                      0.291117             7.152671             2.904466
| 18>   O                      0.770029             8.084464             1.947282
| 19>   H                      1.747909             8.077446             1.964323
| 20>   H                      1.031792             6.918922             3.673868
| 21>   H                      -0.641739            7.632905             3.339170
| 22>   H                      0.051420             6.234753             2.473588
| 23> *
| 24>
| 25> #Run DFT-D3 single point of the molecule with dimer basis set
| 26> $new_job
| 27> %base "12-61_DFT_A"
| 28> ! wB97X-D3 def2-TZVP TIGHTSCF CHELPG PMODEL
| 29>
| 30> %scf
| 31> MaxIter 1000
| 32> end
| 33>
| 34> * xyz 0 1
| 35>   C                      1.228255             8.850175             -3.515345
| 36>   O                      1.191600             8.715200             -2.081027
| 37>   H                      0.242599             8.844409             -1.860280
| 38>   H                      1.453714             9.811640             -3.993332
| 39>   H                      1.787758             7.990946             -3.923253
| 40>   H                      0.282204             8.617246             -3.914783
| 41>   C                    : 0.291117             7.152671             2.904466
| 42>   O                    : 0.770029             8.084464             1.947282
| 43>   H                    : 1.747909             8.077446             1.964323
| 44>   H                    : 1.031792             6.918922             3.673868
| 45>   H                    : -0.641739            7.632905             3.339170
| 46>   H                    : 0.051420             6.234753             2.473588
| 47> *
| 48>
| 49> #Run DFT-D3 single point of the particle with dimer basis set
| 50> $new_job
| 51> %base "12-61_DFT_B"
| 52> ! wB97X-D3 def2-TZVP TIGHTSCF CHELPG PMODEL
| 53>
| 54> %scf
| 55> MaxIter 1000
| 56> end
| 57>
| 58> * xyz 0 1
| 59>   C                    : 1.228255             8.850175             -3.515345
| 60>   O                    : 1.191600             8.715200             -2.081027
| 61>   H                    : 0.242599             8.844409             -1.860280
| 62>   H                    : 1.453714             9.811640             -3.993332
| 63>   H                    : 1.787758             7.990946             -3.923253
| 64>   H                    : 0.282204             8.617246             -3.914783
| 65>   C                      0.291117             7.152671             2.904466
| 66>   O                      0.770029             8.084464             1.947282
| 67>   H                      1.747909             8.077446             1.964323
| 68>   H                      1.031792             6.918922             3.673868
| 69>   H                      -0.641739            7.632905             3.339170
| 70>   H                      0.051420             6.234753             2.473588
| 71> *
| 72>
| 73>                          ****END OF INPUT****
 Total Charge           Charge          ....    0
 Multiplicity           Mult            ....    1
 Number of Electrons    NEL             ....   36
Dispersion correction           -0.000744939
FINAL SINGLE POINT ENERGY      -231.458654783853
Dispersion correction           -0.000258969
FINAL SINGLE POINT ENERGY      -115.725792069354

CARTESIAN COORDINATES (ANGSTROEM)
---------------------------------
  C      1.228255    8.850175   -3.515345
  O      1.191600    8.715200   -2.081027
  H      0.242599    8.844409   -1.860280
  H      1.453714    9.811640   -3.993332
  H      1.787758    7.990946   -3.923253
  H      0.282204    8.617246   -3.914783
  C      0.291117    7.152671    2.904466
  O      0.770029    8.084464    1.947282
  H      1.747909    8.077446    1.964323
  H      1.031792    6.918922    3.673868
  H     -0.641739    7.632905    3.339170
  H      0.051420    6.234753    2.473588

 Multiplicity           Mult            ....    1
 Number of Electrons    NEL             ....   18
 Basis Dimension        Dim             ....  172

ORBITAL ENERGIES
----------------

  NO   OCC          E(Eh)            E(eV)
   0   2.0000     -19.229580      -523.2635
   1   2.0000     -10.311484      -280.5897
   2   2.0000      -1.129987       -30.7485
   3   2.0000      -0.794935       -21.6313
   4   2.0000      -0.611878       -16.6500
   5   2.0000      -0.542014       -14.7489
   6   2.0000      -0.520119       -14.1531
   7   2.0000      -0.434631       -11.8269
   8   2.0000      -0.371905       -10.1200
   9   0.0000       0.092343         2.5128
  10   0.0000       0.111526         3.0348
  11   0.0000       0.154291         4.1985
  12   0.0000       0.179302         4.8791
  13   0.0000       0.192158         5.2289

MULLIKEN ATOMIC CHARGES
-----------------------
   0 C :   -0.000034
   1 O :   -0.000264
   2 H :   -0.000806
   3 H :   -0.000001
   4 H :    0.000004
   5 H :    0.000003
   6 C :   -0.158650
   7 O :   -0.476782
   8 H :    0.314416
   9 H :    0.103592
  10 H :    0.111408
  11 H :    0.107114
Sum of atomic charges:    0.0000000

LOEWDIN ATOMIC CHARGES
----------------------
   0 C :   -0.000014
   1 O :   -0.000333
   2 H :   -0.000637
   3 H :   -0.000000
   4 H :   -0.000000
   5 H :   -0.000001
   6 C :   -0.378726
   7 O :   -0.091708
   8 H :    0.177405
   9 H :    0.095708
  10 H :    0.115604
  11 H :    0.082701

  Mayer bond orders larger than 0.1
B(  6-C ,  7-O ) :   1.0035 B(  6-C ,  9-H ) :   0.9815 B(  6-C , 10-H ) :   0.9780
B(  6-C , 11-H ) :   0.9721 B(  7-O ,  8-H ) :   0.8985

Dispersion correction           -0.000243828
FINAL SINGLE POINT ENERGY      -115.732149336804

DIPOLE MOMENT
-------------
                                X             Y             Z
Electronic contribution:      0.50293       1.13777      -1.25364
Nuclear contribution   :     -0.05375      -1.53142       1.64965
                        -----------------------------------------
Total Dipole Moment    :      0.44918      -0.39365       0.39601
                        -----------------------------------------
Magnitude (a.u.)       :      0.71662
Magnitude (Debye)      :      1.82149

Rotational constants in cm-1:     4.246856     0.834650     0.794358
Rotational constants in MHz : 127317.542448 25022.187163 23814.262427

                             ****ORCA TERMINATED NORMALLY****
TOTAL RUN TIME: 0 days 0 hours 0 minutes 53 seconds 825 msec
