                         Program Version 4.1.2  - RELEASE  -
|  1> #Run DFT-D3 single point of the dimer
|  2> ! wB97X-D3 def2-TZVP TIGHTSCF CHELPG PMODEL PAL8
|  3>
|  4> %base "12-176_DFT_AB"
|  5>
|  6> %scf
|  7> MaxIter 1000
|  8> end
|  9>
| 10> * xyz 0 1
| 11>   C                      -0.339149            -4.423199            -5.326055
| 12>   O                      -0.038769            -3.807960            -6.553983
| 13>   H                      0.856931             -4.029601            -6.766577
| 14>   H                      -1.183695            -3.938080            -4.910688
| 15>   H                      -0.641640            -5.450036            -5.588658
| 16>   H                      0.493558             -4.491203            -4.588605
| 17>   C                      1.428738             -7.296741            -8.962109
| 18>   O                      0.994576             -6.405838            -7.914931
| 19>   H                      1.193973             -6.806109            -7.075848
| 20>   H                      2.320660             -7.032394            -9.595755
| 21>   H                      1.723187             -8.301169            -8.580874
| 22>   H                      0.628930             -7.428416            -9.766215
| 23> *
| 24>
| 25> #Run DFT-D3 single point of the molecule with dimer basis set
| 26> $new_job
| 27> %base "12-176_DFT_A"
| 28> ! wB97X-D3 def2-TZVP TIGHTSCF CHELPG PMODEL
| 29>
| 30> %scf
| 31> MaxIter 1000
| 32> end
| 33>
| 34> * xyz 0 1
| 35>   C                      -0.339149            -4.423199            -5.326055
| 36>   O                      -0.038769            -3.807960            -6.553983
| 37>   H                      0.856931             -4.029601            -6.766577
| 38>   H                      -1.183695            -3.938080            -4.910688
| 39>   H                      -0.641640            -5.450036            -5.588658
| 40>   H                      0.493558             -4.491203            -4.588605
| 41>   C                    : 1.428738             -7.296741            -8.962109
| 42>   O                    : 0.994576             -6.405838            -7.914931
| 43>   H                    : 1.193973             -6.806109            -7.075848
| 44>   H                    : 2.320660             -7.032394            -9.595755
| 45>   H                    : 1.723187             -8.301169            -8.580874
| 46>   H                    : 0.628930             -7.428416            -9.766215
| 47> *
| 48>
| 49> #Run DFT-D3 single point of the particle with dimer basis set
| 50> $new_job
| 51> %base "12-176_DFT_B"
| 52> ! wB97X-D3 def2-TZVP TIGHTSCF CHELPG PMODEL
| 53>
| 54> %scf
| 55> MaxIter 1000
| 56> end
| 57>
| 58> * xyz 0 1
| 59>   C                    : -0.339149            -4.423199            -5.326055
| 60>   O                    : -0.038769            -3.807960            -6.553983
| 61>   H                    : 0.856931             -4.029601            -6.766577
| 62>   H                    : -1.183695            -3.938080            -4.910688
| 63>   H                    : -0.641640            -5.450036            -5.588658
| 64>   H                    : 0.493558             -4.491203            -4.588605
| 65>   C                      1.428738             -7.296741            -8.962109
| 66>   O                      0.994576             -6.405838            -7.914931
| 67>   H                      1.193973             -6.806109            -7.075848
| 68>   H                      2.320660             -7.032394            -9.595755
| 69>   H                      1.723187             -8.301169            -8.580874
| 70>   H                      0.628930             -7.428416            -9.766215
| 71> *
| 72>
| 73>                          ****END OF INPUT****
 Total Charge           Charge          ....    0
 Multiplicity           Mult            ....    1
 Number of Electrons    NEL             ....   36
Dispersion correction           -0.001696241
FINAL SINGLE POINT ENERGY      -231.463603884767
Dispersion correction           -0.000229591
FINAL SINGLE POINT ENERGY      -115.734091887920

CARTESIAN COORDINATES (ANGSTROEM)
---------------------------------
  C     -0.339149   -4.423199   -5.326055
  O     -0.038769   -3.807960   -6.553983
  H      0.856931   -4.029601   -6.766577
  H     -1.183695   -3.938080   -4.910688
  H     -0.641640   -5.450036   -5.588658
  H      0.493558   -4.491203   -4.588605
  C      1.428738   -7.296741   -8.962109
  O      0.994576   -6.405838   -7.914931
  H      1.193973   -6.806109   -7.075848
  H      2.320660   -7.032394   -9.595755
  H      1.723187   -8.301169   -8.580874
  H      0.628930   -7.428416   -9.766215

 Multiplicity           Mult            ....    1
 Number of Electrons    NEL             ....   18
 Basis Dimension        Dim             ....  172

ORBITAL ENERGIES
----------------

  NO   OCC          E(Eh)            E(eV)
   0   2.0000     -19.237525      -523.4797
   1   2.0000     -10.328339      -281.0484
   2   2.0000      -1.133884       -30.8546
   3   2.0000      -0.793793       -21.6002
   4   2.0000      -0.613932       -16.7059
   5   2.0000      -0.530119       -14.4253
   6   2.0000      -0.519467       -14.1354
   7   2.0000      -0.437253       -11.8982
   8   2.0000      -0.375625       -10.2213
   9   0.0000       0.089990         2.4487
  10   0.0000       0.124020         3.3748
  11   0.0000       0.147139         4.0038
  12   0.0000       0.181713         4.9447
  13   0.0000       0.194272         5.2864

MULLIKEN ATOMIC CHARGES
-----------------------
   0 C :    0.001478
   1 O :    0.002417
   2 H :   -0.006377
   3 H :   -0.000195
   4 H :   -0.005605
   5 H :    0.000000
   6 C :   -0.185882
   7 O :   -0.457955
   8 H :    0.320748
   9 H :    0.108507
  10 H :    0.106033
  11 H :    0.116830
Sum of atomic charges:    0.0000000

LOEWDIN ATOMIC CHARGES
----------------------
   0 C :   -0.003636
   1 O :   -0.003098
   2 H :   -0.009011
   3 H :   -0.000029
   4 H :   -0.002863
   5 H :   -0.000065
   6 C :   -0.385265
   7 O :   -0.073910
   8 H :    0.165535
   9 H :    0.102109
  10 H :    0.099499
  11 H :    0.110733

  Mayer bond orders larger than 0.1
B(  6-C ,  7-O ) :   1.0135 B(  6-C ,  9-H ) :   0.9657 B(  6-C , 10-H ) :   0.9795
B(  6-C , 11-H ) :   0.9761 B(  7-O ,  8-H ) :   0.8960

Dispersion correction           -0.000296486
FINAL SINGLE POINT ENERGY      -115.728706592916

DIPOLE MOMENT
-------------
                                X             Y             Z
Electronic contribution:     -0.61861       1.33368       1.40278
Nuclear contribution   :      0.93473      -1.97515      -1.27432
                        -----------------------------------------
Total Dipole Moment    :      0.31612      -0.64147       0.12846
                        -----------------------------------------
Magnitude (a.u.)       :      0.72658
Magnitude (Debye)      :      1.84681

Rotational constants in cm-1:     4.336208     0.784991     0.752325
Rotational constants in MHz : 129996.244428 23533.452451 22554.128791

                             ****ORCA TERMINATED NORMALLY****
TOTAL RUN TIME: 0 days 0 hours 1 minutes 10 seconds 779 msec
