                         Program Version 4.1.2  - RELEASE  -
|  1> #Run DFT-D3 single point of the dimer
|  2> ! wB97X-D3 def2-TZVP TIGHTSCF CHELPG PMODEL PAL8
|  3>
|  4> %base "7-80_DFT_AB"
|  5>
|  6> %scf
|  7> MaxIter 1000
|  8> end
|  9>
| 10> * xyz 0 1
| 11>   C                      7.285926             0.821066             2.316241
| 12>   O                      7.532912             0.471736             1.007627
| 13>   H                      8.045949             -0.406475            0.930814
| 14>   H                      7.486048             -0.087081            3.004934
| 15>   H                      7.841240             1.695538             2.765298
| 16>   H                      6.188296             0.937388             2.320612
| 17>   C                      10.942558            -2.522075            4.385811
| 18>   O                      10.973613            -3.427735            5.412486
| 19>   H                      11.362989            -4.179425            5.037580
| 20>   H                      11.900698            -2.019428            4.321429
| 21>   H                      10.745459            -3.035837            3.524915
| 22>   H                      10.154383            -1.765396            4.563391
| 23> *
| 24>
| 25> #Run DFT-D3 single point of the molecule with dimer basis set
| 26> $new_job
| 27> %base "7-80_DFT_A"
| 28> ! wB97X-D3 def2-TZVP TIGHTSCF CHELPG PMODEL
| 29>
| 30> %scf
| 31> MaxIter 1000
| 32> end
| 33>
| 34> * xyz 0 1
| 35>   C                      7.285926             0.821066             2.316241
| 36>   O                      7.532912             0.471736             1.007627
| 37>   H                      8.045949             -0.406475            0.930814
| 38>   H                      7.486048             -0.087081            3.004934
| 39>   H                      7.841240             1.695538             2.765298
| 40>   H                      6.188296             0.937388             2.320612
| 41>   C                    : 10.942558            -2.522075            4.385811
| 42>   O                    : 10.973613            -3.427735            5.412486
| 43>   H                    : 11.362989            -4.179425            5.037580
| 44>   H                    : 11.900698            -2.019428            4.321429
| 45>   H                    : 10.745459            -3.035837            3.524915
| 46>   H                    : 10.154383            -1.765396            4.563391
| 47> *
| 48>
| 49> #Run DFT-D3 single point of the particle with dimer basis set
| 50> $new_job
| 51> %base "7-80_DFT_B"
| 52> ! wB97X-D3 def2-TZVP TIGHTSCF CHELPG PMODEL
| 53>
| 54> %scf
| 55> MaxIter 1000
| 56> end
| 57>
| 58> * xyz 0 1
| 59>   C                    : 7.285926             0.821066             2.316241
| 60>   O                    : 7.532912             0.471736             1.007627
| 61>   H                    : 8.045949             -0.406475            0.930814
| 62>   H                    : 7.486048             -0.087081            3.004934
| 63>   H                    : 7.841240             1.695538             2.765298
| 64>   H                    : 6.188296             0.937388             2.320612
| 65>   C                      10.942558            -2.522075            4.385811
| 66>   O                      10.973613            -3.427735            5.412486
| 67>   H                      11.362989            -4.179425            5.037580
| 68>   H                      11.900698            -2.019428            4.321429
| 69>   H                      10.745459            -3.035837            3.524915
| 70>   H                      10.154383            -1.765396            4.563391
| 71> *
| 72>
| 73>                          ****END OF INPUT****
 Total Charge           Charge          ....    0
 Multiplicity           Mult            ....    1
 Number of Electrons    NEL             ....   36
Dispersion correction           -0.000703516
FINAL SINGLE POINT ENERGY      -231.451670683053
Dispersion correction           -0.000256815
FINAL SINGLE POINT ENERGY      -115.723436619985

CARTESIAN COORDINATES (ANGSTROEM)
---------------------------------
  C      7.285926    0.821066    2.316241
  O      7.532912    0.471736    1.007627
  H      8.045949   -0.406475    0.930814
  H      7.486048   -0.087081    3.004934
  H      7.841240    1.695538    2.765298
  H      6.188296    0.937388    2.320612
  C     10.942558   -2.522075    4.385811
  O     10.973613   -3.427735    5.412486
  H     11.362989   -4.179425    5.037580
  H     11.900698   -2.019428    4.321429
  H     10.745459   -3.035837    3.524915
  H     10.154383   -1.765396    4.563391

 Multiplicity           Mult            ....    1
 Number of Electrons    NEL             ....   18
 Basis Dimension        Dim             ....  172

ORBITAL ENERGIES
----------------

  NO   OCC          E(Eh)            E(eV)
   0   2.0000     -19.223246      -523.0911
   1   2.0000     -10.300410      -280.2884
   2   2.0000      -1.159469       -31.5508
   3   2.0000      -0.797691       -21.7063
   4   2.0000      -0.625763       -17.0279
   5   2.0000      -0.555114       -15.1054
   6   2.0000      -0.533642       -14.5211
   7   2.0000      -0.435912       -11.8618
   8   2.0000      -0.370537       -10.0828
   9   0.0000       0.084093         2.2883
  10   0.0000       0.118543         3.2257
  11   0.0000       0.154626         4.2076
  12   0.0000       0.162610         4.4248
  13   0.0000       0.194399         5.2899

MULLIKEN ATOMIC CHARGES
-----------------------
   0 C :    0.000137
   1 O :   -0.000003
   2 H :   -0.000033
   3 H :   -0.000334
   4 H :   -0.000014
   5 H :   -0.000007
   6 C :   -0.154588
   7 O :   -0.455023
   8 H :    0.306826
   9 H :    0.092268
  10 H :    0.100769
  11 H :    0.110002
Sum of atomic charges:    0.0000000

LOEWDIN ATOMIC CHARGES
----------------------
   0 C :   -0.000087
   1 O :   -0.000002
   2 H :   -0.000020
   3 H :   -0.000281
   4 H :   -0.000004
   5 H :   -0.000000
   6 C :   -0.405219
   7 O :   -0.029403
   8 H :    0.151992
   9 H :    0.092832
  10 H :    0.079715
  11 H :    0.110478

  Mayer bond orders larger than 0.1
B(  6-C ,  7-O ) :   1.0047 B(  6-C ,  9-H ) :   0.9772 B(  6-C , 10-H ) :   0.9939
B(  6-C , 11-H ) :   0.9745 B(  7-O ,  8-H ) :   0.9100

Dispersion correction           -0.000189087
FINAL SINGLE POINT ENERGY      -115.728112432453

DIPOLE MOMENT
-------------
                                X             Y             Z
Electronic contribution:     -0.04053      -1.10700       1.35185
Nuclear contribution   :      0.26441       0.94295      -1.99479
                        -----------------------------------------
Total Dipole Moment    :      0.22387      -0.16405      -0.64294
                        -----------------------------------------
Magnitude (a.u.)       :      0.70029
Magnitude (Debye)      :      1.77999

Rotational constants in cm-1:     4.404680     0.896052     0.862525
Rotational constants in MHz : 132048.990011 26862.959925 25857.863804

                             ****ORCA TERMINATED NORMALLY****
TOTAL RUN TIME: 0 days 0 hours 0 minutes 59 seconds 537 msec
