                         Program Version 4.1.2  - RELEASE  -
|  1> #Run DFT-D3 single point of the dimer
|  2> ! wB97X-D3 def2-TZVP TIGHTSCF CHELPG PMODEL PAL8
|  3>
|  4> %base "8-205_DFT_AB"
|  5>
|  6> %scf
|  7> MaxIter 1000
|  8> end
|  9>
| 10> * xyz 0 1
| 11>   C                      -0.915505            -1.309823            3.665352
| 12>   O                      -0.468235            -0.920352            5.001852
| 13>   H                      0.109127             -0.150071            5.001110
| 14>   H                      -1.528910            -2.242467            3.688094
| 15>   H                      -1.449078            -0.451866            3.227574
| 16>   H                      -0.109767            -1.463050            2.909293
| 17>   C                      -3.416509            0.561746             6.178986
| 18>   O                      -3.117772            -0.768218            6.360640
| 19>   H                      -2.176057            -0.872464            6.246538
| 20>   H                      -2.936048            1.057146             5.309851
| 21>   H                      -4.524831            0.648276             6.120792
| 22>   H                      -3.135367            1.118385             7.059823
| 23> *
| 24>
| 25> #Run DFT-D3 single point of the molecule with dimer basis set
| 26> $new_job
| 27> %base "8-205_DFT_A"
| 28> ! wB97X-D3 def2-TZVP TIGHTSCF CHELPG PMODEL
| 29>
| 30> %scf
| 31> MaxIter 1000
| 32> end
| 33>
| 34> * xyz 0 1
| 35>   C                      -0.915505            -1.309823            3.665352
| 36>   O                      -0.468235            -0.920352            5.001852
| 37>   H                      0.109127             -0.150071            5.001110
| 38>   H                      -1.528910            -2.242467            3.688094
| 39>   H                      -1.449078            -0.451866            3.227574
| 40>   H                      -0.109767            -1.463050            2.909293
| 41>   C                    : -3.416509            0.561746             6.178986
| 42>   O                    : -3.117772            -0.768218            6.360640
| 43>   H                    : -2.176057            -0.872464            6.246538
| 44>   H                    : -2.936048            1.057146             5.309851
| 45>   H                    : -4.524831            0.648276             6.120792
| 46>   H                    : -3.135367            1.118385             7.059823
| 47> *
| 48>
| 49> #Run DFT-D3 single point of the particle with dimer basis set
| 50> $new_job
| 51> %base "8-205_DFT_B"
| 52> ! wB97X-D3 def2-TZVP TIGHTSCF CHELPG PMODEL
| 53>
| 54> %scf
| 55> MaxIter 1000
| 56> end
| 57>
| 58> * xyz 0 1
| 59>   C                    : -0.915505            -1.309823            3.665352
| 60>   O                    : -0.468235            -0.920352            5.001852
| 61>   H                    : 0.109127             -0.150071            5.001110
| 62>   H                    : -1.528910            -2.242467            3.688094
| 63>   H                    : -1.449078            -0.451866            3.227574
| 64>   H                    : -0.109767            -1.463050            2.909293
| 65>   C                      -3.416509            0.561746             6.178986
| 66>   O                      -3.117772            -0.768218            6.360640
| 67>   H                      -2.176057            -0.872464            6.246538
| 68>   H                      -2.936048            1.057146             5.309851
| 69>   H                      -4.524831            0.648276             6.120792
| 70>   H                      -3.135367            1.118385             7.059823
| 71> *
| 72>
| 73>                          ****END OF INPUT****
 Total Charge           Charge          ....    0
 Multiplicity           Mult            ....    1
 Number of Electrons    NEL             ....   36
Dispersion correction           -0.002122206
FINAL SINGLE POINT ENERGY      -231.474793538047
Dispersion correction           -0.000284327
FINAL SINGLE POINT ENERGY      -115.730940562434

CARTESIAN COORDINATES (ANGSTROEM)
---------------------------------
  C     -0.915505   -1.309823    3.665352
  O     -0.468235   -0.920352    5.001852
  H      0.109127   -0.150071    5.001110
  H     -1.528910   -2.242467    3.688094
  H     -1.449078   -0.451866    3.227574
  H     -0.109767   -1.463050    2.909293
  C     -3.416509    0.561746    6.178986
  O     -3.117772   -0.768218    6.360640
  H     -2.176057   -0.872464    6.246538
  H     -2.936048    1.057146    5.309851
  H     -4.524831    0.648276    6.120792
  H     -3.135367    1.118385    7.059823

 Multiplicity           Mult            ....    1
 Number of Electrons    NEL             ....   18
 Basis Dimension        Dim             ....  172

ORBITAL ENERGIES
----------------

  NO   OCC          E(Eh)            E(eV)
   0   2.0000     -19.231697      -523.3211
   1   2.0000     -10.311265      -280.5838
   2   2.0000      -1.151618       -31.3371
   3   2.0000      -0.793339       -21.5879
   4   2.0000      -0.620945       -16.8968
   5   2.0000      -0.544813       -14.8251
   6   2.0000      -0.530134       -14.4257
   7   2.0000      -0.434370       -11.8198
   8   2.0000      -0.371425       -10.1070
   9   0.0000       0.071213         1.9378
  10   0.0000       0.135765         3.6943
  11   0.0000       0.150808         4.1037
  12   0.0000       0.165805         4.5118
  13   0.0000       0.187585         5.1045

MULLIKEN ATOMIC CHARGES
-----------------------
   0 C :   -0.007671
   1 O :   -0.002134
   2 H :   -0.000066
   3 H :   -0.000096
   4 H :    0.000732
   5 H :   -0.000329
   6 C :   -0.163219
   7 O :   -0.454447
   8 H :    0.312640
   9 H :    0.097215
  10 H :    0.114333
  11 H :    0.103041
Sum of atomic charges:   -0.0000000

LOEWDIN ATOMIC CHARGES
----------------------
   0 C :   -0.007188
   1 O :   -0.012525
   2 H :   -0.000857
   3 H :   -0.001110
   4 H :   -0.000660
   5 H :   -0.000159
   6 C :   -0.417833
   7 O :   -0.031755
   8 H :    0.172818
   9 H :    0.095858
  10 H :    0.113116
  11 H :    0.090297

  Mayer bond orders larger than 0.1
B(  6-C ,  7-O ) :   0.9998 B(  6-C ,  9-H ) :   0.9690 B(  6-C , 10-H ) :   0.9741
B(  6-C , 11-H ) :   0.9846 B(  7-O ,  8-H ) :   0.9053

Dispersion correction           -0.000226281
FINAL SINGLE POINT ENERGY      -115.735330234897

DIPOLE MOMENT
-------------
                                X             Y             Z
Electronic contribution:      0.30312      -1.81473       0.19860
Nuclear contribution   :      0.17500       2.23988      -0.32177
                        -----------------------------------------
Total Dipole Moment    :      0.47812       0.42515      -0.12317
                        -----------------------------------------
Magnitude (a.u.)       :      0.65156
Magnitude (Debye)      :      1.65612

Rotational constants in cm-1:     4.275296     0.872511     0.833419
Rotational constants in MHz : 128170.138051 26157.236417 24985.262500

                             ****ORCA TERMINATED NORMALLY****
TOTAL RUN TIME: 0 days 0 hours 0 minutes 49 seconds 124 msec
