                         Program Version 4.1.2  - RELEASE  -
|  1> #Run DFT-D3 single point of the dimer
|  2> ! wB97X-D3 def2-TZVP TIGHTSCF CHELPG PMODEL PAL8
|  3>
|  4> %base "10-77_DFT_AB"
|  5>
|  6> %scf
|  7> MaxIter 1000
|  8> end
|  9>
| 10> * xyz 0 1
| 11>   C                      4.546624             -10.081734           -0.355543
| 12>   O                      3.316980             -9.471916            -0.450149
| 13>   H                      3.133284             -8.853097            0.272998
| 14>   H                      5.079215             -10.102797           -1.305874
| 15>   H                      5.187251             -9.604669            0.363695
| 16>   H                      4.466684             -11.200598           -0.094542
| 17>   C                      -0.044900            -8.393597            0.078068
| 18>   O                      -1.382602            -8.831808            -0.218528
| 19>   H                      -1.320086            -9.328021            -0.996402
| 20>   H                      0.416591             -8.024864            -0.837655
| 21>   H                      -0.006257            -7.610653            0.880495
| 22>   H                      0.607919             -9.246314            0.494425
| 23> *
| 24>
| 25> #Run DFT-D3 single point of the molecule with dimer basis set
| 26> $new_job
| 27> %base "10-77_DFT_A"
| 28> ! wB97X-D3 def2-TZVP TIGHTSCF CHELPG PMODEL
| 29>
| 30> %scf
| 31> MaxIter 1000
| 32> end
| 33>
| 34> * xyz 0 1
| 35>   C                      4.546624             -10.081734           -0.355543
| 36>   O                      3.316980             -9.471916            -0.450149
| 37>   H                      3.133284             -8.853097            0.272998
| 38>   H                      5.079215             -10.102797           -1.305874
| 39>   H                      5.187251             -9.604669            0.363695
| 40>   H                      4.466684             -11.200598           -0.094542
| 41>   C                    : -0.044900            -8.393597            0.078068
| 42>   O                    : -1.382602            -8.831808            -0.218528
| 43>   H                    : -1.320086            -9.328021            -0.996402
| 44>   H                    : 0.416591             -8.024864            -0.837655
| 45>   H                    : -0.006257            -7.610653            0.880495
| 46>   H                    : 0.607919             -9.246314            0.494425
| 47> *
| 48>
| 49> #Run DFT-D3 single point of the particle with dimer basis set
| 50> $new_job
| 51> %base "10-77_DFT_B"
| 52> ! wB97X-D3 def2-TZVP TIGHTSCF CHELPG PMODEL
| 53>
| 54> %scf
| 55> MaxIter 1000
| 56> end
| 57>
| 58> * xyz 0 1
| 59>   C                    : 4.546624             -10.081734           -0.355543
| 60>   O                    : 3.316980             -9.471916            -0.450149
| 61>   H                    : 3.133284             -8.853097            0.272998
| 62>   H                    : 5.079215             -10.102797           -1.305874
| 63>   H                    : 5.187251             -9.604669            0.363695
| 64>   H                    : 4.466684             -11.200598           -0.094542
| 65>   C                      -0.044900            -8.393597            0.078068
| 66>   O                      -1.382602            -8.831808            -0.218528
| 67>   H                      -1.320086            -9.328021            -0.996402
| 68>   H                      0.416591             -8.024864            -0.837655
| 69>   H                      -0.006257            -7.610653            0.880495
| 70>   H                      0.607919             -9.246314            0.494425
| 71> *
| 72>
| 73>                          ****END OF INPUT****
 Total Charge           Charge          ....    0
 Multiplicity           Mult            ....    1
 Number of Electrons    NEL             ....   36
Dispersion correction           -0.001380580
FINAL SINGLE POINT ENERGY      -231.465233252229
Dispersion correction           -0.000254254
FINAL SINGLE POINT ENERGY      -115.732374785310

CARTESIAN COORDINATES (ANGSTROEM)
---------------------------------
  C      4.546624  -10.081734   -0.355543
  O      3.316980   -9.471916   -0.450149
  H      3.133284   -8.853097    0.272998
  H      5.079215  -10.102797   -1.305874
  H      5.187251   -9.604669    0.363695
  H      4.466684  -11.200598   -0.094542
  C     -0.044900   -8.393597    0.078068
  O     -1.382602   -8.831808   -0.218528
  H     -1.320086   -9.328021   -0.996402
  H      0.416591   -8.024864   -0.837655
  H     -0.006257   -7.610653    0.880495
  H      0.607919   -9.246314    0.494425

 Multiplicity           Mult            ....    1
 Number of Electrons    NEL             ....   18
 Basis Dimension        Dim             ....  172

ORBITAL ENERGIES
----------------

  NO   OCC          E(Eh)            E(eV)
   0   2.0000     -19.229019      -523.2482
   1   2.0000     -10.325160      -280.9619
   2   2.0000      -1.138843       -30.9895
   3   2.0000      -0.792871       -21.5751
   4   2.0000      -0.609454       -16.5841
   5   2.0000      -0.537576       -14.6282
   6   2.0000      -0.523596       -14.2478
   7   2.0000      -0.437752       -11.9118
   8   2.0000      -0.374406       -10.1881
   9   0.0000       0.082427         2.2429
  10   0.0000       0.117815         3.2059
  11   0.0000       0.137877         3.7518
  12   0.0000       0.183889         5.0039
  13   0.0000       0.186972         5.0878

MULLIKEN ATOMIC CHARGES
-----------------------
   0 C :   -0.000519
   1 O :   -0.000724
   2 H :   -0.000481
   3 H :    0.000014
   4 H :    0.000007
   5 H :   -0.000004
   6 C :   -0.173899
   7 O :   -0.462525
   8 H :    0.307504
   9 H :    0.108415
  10 H :    0.121691
  11 H :    0.100522
Sum of atomic charges:    0.0000000

LOEWDIN ATOMIC CHARGES
----------------------
   0 C :   -0.000214
   1 O :   -0.002423
   2 H :   -0.003229
   3 H :   -0.000005
   4 H :   -0.000002
   5 H :   -0.000010
   6 C :   -0.375180
   7 O :   -0.075755
   8 H :    0.144394
   9 H :    0.094750
  10 H :    0.112848
  11 H :    0.104827

  Mayer bond orders larger than 0.1
B(  6-C ,  7-O ) :   0.9983 B(  6-C ,  9-H ) :   0.9796 B(  6-C , 10-H ) :   0.9695
B(  6-C , 11-H ) :   0.9708 B(  7-O ,  8-H ) :   0.9093

Dispersion correction           -0.000255542
FINAL SINGLE POINT ENERGY      -115.731796554131

DIPOLE MOMENT
-------------
                                X             Y             Z
Electronic contribution:     -1.82691      -0.41911      -0.30760
Nuclear contribution   :      2.39646       0.29700      -0.07873
                        -----------------------------------------
Total Dipole Moment    :      0.56955      -0.12211      -0.38633
                        -----------------------------------------
Magnitude (a.u.)       :      0.69896
Magnitude (Debye)      :      1.77661

Rotational constants in cm-1:     4.200882     0.803136     0.776548
Rotational constants in MHz : 125939.282865 24077.398771 23280.312449

                             ****ORCA TERMINATED NORMALLY****
TOTAL RUN TIME: 0 days 0 hours 1 minutes 3 seconds 462 msec
