                         Program Version 4.1.2  - RELEASE  -
|  1> #Run DFT-D3 single point of the dimer
|  2> ! wB97X-D3 def2-TZVP TIGHTSCF CHELPG PMODEL PAL8
|  3>
|  4> %base "1-111_DFT_AB"
|  5>
|  6> %scf
|  7> MaxIter 1000
|  8> end
|  9>
| 10> * xyz 0 1
| 11>   C                      4.888409             3.253564             1.564337
| 12>   O                      3.677006             2.583596             1.661210
| 13>   H                      3.206091             3.184549             2.313653
| 14>   H                      4.815171             4.370015             1.276239
| 15>   H                      5.420325             3.232220             2.517922
| 16>   H                      5.548820             2.761538             0.826897
| 17>   C                      3.124411             6.760712             0.079226
| 18>   O                      3.436967             7.917179             -0.688378
| 19>   H                      4.331407             7.963091             -0.943924
| 20>   H                      3.279896             7.001139             1.161215
| 21>   H                      2.073027             6.448068             0.115483
| 22>   H                      3.707843             5.875850             -0.206455
| 23> *
| 24>
| 25> #Run DFT-D3 single point of the molecule with dimer basis set
| 26> $new_job
| 27> %base "1-111_DFT_A"
| 28> ! wB97X-D3 def2-TZVP TIGHTSCF CHELPG PMODEL
| 29>
| 30> %scf
| 31> MaxIter 1000
| 32> end
| 33>
| 34> * xyz 0 1
| 35>   C                      4.888409             3.253564             1.564337
| 36>   O                      3.677006             2.583596             1.661210
| 37>   H                      3.206091             3.184549             2.313653
| 38>   H                      4.815171             4.370015             1.276239
| 39>   H                      5.420325             3.232220             2.517922
| 40>   H                      5.548820             2.761538             0.826897
| 41>   C                    : 3.124411             6.760712             0.079226
| 42>   O                    : 3.436967             7.917179             -0.688378
| 43>   H                    : 4.331407             7.963091             -0.943924
| 44>   H                    : 3.279896             7.001139             1.161215
| 45>   H                    : 2.073027             6.448068             0.115483
| 46>   H                    : 3.707843             5.875850             -0.206455
| 47> *
| 48>
| 49> #Run DFT-D3 single point of the particle with dimer basis set
| 50> $new_job
| 51> %base "1-111_DFT_B"
| 52> ! wB97X-D3 def2-TZVP TIGHTSCF CHELPG PMODEL
| 53>
| 54> %scf
| 55> MaxIter 1000
| 56> end
| 57>
| 58> * xyz 0 1
| 59>   C                    : 4.888409             3.253564             1.564337
| 60>   O                    : 3.677006             2.583596             1.661210
| 61>   H                    : 3.206091             3.184549             2.313653
| 62>   H                    : 4.815171             4.370015             1.276239
| 63>   H                    : 5.420325             3.232220             2.517922
| 64>   H                    : 5.548820             2.761538             0.826897
| 65>   C                      3.124411             6.760712             0.079226
| 66>   O                      3.436967             7.917179             -0.688378
| 67>   H                      4.331407             7.963091             -0.943924
| 68>   H                      3.279896             7.001139             1.161215
| 69>   H                      2.073027             6.448068             0.115483
| 70>   H                      3.707843             5.875850             -0.206455
| 71> *
| 72>
| 73>                          ****END OF INPUT****
 Total Charge           Charge          ....    0
 Multiplicity           Mult            ....    1
 Number of Electrons    NEL             ....   36
Dispersion correction           -0.001340873
FINAL SINGLE POINT ENERGY      -231.461149523639
Dispersion correction           -0.000226900
FINAL SINGLE POINT ENERGY      -115.730335449992

CARTESIAN COORDINATES (ANGSTROEM)
---------------------------------
  C      4.888409    3.253564    1.564337
  O      3.677006    2.583596    1.661210
  H      3.206091    3.184549    2.313653
  H      4.815171    4.370015    1.276239
  H      5.420325    3.232220    2.517922
  H      5.548820    2.761538    0.826897
  C      3.124411    6.760712    0.079226
  O      3.436967    7.917179   -0.688378
  H      4.331407    7.963091   -0.943924
  H      3.279896    7.001139    1.161215
  H      2.073027    6.448068    0.115483
  H      3.707843    5.875850   -0.206455

 Multiplicity           Mult            ....    1
 Number of Electrons    NEL             ....   18
 Basis Dimension        Dim             ....  172

ORBITAL ENERGIES
----------------

  NO   OCC          E(Eh)            E(eV)
   0   2.0000     -19.227093      -523.1958
   1   2.0000     -10.318831      -280.7897
   2   2.0000      -1.136206       -30.9177
   3   2.0000      -0.800471       -21.7819
   4   2.0000      -0.614594       -16.7239
   5   2.0000      -0.539636       -14.6842
   6   2.0000      -0.527487       -14.3537
   7   2.0000      -0.427534       -11.6338
   8   2.0000      -0.371433       -10.1072
   9   0.0000       0.081708         2.2234
  10   0.0000       0.120457         3.2778
  11   0.0000       0.147989         4.0270
  12   0.0000       0.166286         4.5249
  13   0.0000       0.181674         4.9436

MULLIKEN ATOMIC CHARGES
-----------------------
   0 C :    0.001400
   1 O :    0.000064
   2 H :   -0.000027
   3 H :   -0.004078
   4 H :   -0.000159
   5 H :   -0.000057
   6 C :   -0.162783
   7 O :   -0.479660
   8 H :    0.314928
   9 H :    0.100116
  10 H :    0.121274
  11 H :    0.108983
Sum of atomic charges:   -0.0000000

LOEWDIN ATOMIC CHARGES
----------------------
   0 C :   -0.002032
   1 O :   -0.000015
   2 H :   -0.000043
   3 H :   -0.005016
   4 H :   -0.000016
   5 H :   -0.000031
   6 C :   -0.381115
   7 O :   -0.069722
   8 H :    0.149217
   9 H :    0.101178
  10 H :    0.108395
  11 H :    0.099200

  Mayer bond orders larger than 0.1
B(  6-C ,  7-O ) :   0.9985 B(  6-C ,  9-H ) :   0.9810 B(  6-C , 10-H ) :   0.9671
B(  6-C , 11-H ) :   0.9783 B(  7-O ,  8-H ) :   0.9005

Dispersion correction           -0.000269780
FINAL SINGLE POINT ENERGY      -115.730279462310

DIPOLE MOMENT
-------------
                                X             Y             Z
Electronic contribution:      0.30044       1.50314      -1.13918
Nuclear contribution   :      0.14986      -1.95734       1.27642
                        -----------------------------------------
Total Dipole Moment    :      0.45030      -0.45420       0.13724
                        -----------------------------------------
Magnitude (a.u.)       :      0.65414
Magnitude (Debye)      :      1.66268

Rotational constants in cm-1:     4.477673     0.805760     0.780272
Rotational constants in MHz : 134237.254811 24156.090675 23391.958355

                             ****ORCA TERMINATED NORMALLY****
TOTAL RUN TIME: 0 days 0 hours 4 minutes 22 seconds 429 msec
