                         Program Version 4.1.2  - RELEASE  -
|  1> #Run DFT-D3 single point of the dimer
|  2> ! wB97X-D3 def2-TZVP TIGHTSCF CHELPG PMODEL PAL8
|  3>
|  4> %base "19-57_DFT_AB"
|  5>
|  6> %scf
|  7> MaxIter 1000
|  8> end
|  9>
| 10> * xyz 0 1
| 11>   C                      7.735640             -3.628557            -5.394134
| 12>   O                      6.374040             -3.628548            -5.142410
| 13>   H                      5.933957             -4.477045            -5.105908
| 14>   H                      8.304852             -3.877057            -4.570331
| 15>   H                      7.857922             -4.475036            -6.074864
| 16>   H                      8.076524             -2.769222            -5.967372
| 17>   C                      3.771082             -0.084111            -5.364219
| 18>   O                      2.789198             0.944553             -5.009210
| 19>   H                      2.732328             1.510619             -5.748746
| 20>   H                      4.269562             -0.378328            -4.423374
| 21>   H                      3.274497             -0.961496            -5.774441
| 22>   H                      4.520300             0.267564             -5.941169
| 23> *
| 24>
| 25> #Run DFT-D3 single point of the molecule with dimer basis set
| 26> $new_job
| 27> %base "19-57_DFT_A"
| 28> ! wB97X-D3 def2-TZVP TIGHTSCF CHELPG PMODEL
| 29>
| 30> %scf
| 31> MaxIter 1000
| 32> end
| 33>
| 34> * xyz 0 1
| 35>   C                      7.735640             -3.628557            -5.394134
| 36>   O                      6.374040             -3.628548            -5.142410
| 37>   H                      5.933957             -4.477045            -5.105908
| 38>   H                      8.304852             -3.877057            -4.570331
| 39>   H                      7.857922             -4.475036            -6.074864
| 40>   H                      8.076524             -2.769222            -5.967372
| 41>   C                    : 3.771082             -0.084111            -5.364219
| 42>   O                    : 2.789198             0.944553             -5.009210
| 43>   H                    : 2.732328             1.510619             -5.748746
| 44>   H                    : 4.269562             -0.378328            -4.423374
| 45>   H                    : 3.274497             -0.961496            -5.774441
| 46>   H                    : 4.520300             0.267564             -5.941169
| 47> *
| 48>
| 49> #Run DFT-D3 single point of the particle with dimer basis set
| 50> $new_job
| 51> %base "19-57_DFT_B"
| 52> ! wB97X-D3 def2-TZVP TIGHTSCF CHELPG PMODEL
| 53>
| 54> %scf
| 55> MaxIter 1000
| 56> end
| 57>
| 58> * xyz 0 1
| 59>   C                    : 7.735640             -3.628557            -5.394134
| 60>   O                    : 6.374040             -3.628548            -5.142410
| 61>   H                    : 5.933957             -4.477045            -5.105908
| 62>   H                    : 8.304852             -3.877057            -4.570331
| 63>   H                    : 7.857922             -4.475036            -6.074864
| 64>   H                    : 8.076524             -2.769222            -5.967372
| 65>   C                      3.771082             -0.084111            -5.364219
| 66>   O                      2.789198             0.944553             -5.009210
| 67>   H                      2.732328             1.510619             -5.748746
| 68>   H                      4.269562             -0.378328            -4.423374
| 69>   H                      3.274497             -0.961496            -5.774441
| 70>   H                      4.520300             0.267564             -5.941169
| 71> *
| 72>
| 73>                          ****END OF INPUT****
 Total Charge           Charge          ....    0
 Multiplicity           Mult            ....    1
 Number of Electrons    NEL             ....   36
Dispersion correction           -0.000779942
FINAL SINGLE POINT ENERGY      -231.454917724796
Dispersion correction           -0.000222511
FINAL SINGLE POINT ENERGY      -115.725295985863

CARTESIAN COORDINATES (ANGSTROEM)
---------------------------------
  C      7.735640   -3.628557   -5.394134
  O      6.374040   -3.628548   -5.142410
  H      5.933957   -4.477045   -5.105908
  H      8.304852   -3.877057   -4.570331
  H      7.857922   -4.475036   -6.074864
  H      8.076524   -2.769222   -5.967372
  C      3.771082   -0.084111   -5.364219
  O      2.789198    0.944553   -5.009210
  H      2.732328    1.510619   -5.748746
  H      4.269562   -0.378328   -4.423374
  H      3.274497   -0.961496   -5.774441
  H      4.520300    0.267564   -5.941169

 Multiplicity           Mult            ....    1
 Number of Electrons    NEL             ....   18
 Basis Dimension        Dim             ....  172

ORBITAL ENERGIES
----------------

  NO   OCC          E(Eh)            E(eV)
   0   2.0000     -19.225837      -523.1616
   1   2.0000     -10.308085      -280.4972
   2   2.0000      -1.126659       -30.6580
   3   2.0000      -0.805876       -21.9290
   4   2.0000      -0.608219       -16.5505
   5   2.0000      -0.545974       -14.8567
   6   2.0000      -0.515778       -14.0350
   7   2.0000      -0.441530       -12.0146
   8   2.0000      -0.377142       -10.2626
   9   0.0000       0.082143         2.2352
  10   0.0000       0.119552         3.2532
  11   0.0000       0.142450         3.8763
  12   0.0000       0.164667         4.4808
  13   0.0000       0.191692         5.2162

MULLIKEN ATOMIC CHARGES
-----------------------
   0 C :   -0.000005
   1 O :    0.000028
   2 H :   -0.000011
   3 H :    0.000000
   4 H :   -0.000002
   5 H :   -0.000005
   6 C :   -0.176144
   7 O :   -0.476020
   8 H :    0.305076
   9 H :    0.115092
  10 H :    0.109848
  11 H :    0.122144
Sum of atomic charges:   -0.0000000

LOEWDIN ATOMIC CHARGES
----------------------
   0 C :   -0.000029
   1 O :   -0.000065
   2 H :   -0.000013
   3 H :   -0.000000
   4 H :   -0.000001
   5 H :   -0.000007
   6 C :   -0.334761
   7 O :   -0.098906
   8 H :    0.145126
   9 H :    0.112297
  10 H :    0.099149
  11 H :    0.077209

  Mayer bond orders larger than 0.1
B(  6-C ,  7-O ) :   1.0002 B(  6-C ,  9-H ) :   0.9783 B(  6-C , 10-H ) :   0.9758
B(  6-C , 11-H ) :   0.9759 B(  7-O ,  8-H ) :   0.9118

Dispersion correction           -0.000247342
FINAL SINGLE POINT ENERGY      -115.728720565822

DIPOLE MOMENT
-------------
                                X             Y             Z
Electronic contribution:     -1.18092       1.22463       0.38769
Nuclear contribution   :      1.59679      -1.28480      -1.01573
                        -----------------------------------------
Total Dipole Moment    :      0.41588      -0.06016      -0.62804
                        -----------------------------------------
Magnitude (a.u.)       :      0.75565
Magnitude (Debye)      :      1.92072

Rotational constants in cm-1:     4.459174     0.789595     0.770892
Rotational constants in MHz : 133682.664338 23671.452484 23110.758011

                             ****ORCA TERMINATED NORMALLY****
TOTAL RUN TIME: 0 days 0 hours 0 minutes 48 seconds 189 msec
