                         Program Version 4.1.2  - RELEASE  -
|  1> #Run DFT-D3 single point of the dimer
|  2> ! wB97X-D3 def2-TZVP TIGHTSCF CHELPG PMODEL PAL8
|  3>
|  4> %base "14-14_DFT_AB"
|  5>
|  6> %scf
|  7> MaxIter 1000
|  8> end
|  9>
| 10> * xyz 0 1
| 11>   C                      -9.672709            4.006744             2.552932
| 12>   O                      -10.300829           4.988320             3.368327
| 13>   H                      -10.582800           4.429678             4.110281
| 14>   H                      -10.532027           3.583830             1.937451
| 15>   H                      -9.091793            4.425824             1.762786
| 16>   H                      -9.184682            3.240365             3.147805
| 17>   C                      -10.432728           7.507558             0.481105
| 18>   O                      -10.860624           7.538579             1.826506
| 19>   H                      -10.770082           6.687326             2.246959
| 20>   H                      -9.368718            7.587184             0.377033
| 21>   H                      -10.634697           6.557729             0.006045
| 22>   H                      -10.856603           8.397694             0.001077
| 23> *
| 24>
| 25> #Run DFT-D3 single point of the molecule with dimer basis set
| 26> $new_job
| 27> %base "14-14_DFT_A"
| 28> ! wB97X-D3 def2-TZVP TIGHTSCF CHELPG PMODEL
| 29>
| 30> %scf
| 31> MaxIter 1000
| 32> end
| 33>
| 34> * xyz 0 1
| 35>   C                      -9.672709            4.006744             2.552932
| 36>   O                      -10.300829           4.988320             3.368327
| 37>   H                      -10.582800           4.429678             4.110281
| 38>   H                      -10.532027           3.583830             1.937451
| 39>   H                      -9.091793            4.425824             1.762786
| 40>   H                      -9.184682            3.240365             3.147805
| 41>   C                    : -10.432728           7.507558             0.481105
| 42>   O                    : -10.860624           7.538579             1.826506
| 43>   H                    : -10.770082           6.687326             2.246959
| 44>   H                    : -9.368718            7.587184             0.377033
| 45>   H                    : -10.634697           6.557729             0.006045
| 46>   H                    : -10.856603           8.397694             0.001077
| 47> *
| 48>
| 49> #Run DFT-D3 single point of the particle with dimer basis set
| 50> $new_job
| 51> %base "14-14_DFT_B"
| 52> ! wB97X-D3 def2-TZVP TIGHTSCF CHELPG PMODEL
| 53>
| 54> %scf
| 55> MaxIter 1000
| 56> end
| 57>
| 58> * xyz 0 1
| 59>   C                    : -9.672709            4.006744             2.552932
| 60>   O                    : -10.300829           4.988320             3.368327
| 61>   H                    : -10.582800           4.429678             4.110281
| 62>   H                    : -10.532027           3.583830             1.937451
| 63>   H                    : -9.091793            4.425824             1.762786
| 64>   H                    : -9.184682            3.240365             3.147805
| 65>   C                      -10.432728           7.507558             0.481105
| 66>   O                      -10.860624           7.538579             1.826506
| 67>   H                      -10.770082           6.687326             2.246959
| 68>   H                      -9.368718            7.587184             0.377033
| 69>   H                      -10.634697           6.557729             0.006045
| 70>   H                      -10.856603           8.397694             0.001077
| 71> *
| 72>
| 73>                          ****END OF INPUT****
 Total Charge           Charge          ....    0
 Multiplicity           Mult            ....    1
 Number of Electrons    NEL             ....   36
Dispersion correction           -0.001827496
FINAL SINGLE POINT ENERGY      -231.468262716755
Dispersion correction           -0.000215645
FINAL SINGLE POINT ENERGY      -115.727533795578

CARTESIAN COORDINATES (ANGSTROEM)
---------------------------------
  C     -9.672709    4.006744    2.552932
  O    -10.300829    4.988320    3.368327
  H    -10.582800    4.429678    4.110281
  H    -10.532027    3.583830    1.937451
  H     -9.091793    4.425824    1.762786
  H     -9.184682    3.240365    3.147805
  C    -10.432728    7.507558    0.481105
  O    -10.860624    7.538579    1.826506
  H    -10.770082    6.687326    2.246959
  H     -9.368718    7.587184    0.377033
  H    -10.634697    6.557729    0.006045
  H    -10.856603    8.397694    0.001077

 Multiplicity           Mult            ....    1
 Number of Electrons    NEL             ....   18
 Basis Dimension        Dim             ....  172

ORBITAL ENERGIES
----------------

  NO   OCC          E(Eh)            E(eV)
   0   2.0000     -19.227522      -523.2075
   1   2.0000     -10.309720      -280.5417
   2   2.0000      -1.135052       -30.8863
   3   2.0000      -0.800300       -21.7773
   4   2.0000      -0.618993       -16.8437
   5   2.0000      -0.536395       -14.5960
   6   2.0000      -0.527291       -14.3483
   7   2.0000      -0.436746       -11.8845
   8   2.0000      -0.369896       -10.0654
   9   0.0000       0.067463         1.8358
  10   0.0000       0.134986         3.6731
  11   0.0000       0.144349         3.9279
  12   0.0000       0.176310         4.7976
  13   0.0000       0.181436         4.9371

MULLIKEN ATOMIC CHARGES
-----------------------
   0 C :   -0.005474
   1 O :   -0.000579
   2 H :   -0.000065
   3 H :    0.000422
   4 H :    0.000921
   5 H :   -0.000114
   6 C :   -0.153496
   7 O :   -0.479275
   8 H :    0.311058
   9 H :    0.098570
  10 H :    0.103628
  11 H :    0.124404
Sum of atomic charges:    0.0000000

LOEWDIN ATOMIC CHARGES
----------------------
   0 C :   -0.004381
   1 O :   -0.013284
   2 H :   -0.000534
   3 H :   -0.000187
   4 H :   -0.000594
   5 H :   -0.000100
   6 C :   -0.378935
   7 O :   -0.065427
   8 H :    0.168043
   9 H :    0.089409
  10 H :    0.093750
  11 H :    0.112240

  Mayer bond orders larger than 0.1
B(  6-C ,  7-O ) :   0.9881 B(  6-C ,  9-H ) :   0.9715 B(  6-C , 10-H ) :   0.9804
B(  6-C , 11-H ) :   0.9780 B(  7-O ,  8-H ) :   0.9083

Dispersion correction           -0.000242566
FINAL SINGLE POINT ENERGY      -115.734111204515

DIPOLE MOMENT
-------------
                                X             Y             Z
Electronic contribution:     -0.63754       0.14693       1.65748
Nuclear contribution   :      0.88124      -0.71387      -1.93177
                        -----------------------------------------
Total Dipole Moment    :      0.24371      -0.56694      -0.27429
                        -----------------------------------------
Magnitude (a.u.)       :      0.67531
Magnitude (Debye)      :      1.71651

Rotational constants in cm-1:     4.409030     0.839682     0.796386
Rotational constants in MHz : 132179.390494 25173.018367 23875.065422

                             ****ORCA TERMINATED NORMALLY****
TOTAL RUN TIME: 0 days 0 hours 1 minutes 9 seconds 420 msec
