                         Program Version 4.1.2  - RELEASE  -
|  1> #Run DFT-D3 single point of the dimer
|  2> ! wB97X-D3 def2-TZVP TIGHTSCF CHELPG PMODEL PAL8
|  3>
|  4> %base "9-70_DFT_AB"
|  5>
|  6> %scf
|  7> MaxIter 1000
|  8> end
|  9>
| 10> * xyz 0 1
| 11>   C                      -6.988085            5.917320             -1.756806
| 12>   O                      -5.841079            5.346315             -1.198149
| 13>   H                      -6.238028            4.725105             -0.596400
| 14>   H                      -7.469596            5.138823             -2.402609
| 15>   H                      -7.670168            6.304700             -1.043612
| 16>   H                      -6.732474            6.712058             -2.340388
| 17>   C                      -7.550475            9.806501             -0.603258
| 18>   O                      -7.865887            10.973173            -1.323224
| 19>   H                      -7.785045            10.780546            -2.221348
| 20>   H                      -6.566115            9.411658             -0.904041
| 21>   H                      -7.466330            9.899597             0.516049
| 22>   H                      -8.253710            8.914090             -0.880003
| 23> *
| 24>
| 25> #Run DFT-D3 single point of the molecule with dimer basis set
| 26> $new_job
| 27> %base "9-70_DFT_A"
| 28> ! wB97X-D3 def2-TZVP TIGHTSCF CHELPG PMODEL
| 29>
| 30> %scf
| 31> MaxIter 1000
| 32> end
| 33>
| 34> * xyz 0 1
| 35>   C                      -6.988085            5.917320             -1.756806
| 36>   O                      -5.841079            5.346315             -1.198149
| 37>   H                      -6.238028            4.725105             -0.596400
| 38>   H                      -7.469596            5.138823             -2.402609
| 39>   H                      -7.670168            6.304700             -1.043612
| 40>   H                      -6.732474            6.712058             -2.340388
| 41>   C                    : -7.550475            9.806501             -0.603258
| 42>   O                    : -7.865887            10.973173            -1.323224
| 43>   H                    : -7.785045            10.780546            -2.221348
| 44>   H                    : -6.566115            9.411658             -0.904041
| 45>   H                    : -7.466330            9.899597             0.516049
| 46>   H                    : -8.253710            8.914090             -0.880003
| 47> *
| 48>
| 49> #Run DFT-D3 single point of the particle with dimer basis set
| 50> $new_job
| 51> %base "9-70_DFT_B"
| 52> ! wB97X-D3 def2-TZVP TIGHTSCF CHELPG PMODEL
| 53>
| 54> %scf
| 55> MaxIter 1000
| 56> end
| 57>
| 58> * xyz 0 1
| 59>   C                    : -6.988085            5.917320             -1.756806
| 60>   O                    : -5.841079            5.346315             -1.198149
| 61>   H                    : -6.238028            4.725105             -0.596400
| 62>   H                    : -7.469596            5.138823             -2.402609
| 63>   H                    : -7.670168            6.304700             -1.043612
| 64>   H                    : -6.732474            6.712058             -2.340388
| 65>   C                      -7.550475            9.806501             -0.603258
| 66>   O                      -7.865887            10.973173            -1.323224
| 67>   H                      -7.785045            10.780546            -2.221348
| 68>   H                      -6.566115            9.411658             -0.904041
| 69>   H                      -7.466330            9.899597             0.516049
| 70>   H                      -8.253710            8.914090             -0.880003
| 71> *
| 72>
| 73>                          ****END OF INPUT****
 Total Charge           Charge          ....    0
 Multiplicity           Mult            ....    1
 Number of Electrons    NEL             ....   36
Dispersion correction           -0.001347163
FINAL SINGLE POINT ENERGY      -231.458163422079
Dispersion correction           -0.000197776
FINAL SINGLE POINT ENERGY      -115.729208796514

CARTESIAN COORDINATES (ANGSTROEM)
---------------------------------
  C     -6.988085    5.917320   -1.756806
  O     -5.841079    5.346315   -1.198149
  H     -6.238028    4.725105   -0.596400
  H     -7.469596    5.138823   -2.402609
  H     -7.670168    6.304700   -1.043612
  H     -6.732474    6.712058   -2.340388
  C     -7.550475    9.806501   -0.603258
  O     -7.865887   10.973173   -1.323224
  H     -7.785045   10.780546   -2.221348
  H     -6.566115    9.411658   -0.904041
  H     -7.466330    9.899597    0.516049
  H     -8.253710    8.914090   -0.880003

 Multiplicity           Mult            ....    1
 Number of Electrons    NEL             ....   18
 Basis Dimension        Dim             ....  172

ORBITAL ENERGIES
----------------

  NO   OCC          E(Eh)            E(eV)
   0   2.0000     -19.231192      -523.3073
   1   2.0000     -10.326935      -281.0102
   2   2.0000      -1.149323       -31.2747
   3   2.0000      -0.792463       -21.5640
   4   2.0000      -0.619516       -16.8579
   5   2.0000      -0.535260       -14.5652
   6   2.0000      -0.527440       -14.3524
   7   2.0000      -0.435043       -11.8381
   8   2.0000      -0.371512       -10.1093
   9   0.0000       0.081077         2.2062
  10   0.0000       0.117532         3.1982
  11   0.0000       0.148889         4.0515
  12   0.0000       0.170638         4.6433
  13   0.0000       0.177883         4.8404

MULLIKEN ATOMIC CHARGES
-----------------------
   0 C :   -0.000596
   1 O :    0.000057
   2 H :   -0.000007
   3 H :   -0.000169
   4 H :   -0.001573
   5 H :   -0.000102
   6 C :   -0.176956
   7 O :   -0.457734
   8 H :    0.311688
   9 H :    0.099865
  10 H :    0.128435
  11 H :    0.097093
Sum of atomic charges:    0.0000000

LOEWDIN ATOMIC CHARGES
----------------------
   0 C :   -0.003094
   1 O :   -0.000016
   2 H :   -0.000002
   3 H :   -0.000021
   4 H :   -0.002508
   5 H :   -0.000922
   6 C :   -0.404270
   7 O :   -0.050261
   8 H :    0.147119
   9 H :    0.092882
  10 H :    0.115573
  11 H :    0.105520

  Mayer bond orders larger than 0.1
B(  6-C ,  7-O ) :   0.9975 B(  6-C ,  9-H ) :   0.9780 B(  6-C , 10-H ) :   0.9653
B(  6-C , 11-H ) :   0.9746 B(  7-O ,  8-H ) :   0.9051

Dispersion correction           -0.000254438
FINAL SINGLE POINT ENERGY      -115.728255073452

DIPOLE MOMENT
-------------
                                X             Y             Z
Electronic contribution:     -0.48459       1.80374      -0.76326
Nuclear contribution   :      0.69580      -2.35786       0.46152
                        -----------------------------------------
Total Dipole Moment    :      0.21122      -0.55413      -0.30174
                        -----------------------------------------
Magnitude (a.u.)       :      0.66537
Magnitude (Debye)      :      1.69123

Rotational constants in cm-1:     4.246850     0.824215     0.791022
Rotational constants in MHz : 127317.356269 24709.333870 23714.254037

                             ****ORCA TERMINATED NORMALLY****
TOTAL RUN TIME: 0 days 0 hours 0 minutes 42 seconds 907 msec
