                         Program Version 4.1.2  - RELEASE  -
|  1> #Run DFT-D3 single point of the dimer
|  2> ! wB97X-D3 def2-TZVP TIGHTSCF CHELPG PMODEL PAL8
|  3>
|  4> %base "21-158_DFT_AB"
|  5>
|  6> %scf
|  7> MaxIter 1000
|  8> end
|  9>
| 10> * xyz 0 1
| 11>   C                      -0.845752            -4.625808            -7.298877
| 12>   O                      -0.258401            -5.656409            -6.488654
| 13>   H                      0.575226             -5.883692            -6.900623
| 14>   H                      -1.613276            -4.003032            -6.829456
| 15>   H                      -0.048464            -3.907346            -7.509188
| 16>   H                      -1.266563            -5.129477            -8.193426
| 17>   C                      3.613948             -6.210664            -5.931045
| 18>   O                      2.708415             -6.137613            -7.009225
| 19>   H                      3.023668             -5.348416            -7.442372
| 20>   H                      3.590139             -5.380667            -5.288021
| 21>   H                      3.358041             -7.056991            -5.250480
| 22>   H                      4.647743             -6.437943            -6.131150
| 23> *
| 24>
| 25> #Run DFT-D3 single point of the molecule with dimer basis set
| 26> $new_job
| 27> %base "21-158_DFT_A"
| 28> ! wB97X-D3 def2-TZVP TIGHTSCF CHELPG PMODEL
| 29>
| 30> %scf
| 31> MaxIter 1000
| 32> end
| 33>
| 34> * xyz 0 1
| 35>   C                      -0.845752            -4.625808            -7.298877
| 36>   O                      -0.258401            -5.656409            -6.488654
| 37>   H                      0.575226             -5.883692            -6.900623
| 38>   H                      -1.613276            -4.003032            -6.829456
| 39>   H                      -0.048464            -3.907346            -7.509188
| 40>   H                      -1.266563            -5.129477            -8.193426
| 41>   C                    : 3.613948             -6.210664            -5.931045
| 42>   O                    : 2.708415             -6.137613            -7.009225
| 43>   H                    : 3.023668             -5.348416            -7.442372
| 44>   H                    : 3.590139             -5.380667            -5.288021
| 45>   H                    : 3.358041             -7.056991            -5.250480
| 46>   H                    : 4.647743             -6.437943            -6.131150
| 47> *
| 48>
| 49> #Run DFT-D3 single point of the particle with dimer basis set
| 50> $new_job
| 51> %base "21-158_DFT_B"
| 52> ! wB97X-D3 def2-TZVP TIGHTSCF CHELPG PMODEL
| 53>
| 54> %scf
| 55> MaxIter 1000
| 56> end
| 57>
| 58> * xyz 0 1
| 59>   C                    : -0.845752            -4.625808            -7.298877
| 60>   O                    : -0.258401            -5.656409            -6.488654
| 61>   H                    : 0.575226             -5.883692            -6.900623
| 62>   H                    : -1.613276            -4.003032            -6.829456
| 63>   H                    : -0.048464            -3.907346            -7.509188
| 64>   H                    : -1.266563            -5.129477            -8.193426
| 65>   C                      3.613948             -6.210664            -5.931045
| 66>   O                      2.708415             -6.137613            -7.009225
| 67>   H                      3.023668             -5.348416            -7.442372
| 68>   H                      3.590139             -5.380667            -5.288021
| 69>   H                      3.358041             -7.056991            -5.250480
| 70>   H                      4.647743             -6.437943            -6.131150
| 71> *
| 72>
| 73>                          ****END OF INPUT****
 Total Charge           Charge          ....    0
 Multiplicity           Mult            ....    1
 Number of Electrons    NEL             ....   36
Dispersion correction           -0.001536234
FINAL SINGLE POINT ENERGY      -231.468145947939
Dispersion correction           -0.000233924
FINAL SINGLE POINT ENERGY      -115.731574822877

CARTESIAN COORDINATES (ANGSTROEM)
---------------------------------
  C     -0.845752   -4.625808   -7.298877
  O     -0.258401   -5.656409   -6.488654
  H      0.575226   -5.883692   -6.900623
  H     -1.613276   -4.003032   -6.829456
  H     -0.048464   -3.907346   -7.509188
  H     -1.266563   -5.129477   -8.193426
  C      3.613948   -6.210664   -5.931045
  O      2.708415   -6.137613   -7.009225
  H      3.023668   -5.348416   -7.442372
  H      3.590139   -5.380667   -5.288021
  H      3.358041   -7.056991   -5.250480
  H      4.647743   -6.437943   -6.131150

 Multiplicity           Mult            ....    1
 Number of Electrons    NEL             ....   18
 Basis Dimension        Dim             ....  172

ORBITAL ENERGIES
----------------

  NO   OCC          E(Eh)            E(eV)
   0   2.0000     -19.238402      -523.5035
   1   2.0000     -10.308032      -280.4958
   2   2.0000      -1.146999       -31.2114
   3   2.0000      -0.800330       -21.7781
   4   2.0000      -0.615500       -16.7486
   5   2.0000      -0.548263       -14.9190
   6   2.0000      -0.525295       -14.2940
   7   2.0000      -0.437959       -11.9175
   8   2.0000      -0.381273       -10.3750
   9   0.0000       0.094352         2.5674
  10   0.0000       0.124821         3.3965
  11   0.0000       0.151220         4.1149
  12   0.0000       0.186502         5.0750
  13   0.0000       0.203557         5.5391

MULLIKEN ATOMIC CHARGES
-----------------------
   0 C :    0.000530
   1 O :   -0.001925
   2 H :   -0.005391
   3 H :   -0.000109
   4 H :   -0.001908
   5 H :   -0.000031
   6 C :   -0.185717
   7 O :   -0.449404
   8 H :    0.315112
   9 H :    0.110640
  10 H :    0.114125
  11 H :    0.104078
Sum of atomic charges:   -0.0000000

LOEWDIN ATOMIC CHARGES
----------------------
   0 C :   -0.001380
   1 O :   -0.003892
   2 H :   -0.028141
   3 H :   -0.000014
   4 H :   -0.000670
   5 H :   -0.000014
   6 C :   -0.399838
   7 O :   -0.032944
   8 H :    0.172294
   9 H :    0.086231
  10 H :    0.115204
  11 H :    0.093163

  Mayer bond orders larger than 0.1
B(  6-C ,  7-O ) :   0.9997 B(  6-C ,  9-H ) :   0.9780 B(  6-C , 10-H ) :   0.9800
B(  6-C , 11-H ) :   0.9663 B(  7-O ,  8-H ) :   0.9015

Dispersion correction           -0.000237771
FINAL SINGLE POINT ENERGY      -115.730495639136

DIPOLE MOMENT
-------------
                                X             Y             Z
Electronic contribution:     -1.27455       0.08354      -1.53565
Nuclear contribution   :      1.82432       0.37073       1.69439
                        -----------------------------------------
Total Dipole Moment    :      0.54977       0.45427       0.15874
                        -----------------------------------------
Magnitude (a.u.)       :      0.73062
Magnitude (Debye)      :      1.85709

Rotational constants in cm-1:     4.532060     0.830977     0.800865
Rotational constants in MHz : 135867.748232 24912.050079 24009.331189

                             ****ORCA TERMINATED NORMALLY****
TOTAL RUN TIME: 0 days 0 hours 1 minutes 7 seconds 724 msec
