                         Program Version 4.1.2  - RELEASE  -
|  1> #Run DFT-D3 single point of the dimer
|  2> ! wB97X-D3 def2-TZVP TIGHTSCF CHELPG PMODEL PAL8
|  3>
|  4> %base "17-209_DFT_AB"
|  5>
|  6> %scf
|  7> MaxIter 1000
|  8> end
|  9>
| 10> * xyz 0 1
| 11>   C                      -3.840516            6.419156             9.050086
| 12>   O                      -2.822260            7.008458             9.827064
| 13>   H                      -2.611627            7.818419             9.373296
| 14>   H                      -4.766769            6.923624             9.369060
| 15>   H                      -3.670197            6.578717             7.996168
| 16>   H                      -3.963812            5.351886             9.283087
| 17>   C                      -2.206839            11.143537            9.056839
| 18>   O                      -2.406060            9.803475             8.830224
| 19>   H                      -1.882324            9.737917             8.026634
| 20>   H                      -2.641944            11.768081            8.339608
| 21>   H                      -2.710255            11.513224            9.953932
| 22>   H                      -1.179154            11.479253            9.044931
| 23> *
| 24>
| 25> #Run DFT-D3 single point of the molecule with dimer basis set
| 26> $new_job
| 27> %base "17-209_DFT_A"
| 28> ! wB97X-D3 def2-TZVP TIGHTSCF CHELPG PMODEL
| 29>
| 30> %scf
| 31> MaxIter 1000
| 32> end
| 33>
| 34> * xyz 0 1
| 35>   C                      -3.840516            6.419156             9.050086
| 36>   O                      -2.822260            7.008458             9.827064
| 37>   H                      -2.611627            7.818419             9.373296
| 38>   H                      -4.766769            6.923624             9.369060
| 39>   H                      -3.670197            6.578717             7.996168
| 40>   H                      -3.963812            5.351886             9.283087
| 41>   C                    : -2.206839            11.143537            9.056839
| 42>   O                    : -2.406060            9.803475             8.830224
| 43>   H                    : -1.882324            9.737917             8.026634
| 44>   H                    : -2.641944            11.768081            8.339608
| 45>   H                    : -2.710255            11.513224            9.953932
| 46>   H                    : -1.179154            11.479253            9.044931
| 47> *
| 48>
| 49> #Run DFT-D3 single point of the particle with dimer basis set
| 50> $new_job
| 51> %base "17-209_DFT_B"
| 52> ! wB97X-D3 def2-TZVP TIGHTSCF CHELPG PMODEL
| 53>
| 54> %scf
| 55> MaxIter 1000
| 56> end
| 57>
| 58> * xyz 0 1
| 59>   C                    : -3.840516            6.419156             9.050086
| 60>   O                    : -2.822260            7.008458             9.827064
| 61>   H                    : -2.611627            7.818419             9.373296
| 62>   H                    : -4.766769            6.923624             9.369060
| 63>   H                    : -3.670197            6.578717             7.996168
| 64>   H                    : -3.963812            5.351886             9.283087
| 65>   C                      -2.206839            11.143537            9.056839
| 66>   O                      -2.406060            9.803475             8.830224
| 67>   H                      -1.882324            9.737917             8.026634
| 68>   H                      -2.641944            11.768081            8.339608
| 69>   H                      -2.710255            11.513224            9.953932
| 70>   H                      -1.179154            11.479253            9.044931
| 71> *
| 72>
| 73>                          ****END OF INPUT****
 Total Charge           Charge          ....    0
 Multiplicity           Mult            ....    1
 Number of Electrons    NEL             ....   36
Dispersion correction           -0.001377263
FINAL SINGLE POINT ENERGY      -231.466402732014
Dispersion correction           -0.000214669
FINAL SINGLE POINT ENERGY      -115.734302909089

CARTESIAN COORDINATES (ANGSTROEM)
---------------------------------
  C     -3.840516    6.419156    9.050086
  O     -2.822260    7.008458    9.827064
  H     -2.611627    7.818419    9.373296
  H     -4.766769    6.923624    9.369060
  H     -3.670197    6.578717    7.996168
  H     -3.963812    5.351886    9.283087
  C     -2.206839   11.143537    9.056839
  O     -2.406060    9.803475    8.830224
  H     -1.882324    9.737917    8.026634
  H     -2.641944   11.768081    8.339608
  H     -2.710255   11.513224    9.953932
  H     -1.179154   11.479253    9.044931

 Multiplicity           Mult            ....    1
 Number of Electrons    NEL             ....   18
 Basis Dimension        Dim             ....  172

ORBITAL ENERGIES
----------------

  NO   OCC          E(Eh)            E(eV)
   0   2.0000     -19.238010      -523.4929
   1   2.0000     -10.303049      -280.3602
   2   2.0000      -1.159629       -31.5551
   3   2.0000      -0.798023       -21.7153
   4   2.0000      -0.624784       -17.0012
   5   2.0000      -0.548039       -14.9129
   6   2.0000      -0.532199       -14.4819
   7   2.0000      -0.445244       -12.1157
   8   2.0000      -0.373573       -10.1654
   9   0.0000       0.098771         2.6877
  10   0.0000       0.121108         3.2955
  11   0.0000       0.156959         4.2711
  12   0.0000       0.193908         5.2765
  13   0.0000       0.206341         5.6148

MULLIKEN ATOMIC CHARGES
-----------------------
   0 C :    0.001513
   1 O :    0.001403
   2 H :   -0.014104
   3 H :   -0.000652
   4 H :   -0.000800
   5 H :   -0.000123
   6 C :   -0.181520
   7 O :   -0.432902
   8 H :    0.317414
   9 H :    0.099610
  10 H :    0.112279
  11 H :    0.097881
Sum of atomic charges:    0.0000000

LOEWDIN ATOMIC CHARGES
----------------------
   0 C :   -0.002298
   1 O :   -0.003448
   2 H :   -0.030734
   3 H :   -0.000220
   4 H :   -0.000321
   5 H :   -0.000035
   6 C :   -0.425741
   7 O :   -0.009317
   8 H :    0.185358
   9 H :    0.084826
  10 H :    0.109665
  11 H :    0.092265

  Mayer bond orders larger than 0.1
B(  6-C ,  7-O ) :   1.0046 B(  6-C ,  9-H ) :   0.9721 B(  6-C , 10-H ) :   0.9799
B(  6-C , 11-H ) :   0.9792 B(  7-O ,  8-H ) :   0.8974

Dispersion correction           -0.000201577
FINAL SINGLE POINT ENERGY      -115.726713314247

DIPOLE MOMENT
-------------
                                X             Y             Z
Electronic contribution:     -0.33724      -1.96996      -0.14548
Nuclear contribution   :      0.71089       2.43903      -0.28380
                        -----------------------------------------
Total Dipole Moment    :      0.37365       0.46907      -0.42928
                        -----------------------------------------
Magnitude (a.u.)       :      0.73751
Magnitude (Debye)      :      1.87461

Rotational constants in cm-1:     4.517010     0.881530     0.834991
Rotational constants in MHz : 135416.544336 26427.601172 25032.393457

                             ****ORCA TERMINATED NORMALLY****
TOTAL RUN TIME: 0 days 0 hours 1 minutes 9 seconds 881 msec
