                         Program Version 4.1.2  - RELEASE  -
|  1> #Run DFT-D3 single point of the dimer
|  2> ! wB97X-D3 def2-TZVP TIGHTSCF CHELPG PMODEL PAL8
|  3>
|  4> %base "15-8_DFT_AB"
|  5>
|  6> %scf
|  7> MaxIter 1000
|  8> end
|  9>
| 10> * xyz 0 1
| 11>   C                      -6.481891            -7.877271            7.250222
| 12>   O                      -6.198547            -6.565036            6.837370
| 13>   H                      -6.806889            -6.005382            7.336781
| 14>   H                      -7.552956            -8.073217            7.112625
| 15>   H                      -5.784904            -8.580147            6.772301
| 16>   H                      -6.373916            -7.930089            8.316778
| 17>   C                      -6.205235            -5.088440            10.576713
| 18>   O                      -6.343179            -5.139789            11.962732
| 19>   H                      -6.220725            -6.043699            12.271048
| 20>   H                      -6.748537            -4.227246            10.048095
| 21>   H                      -5.131555            -5.061999            10.238844
| 22>   H                      -6.740164            -5.988617            10.127083
| 23> *
| 24>
| 25> #Run DFT-D3 single point of the molecule with dimer basis set
| 26> $new_job
| 27> %base "15-8_DFT_A"
| 28> ! wB97X-D3 def2-TZVP TIGHTSCF CHELPG PMODEL
| 29>
| 30> %scf
| 31> MaxIter 1000
| 32> end
| 33>
| 34> * xyz 0 1
| 35>   C                      -6.481891            -7.877271            7.250222
| 36>   O                      -6.198547            -6.565036            6.837370
| 37>   H                      -6.806889            -6.005382            7.336781
| 38>   H                      -7.552956            -8.073217            7.112625
| 39>   H                      -5.784904            -8.580147            6.772301
| 40>   H                      -6.373916            -7.930089            8.316778
| 41>   C                    : -6.205235            -5.088440            10.576713
| 42>   O                    : -6.343179            -5.139789            11.962732
| 43>   H                    : -6.220725            -6.043699            12.271048
| 44>   H                    : -6.748537            -4.227246            10.048095
| 45>   H                    : -5.131555            -5.061999            10.238844
| 46>   H                    : -6.740164            -5.988617            10.127083
| 47> *
| 48>
| 49> #Run DFT-D3 single point of the particle with dimer basis set
| 50> $new_job
| 51> %base "15-8_DFT_B"
| 52> ! wB97X-D3 def2-TZVP TIGHTSCF CHELPG PMODEL
| 53>
| 54> %scf
| 55> MaxIter 1000
| 56> end
| 57>
| 58> * xyz 0 1
| 59>   C                    : -6.481891            -7.877271            7.250222
| 60>   O                    : -6.198547            -6.565036            6.837370
| 61>   H                    : -6.806889            -6.005382            7.336781
| 62>   H                    : -7.552956            -8.073217            7.112625
| 63>   H                    : -5.784904            -8.580147            6.772301
| 64>   H                    : -6.373916            -7.930089            8.316778
| 65>   C                      -6.205235            -5.088440            10.576713
| 66>   O                      -6.343179            -5.139789            11.962732
| 67>   H                      -6.220725            -6.043699            12.271048
| 68>   H                      -6.748537            -4.227246            10.048095
| 69>   H                      -5.131555            -5.061999            10.238844
| 70>   H                      -6.740164            -5.988617            10.127083
| 71> *
| 72>
| 73>                          ****END OF INPUT****
 Total Charge           Charge          ....    0
 Multiplicity           Mult            ....    1
 Number of Electrons    NEL             ....   36
Dispersion correction           -0.001485817
FINAL SINGLE POINT ENERGY      -231.464367826967
Dispersion correction           -0.000206335
FINAL SINGLE POINT ENERGY      -115.733359355334

CARTESIAN COORDINATES (ANGSTROEM)
---------------------------------
  C     -6.481891   -7.877271    7.250222
  O     -6.198547   -6.565036    6.837370
  H     -6.806889   -6.005382    7.336781
  H     -7.552956   -8.073217    7.112625
  H     -5.784904   -8.580147    6.772301
  H     -6.373916   -7.930089    8.316778
  C     -6.205235   -5.088440   10.576713
  O     -6.343179   -5.139789   11.962732
  H     -6.220725   -6.043699   12.271048
  H     -6.748537   -4.227246   10.048095
  H     -5.131555   -5.061999   10.238844
  H     -6.740164   -5.988617   10.127083

 Multiplicity           Mult            ....    1
 Number of Electrons    NEL             ....   18
 Basis Dimension        Dim             ....  172

ORBITAL ENERGIES
----------------

  NO   OCC          E(Eh)            E(eV)
   0   2.0000     -19.232894      -523.3537
   1   2.0000     -10.325969      -280.9839
   2   2.0000      -1.142983       -31.1021
   3   2.0000      -0.786590       -21.4042
   4   2.0000      -0.612786       -16.6747
   5   2.0000      -0.542285       -14.7563
   6   2.0000      -0.527899       -14.3649
   7   2.0000      -0.419192       -11.4068
   8   2.0000      -0.374525       -10.1914
   9   0.0000       0.081764         2.2249
  10   0.0000       0.114999         3.1293
  11   0.0000       0.141541         3.8515
  12   0.0000       0.180185         4.9031
  13   0.0000       0.182315         4.9611

MULLIKEN ATOMIC CHARGES
-----------------------
   0 C :    0.000553
   1 O :    0.000153
   2 H :   -0.000915
   3 H :   -0.000048
   4 H :   -0.000048
   5 H :   -0.001451
   6 C :   -0.169230
   7 O :   -0.467440
   8 H :    0.322767
   9 H :    0.117028
  10 H :    0.101332
  11 H :    0.097300
Sum of atomic charges:   -0.0000000

LOEWDIN ATOMIC CHARGES
----------------------
   0 C :   -0.001988
   1 O :   -0.000197
   2 H :   -0.001522
   3 H :   -0.000036
   4 H :   -0.000014
   5 H :   -0.002564
   6 C :   -0.420353
   7 O :   -0.064553
   8 H :    0.174587
   9 H :    0.115610
  10 H :    0.098084
  11 H :    0.102947

  Mayer bond orders larger than 0.1
B(  6-C ,  7-O ) :   1.0075 B(  6-C ,  9-H ) :   0.9655 B(  6-C , 10-H ) :   0.9680
B(  6-C , 11-H ) :   0.9876 B(  7-O ,  8-H ) :   0.8919

Dispersion correction           -0.000259842
FINAL SINGLE POINT ENERGY      -115.730258714279

DIPOLE MOMENT
-------------
                                X             Y             Z
Electronic contribution:     -0.13392       0.13381       1.95798
Nuclear contribution   :      0.24103      -0.69743      -2.27682
                        -----------------------------------------
Total Dipole Moment    :      0.10711      -0.56362      -0.31884
                        -----------------------------------------
Magnitude (a.u.)       :      0.65635
Magnitude (Debye)      :      1.66831

Rotational constants in cm-1:     4.149170     0.826912     0.806573
Rotational constants in MHz : 124388.991064 24790.196506 24180.454410

                             ****ORCA TERMINATED NORMALLY****
TOTAL RUN TIME: 0 days 0 hours 1 minutes 4 seconds 678 msec
