                         Program Version 4.1.2  - RELEASE  -
|  1> #Run DFT-D3 single point of the dimer
|  2> ! wB97X-D3 def2-TZVP TIGHTSCF CHELPG PMODEL PAL8
|  3>
|  4> %base "7-130_DFT_AB"
|  5>
|  6> %scf
|  7> MaxIter 1000
|  8> end
|  9>
| 10> * xyz 0 1
| 11>   C                      -4.463582            -1.354472            0.559463
| 12>   O                      -5.340438            -2.213762            -0.128602
| 13>   H                      -6.211150            -1.951602            -0.000589
| 14>   H                      -4.627158            -1.465617            1.596524
| 15>   H                      -3.468846            -1.728514            0.454134
| 16>   H                      -4.436178            -0.307758            0.291256
| 17>   C                      -6.765205            1.697143             0.374729
| 18>   O                      -5.553797            1.993042             -0.275726
| 19>   H                      -4.852191            1.883917             0.424422
| 20>   H                      -7.021550            2.335747             1.241367
| 21>   H                      -7.545263            1.932627             -0.311194
| 22>   H                      -6.856817            0.635440             0.722618
| 23> *
| 24>
| 25> #Run DFT-D3 single point of the molecule with dimer basis set
| 26> $new_job
| 27> %base "7-130_DFT_A"
| 28> ! wB97X-D3 def2-TZVP TIGHTSCF CHELPG PMODEL
| 29>
| 30> %scf
| 31> MaxIter 1000
| 32> end
| 33>
| 34> * xyz 0 1
| 35>   C                      -4.463582            -1.354472            0.559463
| 36>   O                      -5.340438            -2.213762            -0.128602
| 37>   H                      -6.211150            -1.951602            -0.000589
| 38>   H                      -4.627158            -1.465617            1.596524
| 39>   H                      -3.468846            -1.728514            0.454134
| 40>   H                      -4.436178            -0.307758            0.291256
| 41>   C                    : -6.765205            1.697143             0.374729
| 42>   O                    : -5.553797            1.993042             -0.275726
| 43>   H                    : -4.852191            1.883917             0.424422
| 44>   H                    : -7.021550            2.335747             1.241367
| 45>   H                    : -7.545263            1.932627             -0.311194
| 46>   H                    : -6.856817            0.635440             0.722618
| 47> *
| 48>
| 49> #Run DFT-D3 single point of the particle with dimer basis set
| 50> $new_job
| 51> %base "7-130_DFT_B"
| 52> ! wB97X-D3 def2-TZVP TIGHTSCF CHELPG PMODEL
| 53>
| 54> %scf
| 55> MaxIter 1000
| 56> end
| 57>
| 58> * xyz 0 1
| 59>   C                    : -4.463582            -1.354472            0.559463
| 60>   O                    : -5.340438            -2.213762            -0.128602
| 61>   H                    : -6.211150            -1.951602            -0.000589
| 62>   H                    : -4.627158            -1.465617            1.596524
| 63>   H                    : -3.468846            -1.728514            0.454134
| 64>   H                    : -4.436178            -0.307758            0.291256
| 65>   C                      -6.765205            1.697143             0.374729
| 66>   O                      -5.553797            1.993042             -0.275726
| 67>   H                      -4.852191            1.883917             0.424422
| 68>   H                      -7.021550            2.335747             1.241367
| 69>   H                      -7.545263            1.932627             -0.311194
| 70>   H                      -6.856817            0.635440             0.722618
| 71> *
| 72>
| 73>                          ****END OF INPUT****
 Total Charge           Charge          ....    0
 Multiplicity           Mult            ....    1
 Number of Electrons    NEL             ....   36
Dispersion correction           -0.001970194
FINAL SINGLE POINT ENERGY      -231.466113277252
Dispersion correction           -0.000239403
FINAL SINGLE POINT ENERGY      -115.731693057286

CARTESIAN COORDINATES (ANGSTROEM)
---------------------------------
  C     -4.463582   -1.354472    0.559463
  O     -5.340438   -2.213762   -0.128602
  H     -6.211150   -1.951602   -0.000589
  H     -4.627158   -1.465617    1.596524
  H     -3.468846   -1.728514    0.454134
  H     -4.436178   -0.307758    0.291256
  C     -6.765205    1.697143    0.374729
  O     -5.553797    1.993042   -0.275726
  H     -4.852191    1.883917    0.424422
  H     -7.021550    2.335747    1.241367
  H     -7.545263    1.932627   -0.311194
  H     -6.856817    0.635440    0.722618

 Multiplicity           Mult            ....    1
 Number of Electrons    NEL             ....   18
 Basis Dimension        Dim             ....  172

ORBITAL ENERGIES
----------------

  NO   OCC          E(Eh)            E(eV)
   0   2.0000     -19.239684      -523.5384
   1   2.0000     -10.312607      -280.6203
   2   2.0000      -1.136382       -30.9225
   3   2.0000      -0.792455       -21.5638
   4   2.0000      -0.610081       -16.6012
   5   2.0000      -0.540868       -14.7178
   6   2.0000      -0.523980       -14.2582
   7   2.0000      -0.438221       -11.9246
   8   2.0000      -0.375616       -10.2210
   9   0.0000       0.080601         2.1933
  10   0.0000       0.126034         3.4295
  11   0.0000       0.145885         3.9697
  12   0.0000       0.172480         4.6934
  13   0.0000       0.190300         5.1783

MULLIKEN ATOMIC CHARGES
-----------------------
   0 C :    0.011715
   1 O :   -0.000350
   2 H :    0.000255
   3 H :   -0.000358
   4 H :   -0.000505
   5 H :   -0.022965
   6 C :   -0.176057
   7 O :   -0.453517
   8 H :    0.318555
   9 H :    0.103007
  10 H :    0.123791
  11 H :    0.096430
Sum of atomic charges:   -0.0000000

LOEWDIN ATOMIC CHARGES
----------------------
   0 C :   -0.005924
   1 O :   -0.000127
   2 H :   -0.001350
   3 H :   -0.000245
   4 H :   -0.000031
   5 H :   -0.010547
   6 C :   -0.402119
   7 O :   -0.071381
   8 H :    0.193212
   9 H :    0.095571
  10 H :    0.103317
  11 H :    0.099625

  Mayer bond orders larger than 0.1
B(  6-C ,  7-O ) :   1.0146 B(  6-C ,  9-H ) :   0.9743 B(  6-C , 10-H ) :   0.9774
B(  6-C , 11-H ) :   0.9686 B(  7-O ,  8-H ) :   0.8937

Dispersion correction           -0.000251375
FINAL SINGLE POINT ENERGY      -115.734116559720

DIPOLE MOMENT
-------------
                                X             Y             Z
Electronic contribution:      1.56708       0.40775      -1.03182
Nuclear contribution   :     -1.61751      -0.55295       1.68800
                        -----------------------------------------
Total Dipole Moment    :     -0.05043      -0.14520       0.65617
                        -----------------------------------------
Magnitude (a.u.)       :      0.67393
Magnitude (Debye)      :      1.71300

Rotational constants in cm-1:     4.255198     0.832228     0.802762
Rotational constants in MHz : 127567.623098 24949.560667 24066.186843

                             ****ORCA TERMINATED NORMALLY****
TOTAL RUN TIME: 0 days 0 hours 1 minutes 0 seconds 861 msec
