                         Program Version 4.1.2  - RELEASE  -
|  1> #Run DFT-D3 single point of the dimer
|  2> ! wB97X-D3 def2-TZVP TIGHTSCF CHELPG PMODEL PAL8
|  3>
|  4> %base "6-128_DFT_AB"
|  5>
|  6> %scf
|  7> MaxIter 1000
|  8> end
|  9>
| 10> * xyz 0 1
| 11>   C                      -1.936839            -7.101095            -2.876770
| 12>   O                      -3.061484            -6.946725            -2.043370
| 13>   H                      -3.335684            -6.055807            -2.122500
| 14>   H                      -1.004453            -6.991422            -2.356135
| 15>   H                      -1.884352            -8.095574            -3.432958
| 16>   H                      -1.945391            -6.367581            -3.715468
| 17>   C                      0.036738             -2.975285            -1.879113
| 18>   O                      -0.289875            -3.769806            -0.803203
| 19>   H                      -0.111579            -3.333165            0.069700
| 20>   H                      -0.020576            -3.523164            -2.818727
| 21>   H                      -0.692018            -2.146091            -1.976053
| 22>   H                      1.025757             -2.531572            -1.896348
| 23> *
| 24>
| 25> #Run DFT-D3 single point of the molecule with dimer basis set
| 26> $new_job
| 27> %base "6-128_DFT_A"
| 28> ! wB97X-D3 def2-TZVP TIGHTSCF CHELPG PMODEL
| 29>
| 30> %scf
| 31> MaxIter 1000
| 32> end
| 33>
| 34> * xyz 0 1
| 35>   C                      -1.936839            -7.101095            -2.876770
| 36>   O                      -3.061484            -6.946725            -2.043370
| 37>   H                      -3.335684            -6.055807            -2.122500
| 38>   H                      -1.004453            -6.991422            -2.356135
| 39>   H                      -1.884352            -8.095574            -3.432958
| 40>   H                      -1.945391            -6.367581            -3.715468
| 41>   C                    : 0.036738             -2.975285            -1.879113
| 42>   O                    : -0.289875            -3.769806            -0.803203
| 43>   H                    : -0.111579            -3.333165            0.069700
| 44>   H                    : -0.020576            -3.523164            -2.818727
| 45>   H                    : -0.692018            -2.146091            -1.976053
| 46>   H                    : 1.025757             -2.531572            -1.896348
| 47> *
| 48>
| 49> #Run DFT-D3 single point of the particle with dimer basis set
| 50> $new_job
| 51> %base "6-128_DFT_B"
| 52> ! wB97X-D3 def2-TZVP TIGHTSCF CHELPG PMODEL
| 53>
| 54> %scf
| 55> MaxIter 1000
| 56> end
| 57>
| 58> * xyz 0 1
| 59>   C                    : -1.936839            -7.101095            -2.876770
| 60>   O                    : -3.061484            -6.946725            -2.043370
| 61>   H                    : -3.335684            -6.055807            -2.122500
| 62>   H                    : -1.004453            -6.991422            -2.356135
| 63>   H                    : -1.884352            -8.095574            -3.432958
| 64>   H                    : -1.945391            -6.367581            -3.715468
| 65>   C                      0.036738             -2.975285            -1.879113
| 66>   O                      -0.289875            -3.769806            -0.803203
| 67>   H                      -0.111579            -3.333165            0.069700
| 68>   H                      -0.020576            -3.523164            -2.818727
| 69>   H                      -0.692018            -2.146091            -1.976053
| 70>   H                      1.025757             -2.531572            -1.896348
| 71> *
| 72>
| 73>                          ****END OF INPUT****
 Total Charge           Charge          ....    0
 Multiplicity           Mult            ....    1
 Number of Electrons    NEL             ....   36
Dispersion correction           -0.001140668
FINAL SINGLE POINT ENERGY      -231.466998081821
Dispersion correction           -0.000252825
FINAL SINGLE POINT ENERGY      -115.732312653419

CARTESIAN COORDINATES (ANGSTROEM)
---------------------------------
  C     -1.936839   -7.101095   -2.876770
  O     -3.061484   -6.946725   -2.043370
  H     -3.335684   -6.055807   -2.122500
  H     -1.004453   -6.991422   -2.356135
  H     -1.884352   -8.095574   -3.432958
  H     -1.945391   -6.367581   -3.715468
  C      0.036738   -2.975285   -1.879113
  O     -0.289875   -3.769806   -0.803203
  H     -0.111579   -3.333165    0.069700
  H     -0.020576   -3.523164   -2.818727
  H     -0.692018   -2.146091   -1.976053
  H      1.025757   -2.531572   -1.896348

 Multiplicity           Mult            ....    1
 Number of Electrons    NEL             ....   18
 Basis Dimension        Dim             ....  172

ORBITAL ENERGIES
----------------

  NO   OCC          E(Eh)            E(eV)
   0   2.0000     -19.233621      -523.3734
   1   2.0000     -10.309284      -280.5299
   2   2.0000      -1.140243       -31.0276
   3   2.0000      -0.794928       -21.6311
   4   2.0000      -0.617396       -16.8002
   5   2.0000      -0.542299       -14.7567
   6   2.0000      -0.531818       -14.4715
   7   2.0000      -0.424630       -11.5548
   8   2.0000      -0.370714       -10.0876
   9   0.0000       0.092706         2.5227
  10   0.0000       0.116983         3.1833
  11   0.0000       0.150904         4.1063
  12   0.0000       0.174529         4.7492
  13   0.0000       0.186645         5.0789

MULLIKEN ATOMIC CHARGES
-----------------------
   0 C :    0.000341
   1 O :    0.000035
   2 H :   -0.000387
   3 H :   -0.001396
   4 H :   -0.000034
   5 H :   -0.000228
   6 C :   -0.148193
   7 O :   -0.477187
   8 H :    0.321198
   9 H :    0.117481
  10 H :    0.090302
  11 H :    0.098070
Sum of atomic charges:    0.0000000

LOEWDIN ATOMIC CHARGES
----------------------
   0 C :   -0.000616
   1 O :   -0.000047
   2 H :   -0.000284
   3 H :   -0.000599
   4 H :   -0.000013
   5 H :   -0.000137
   6 C :   -0.419672
   7 O :   -0.061862
   8 H :    0.190661
   9 H :    0.108039
  10 H :    0.094205
  11 H :    0.090324

  Mayer bond orders larger than 0.1
B(  6-C ,  7-O ) :   1.0063 B(  6-C ,  9-H ) :   0.9715 B(  6-C , 10-H ) :   0.9830
B(  6-C , 11-H ) :   0.9718 B(  7-O ,  8-H ) :   0.8859

Dispersion correction           -0.000251975
FINAL SINGLE POINT ENERGY      -115.733555311361

DIPOLE MOMENT
-------------
                                X             Y             Z
Electronic contribution:     -0.39834      -1.21105       1.41857
Nuclear contribution   :      0.65436       1.78381      -1.27444
                        -----------------------------------------
Total Dipole Moment    :      0.25602       0.57276       0.14413
                        -----------------------------------------
Magnitude (a.u.)       :      0.64372
Magnitude (Debye)      :      1.63620

Rotational constants in cm-1:     4.429991     0.848823     0.821377
Rotational constants in MHz : 132807.785945 25447.066934 24624.269646

                             ****ORCA TERMINATED NORMALLY****
TOTAL RUN TIME: 0 days 0 hours 1 minutes 1 seconds 716 msec
