                         Program Version 4.1.2  - RELEASE  -
|  1> #Run DFT-D3 single point of the dimer
|  2> ! wB97X-D3 def2-TZVP TIGHTSCF CHELPG PMODEL PAL8
|  3>
|  4> %base "16-13_DFT_AB"
|  5>
|  6> %scf
|  7> MaxIter 1000
|  8> end
|  9>
| 10> * xyz 0 1
| 11>   C                      -9.460971            -5.850150            -9.983236
| 12>   O                      -8.591912            -6.718918            -10.686473
| 13>   H                      -8.695396            -7.506844            -10.221084
| 14>   H                      -10.460182           -6.178799            -10.083656
| 15>   H                      -9.193688            -5.917862            -8.911150
| 16>   H                      -9.460853            -4.773154            -10.286841
| 17>   C                      -6.482326            -3.038393            -5.791056
| 18>   O                      -6.057388            -3.289651            -4.501937
| 19>   H                      -5.902887            -2.445885            -4.129103
| 20>   H                      -5.685988            -2.839495            -6.488605
| 21>   H                      -7.109373            -3.769275            -6.260965
| 22>   H                      -7.041879            -2.097533            -5.741855
| 23> *
| 24>
| 25> #Run DFT-D3 single point of the molecule with dimer basis set
| 26> $new_job
| 27> %base "16-13_DFT_A"
| 28> ! wB97X-D3 def2-TZVP TIGHTSCF CHELPG PMODEL
| 29>
| 30> %scf
| 31> MaxIter 1000
| 32> end
| 33>
| 34> * xyz 0 1
| 35>   C                      -9.460971            -5.850150            -9.983236
| 36>   O                      -8.591912            -6.718918            -10.686473
| 37>   H                      -8.695396            -7.506844            -10.221084
| 38>   H                      -10.460182           -6.178799            -10.083656
| 39>   H                      -9.193688            -5.917862            -8.911150
| 40>   H                      -9.460853            -4.773154            -10.286841
| 41>   C                    : -6.482326            -3.038393            -5.791056
| 42>   O                    : -6.057388            -3.289651            -4.501937
| 43>   H                    : -5.902887            -2.445885            -4.129103
| 44>   H                    : -5.685988            -2.839495            -6.488605
| 45>   H                    : -7.109373            -3.769275            -6.260965
| 46>   H                    : -7.041879            -2.097533            -5.741855
| 47> *
| 48>
| 49> #Run DFT-D3 single point of the particle with dimer basis set
| 50> $new_job
| 51> %base "16-13_DFT_B"
| 52> ! wB97X-D3 def2-TZVP TIGHTSCF CHELPG PMODEL
| 53>
| 54> %scf
| 55> MaxIter 1000
| 56> end
| 57>
| 58> * xyz 0 1
| 59>   C                    : -9.460971            -5.850150            -9.983236
| 60>   O                    : -8.591912            -6.718918            -10.686473
| 61>   H                    : -8.695396            -7.506844            -10.221084
| 62>   H                    : -10.460182           -6.178799            -10.083656
| 63>   H                    : -9.193688            -5.917862            -8.911150
| 64>   H                    : -9.460853            -4.773154            -10.286841
| 65>   C                      -6.482326            -3.038393            -5.791056
| 66>   O                      -6.057388            -3.289651            -4.501937
| 67>   H                      -5.902887            -2.445885            -4.129103
| 68>   H                      -5.685988            -2.839495            -6.488605
| 69>   H                      -7.109373            -3.769275            -6.260965
| 70>   H                      -7.041879            -2.097533            -5.741855
| 71> *
| 72>
| 73>                          ****END OF INPUT****
 Total Charge           Charge          ....    0
 Multiplicity           Mult            ....    1
 Number of Electrons    NEL             ....   36
Dispersion correction           -0.000552888
FINAL SINGLE POINT ENERGY      -231.459956710596
Dispersion correction           -0.000213957
FINAL SINGLE POINT ENERGY      -115.729680079737

CARTESIAN COORDINATES (ANGSTROEM)
---------------------------------
  C     -9.460971   -5.850150   -9.983236
  O     -8.591912   -6.718918  -10.686473
  H     -8.695396   -7.506844  -10.221084
  H    -10.460182   -6.178799  -10.083656
  H     -9.193688   -5.917862   -8.911150
  H     -9.460853   -4.773154  -10.286841
  C     -6.482326   -3.038393   -5.791056
  O     -6.057388   -3.289651   -4.501937
  H     -5.902887   -2.445885   -4.129103
  H     -5.685988   -2.839495   -6.488605
  H     -7.109373   -3.769275   -6.260965
  H     -7.041879   -2.097533   -5.741855

 Multiplicity           Mult            ....    1
 Number of Electrons    NEL             ....   18
 Basis Dimension        Dim             ....  172

ORBITAL ENERGIES
----------------

  NO   OCC          E(Eh)            E(eV)
   0   2.0000     -19.228710      -523.2398
   1   2.0000     -10.306701      -280.4596
   2   2.0000      -1.154807       -31.4239
   3   2.0000      -0.798574       -21.7303
   4   2.0000      -0.622408       -16.9366
   5   2.0000      -0.544783       -14.8243
   6   2.0000      -0.541977       -14.7480
   7   2.0000      -0.432685       -11.7739
   8   2.0000      -0.371771       -10.1164
   9   0.0000       0.084905         2.3104
  10   0.0000       0.114430         3.1138
  11   0.0000       0.148950         4.0531
  12   0.0000       0.167732         4.5642
  13   0.0000       0.188469         5.1285

MULLIKEN ATOMIC CHARGES
-----------------------
   0 C :    0.000018
   1 O :   -0.000000
   2 H :   -0.000000
   3 H :   -0.000001
   4 H :   -0.000074
   5 H :   -0.000003
   6 C :   -0.167140
   7 O :   -0.457205
   8 H :    0.315535
   9 H :    0.094681
  10 H :    0.120997
  11 H :    0.093192
Sum of atomic charges:    0.0000000

LOEWDIN ATOMIC CHARGES
----------------------
   0 C :   -0.000024
   1 O :   -0.000001
   2 H :   -0.000000
   3 H :   -0.000000
   4 H :   -0.000068
   5 H :   -0.000002
   6 C :   -0.407395
   7 O :   -0.040297
   8 H :    0.160357
   9 H :    0.089186
  10 H :    0.101301
  11 H :    0.096943

  Mayer bond orders larger than 0.1
B(  6-C ,  7-O ) :   1.0081 B(  6-C ,  9-H ) :   0.9708 B(  6-C , 10-H ) :   0.9725
B(  6-C , 11-H ) :   0.9995 B(  7-O ,  8-H ) :   0.9037

Dispersion correction           -0.000212795
FINAL SINGLE POINT ENERGY      -115.730089466341

DIPOLE MOMENT
-------------
                                X             Y             Z
Electronic contribution:      0.56397      -0.64947       1.71166
Nuclear contribution   :     -0.63803       1.28973      -1.96033
                        -----------------------------------------
Total Dipole Moment    :     -0.07406       0.64026      -0.24867
                        -----------------------------------------
Magnitude (a.u.)       :      0.69084
Magnitude (Debye)      :      1.75596

Rotational constants in cm-1:     4.502891     0.868030     0.832857
Rotational constants in MHz : 134993.289663 26022.884608 24968.429361

                             ****ORCA TERMINATED NORMALLY****
TOTAL RUN TIME: 0 days 0 hours 0 minutes 59 seconds 88 msec
