                         Program Version 4.1.2  - RELEASE  -
|  1> #Run DFT-D3 single point of the dimer
|  2> ! wB97X-D3 def2-TZVP TIGHTSCF CHELPG PMODEL PAL8
|  3>
|  4> %base "8-104_DFT_AB"
|  5>
|  6> %scf
|  7> MaxIter 1000
|  8> end
|  9>
| 10> * xyz 0 1
| 11>   C                      -5.195719            -0.427144            9.365506
| 12>   O                      -6.124433            -1.080566            10.163934
| 13>   H                      -6.539004            -1.747450            9.631112
| 14>   H                      -5.596017            -0.049719            8.423426
| 15>   H                      -4.831508            0.366167             9.977338
| 16>   H                      -4.342301            -1.112926            9.156067
| 17>   C                      -7.273872            -3.024680            6.553169
| 18>   O                      -6.239401            -2.883706            7.473917
| 19>   H                      -5.431454            -2.715947            6.931784
| 20>   H                      -6.984350            -2.619578            5.576046
| 21>   H                      -7.474771            -4.030879            6.468822
| 22>   H                      -8.111445            -2.440006            6.788739
| 23> *
| 24>
| 25> #Run DFT-D3 single point of the molecule with dimer basis set
| 26> $new_job
| 27> %base "8-104_DFT_A"
| 28> ! wB97X-D3 def2-TZVP TIGHTSCF CHELPG PMODEL
| 29>
| 30> %scf
| 31> MaxIter 1000
| 32> end
| 33>
| 34> * xyz 0 1
| 35>   C                      -5.195719            -0.427144            9.365506
| 36>   O                      -6.124433            -1.080566            10.163934
| 37>   H                      -6.539004            -1.747450            9.631112
| 38>   H                      -5.596017            -0.049719            8.423426
| 39>   H                      -4.831508            0.366167             9.977338
| 40>   H                      -4.342301            -1.112926            9.156067
| 41>   C                    : -7.273872            -3.024680            6.553169
| 42>   O                    : -6.239401            -2.883706            7.473917
| 43>   H                    : -5.431454            -2.715947            6.931784
| 44>   H                    : -6.984350            -2.619578            5.576046
| 45>   H                    : -7.474771            -4.030879            6.468822
| 46>   H                    : -8.111445            -2.440006            6.788739
| 47> *
| 48>
| 49> #Run DFT-D3 single point of the particle with dimer basis set
| 50> $new_job
| 51> %base "8-104_DFT_B"
| 52> ! wB97X-D3 def2-TZVP TIGHTSCF CHELPG PMODEL
| 53>
| 54> %scf
| 55> MaxIter 1000
| 56> end
| 57>
| 58> * xyz 0 1
| 59>   C                    : -5.195719            -0.427144            9.365506
| 60>   O                    : -6.124433            -1.080566            10.163934
| 61>   H                    : -6.539004            -1.747450            9.631112
| 62>   H                    : -5.596017            -0.049719            8.423426
| 63>   H                    : -4.831508            0.366167             9.977338
| 64>   H                    : -4.342301            -1.112926            9.156067
| 65>   C                      -7.273872            -3.024680            6.553169
| 66>   O                      -6.239401            -2.883706            7.473917
| 67>   H                      -5.431454            -2.715947            6.931784
| 68>   H                      -6.984350            -2.619578            5.576046
| 69>   H                      -7.474771            -4.030879            6.468822
| 70>   H                      -8.111445            -2.440006            6.788739
| 71> *
| 72>
| 73>                          ****END OF INPUT****
 Total Charge           Charge          ....    0
 Multiplicity           Mult            ....    1
 Number of Electrons    NEL             ....   36
Dispersion correction           -0.001903834
FINAL SINGLE POINT ENERGY      -231.470186031136
Dispersion correction           -0.000220311
FINAL SINGLE POINT ENERGY      -115.735693197702

CARTESIAN COORDINATES (ANGSTROEM)
---------------------------------
  C     -5.195719   -0.427144    9.365506
  O     -6.124433   -1.080566   10.163934
  H     -6.539004   -1.747450    9.631112
  H     -5.596017   -0.049719    8.423426
  H     -4.831508    0.366167    9.977338
  H     -4.342301   -1.112926    9.156067
  C     -7.273872   -3.024680    6.553169
  O     -6.239401   -2.883706    7.473917
  H     -5.431454   -2.715947    6.931784
  H     -6.984350   -2.619578    5.576046
  H     -7.474771   -4.030879    6.468822
  H     -8.111445   -2.440006    6.788739

 Multiplicity           Mult            ....    1
 Number of Electrons    NEL             ....   18
 Basis Dimension        Dim             ....  172

ORBITAL ENERGIES
----------------

  NO   OCC          E(Eh)            E(eV)
   0   2.0000     -19.230458      -523.2874
   1   2.0000     -10.298462      -280.2354
   2   2.0000      -1.139255       -31.0007
   3   2.0000      -0.799002       -21.7420
   4   2.0000      -0.611791       -16.6477
   5   2.0000      -0.562701       -15.3119
   6   2.0000      -0.527148       -14.3444
   7   2.0000      -0.428936       -11.6719
   8   2.0000      -0.374901       -10.2016
   9   0.0000       0.091618         2.4931
  10   0.0000       0.126592         3.4447
  11   0.0000       0.157040         4.2733
  12   0.0000       0.181407         4.9363
  13   0.0000       0.200424         5.4538

MULLIKEN ATOMIC CHARGES
-----------------------
   0 C :    0.004220
   1 O :    0.000626
   2 H :   -0.006477
   3 H :   -0.006866
   4 H :   -0.000877
   5 H :   -0.002544
   6 C :   -0.154486
   7 O :   -0.466658
   8 H :    0.320722
   9 H :    0.090170
  10 H :    0.108646
  11 H :    0.113525
Sum of atomic charges:    0.0000000

LOEWDIN ATOMIC CHARGES
----------------------
   0 C :   -0.011898
   1 O :   -0.001547
   2 H :   -0.012669
   3 H :   -0.003368
   4 H :   -0.000190
   5 H :   -0.001618
   6 C :   -0.387661
   7 O :   -0.050804
   8 H :    0.190966
   9 H :    0.098174
  10 H :    0.086218
  11 H :    0.094397

  Mayer bond orders larger than 0.1
B(  6-C ,  7-O ) :   1.0018 B(  6-C ,  9-H ) :   0.9903 B(  6-C , 10-H ) :   0.9796
B(  6-C , 11-H ) :   0.9759 B(  7-O ,  8-H ) :   0.8939

Dispersion correction           -0.000210709
FINAL SINGLE POINT ENERGY      -115.728401690975

DIPOLE MOMENT
-------------
                                X             Y             Z
Electronic contribution:      1.13250       0.07575       1.36220
Nuclear contribution   :     -1.03444      -0.02352      -2.08508
                        -----------------------------------------
Total Dipole Moment    :      0.09806       0.05223      -0.72287
                        -----------------------------------------
Magnitude (a.u.)       :      0.73136
Magnitude (Debye)      :      1.85897

Rotational constants in cm-1:     4.421507     0.864433     0.834238
Rotational constants in MHz : 132553.460041 25915.062518 25009.818999

                             ****ORCA TERMINATED NORMALLY****
TOTAL RUN TIME: 0 days 0 hours 0 minutes 46 seconds 973 msec
