                         Program Version 4.1.2  - RELEASE  -
|  1> #Run DFT-D3 single point of the dimer
|  2> ! wB97X-D3 def2-TZVP TIGHTSCF CHELPG PMODEL PAL8
|  3>
|  4> %base "7-63_DFT_AB"
|  5>
|  6> %scf
|  7> MaxIter 1000
|  8> end
|  9>
| 10> * xyz 0 1
| 11>   C                      -1.585404            3.392058             7.212129
| 12>   O                      -2.120105            3.744945             8.520689
| 13>   H                      -1.462705            3.477092             9.167592
| 14>   H                      -2.311762            3.531126             6.455074
| 15>   H                      -0.759444            4.075805             6.822156
| 16>   H                      -1.228848            2.336794             7.215379
| 17>   C                      -1.636888            0.125822             9.817240
| 18>   O                      -2.485465            0.222041             8.703885
| 19>   H                      -3.295915            0.624738             9.007962
| 20>   H                      -1.491694            1.081340             10.297061
| 21>   H                      -2.118231            -0.588185            10.509969
| 22>   H                      -0.667232            -0.283175            9.432262
| 23> *
| 24>
| 25> #Run DFT-D3 single point of the molecule with dimer basis set
| 26> $new_job
| 27> %base "7-63_DFT_A"
| 28> ! wB97X-D3 def2-TZVP TIGHTSCF CHELPG PMODEL
| 29>
| 30> %scf
| 31> MaxIter 1000
| 32> end
| 33>
| 34> * xyz 0 1
| 35>   C                      -1.585404            3.392058             7.212129
| 36>   O                      -2.120105            3.744945             8.520689
| 37>   H                      -1.462705            3.477092             9.167592
| 38>   H                      -2.311762            3.531126             6.455074
| 39>   H                      -0.759444            4.075805             6.822156
| 40>   H                      -1.228848            2.336794             7.215379
| 41>   C                    : -1.636888            0.125822             9.817240
| 42>   O                    : -2.485465            0.222041             8.703885
| 43>   H                    : -3.295915            0.624738             9.007962
| 44>   H                    : -1.491694            1.081340             10.297061
| 45>   H                    : -2.118231            -0.588185            10.509969
| 46>   H                    : -0.667232            -0.283175            9.432262
| 47> *
| 48>
| 49> #Run DFT-D3 single point of the particle with dimer basis set
| 50> $new_job
| 51> %base "7-63_DFT_B"
| 52> ! wB97X-D3 def2-TZVP TIGHTSCF CHELPG PMODEL
| 53>
| 54> %scf
| 55> MaxIter 1000
| 56> end
| 57>
| 58> * xyz 0 1
| 59>   C                    : -1.585404            3.392058             7.212129
| 60>   O                    : -2.120105            3.744945             8.520689
| 61>   H                    : -1.462705            3.477092             9.167592
| 62>   H                    : -2.311762            3.531126             6.455074
| 63>   H                    : -0.759444            4.075805             6.822156
| 64>   H                    : -1.228848            2.336794             7.215379
| 65>   C                      -1.636888            0.125822             9.817240
| 66>   O                      -2.485465            0.222041             8.703885
| 67>   H                      -3.295915            0.624738             9.007962
| 68>   H                      -1.491694            1.081340             10.297061
| 69>   H                      -2.118231            -0.588185            10.509969
| 70>   H                      -0.667232            -0.283175            9.432262
| 71> *
| 72>
| 73>                          ****END OF INPUT****
 Total Charge           Charge          ....    0
 Multiplicity           Mult            ....    1
 Number of Electrons    NEL             ....   36
Dispersion correction           -0.002021351
FINAL SINGLE POINT ENERGY      -231.470371008427
Dispersion correction           -0.000275674
FINAL SINGLE POINT ENERGY      -115.732194268558

CARTESIAN COORDINATES (ANGSTROEM)
---------------------------------
  C     -1.585404    3.392058    7.212129
  O     -2.120105    3.744945    8.520689
  H     -1.462705    3.477092    9.167592
  H     -2.311762    3.531126    6.455074
  H     -0.759444    4.075805    6.822156
  H     -1.228848    2.336794    7.215379
  C     -1.636888    0.125822    9.817240
  O     -2.485465    0.222041    8.703885
  H     -3.295915    0.624738    9.007962
  H     -1.491694    1.081340   10.297061
  H     -2.118231   -0.588185   10.509969
  H     -0.667232   -0.283175    9.432262

 Multiplicity           Mult            ....    1
 Number of Electrons    NEL             ....   18
 Basis Dimension        Dim             ....  172

ORBITAL ENERGIES
----------------

  NO   OCC          E(Eh)            E(eV)
   0   2.0000     -19.227365      -523.2032
   1   2.0000     -10.314397      -280.6690
   2   2.0000      -1.141198       -31.0536
   3   2.0000      -0.791208       -21.5299
   4   2.0000      -0.612611       -16.6700
   5   2.0000      -0.547765       -14.9054
   6   2.0000      -0.523995       -14.2586
   7   2.0000      -0.434516       -11.8238
   8   2.0000      -0.371484       -10.1086
   9   0.0000       0.087913         2.3922
  10   0.0000       0.127555         3.4709
  11   0.0000       0.153464         4.1760
  12   0.0000       0.168963         4.5977
  13   0.0000       0.195721         5.3258

MULLIKEN ATOMIC CHARGES
-----------------------
   0 C :   -0.003382
   1 O :   -0.000484
   2 H :    0.000341
   3 H :    0.000372
   4 H :   -0.000177
   5 H :   -0.002805
   6 C :   -0.157925
   7 O :   -0.471608
   8 H :    0.311634
   9 H :    0.104214
  10 H :    0.104023
  11 H :    0.115796
Sum of atomic charges:   -0.0000000

LOEWDIN ATOMIC CHARGES
----------------------
   0 C :   -0.005881
   1 O :   -0.000883
   2 H :   -0.001650
   3 H :   -0.000136
   4 H :   -0.000077
   5 H :   -0.005518
   6 C :   -0.391297
   7 O :   -0.063141
   8 H :    0.164864
   9 H :    0.090250
  10 H :    0.097923
  11 H :    0.115548

  Mayer bond orders larger than 0.1
B(  6-C ,  7-O ) :   0.9818 B(  6-C ,  9-H ) :   0.9726 B(  6-C , 10-H ) :   0.9813
B(  6-C , 11-H ) :   0.9748 B(  7-O ,  8-H ) :   0.9009

Dispersion correction           -0.000214603
FINAL SINGLE POINT ENERGY      -115.735443870116

DIPOLE MOMENT
-------------
                                X             Y             Z
Electronic contribution:     -0.92718       0.12154      -1.43315
Nuclear contribution   :      0.74319       0.09208       2.06014
                        -----------------------------------------
Total Dipole Moment    :     -0.18399       0.21361       0.62699
                        -----------------------------------------
Magnitude (a.u.)       :      0.68746
Magnitude (Debye)      :      1.74740

Rotational constants in cm-1:     4.129426     0.855604     0.821032
Rotational constants in MHz : 123797.064851 25650.374300 24613.932060

                             ****ORCA TERMINATED NORMALLY****
TOTAL RUN TIME: 0 days 0 hours 1 minutes 8 seconds 179 msec
