                         Program Version 4.1.2  - RELEASE  -
|  1> #Run DFT-D3 single point of the dimer
|  2> ! wB97X-D3 def2-TZVP TIGHTSCF CHELPG PMODEL PAL8
|  3>
|  4> %base "8-19_DFT_AB"
|  5>
|  6> %scf
|  7> MaxIter 1000
|  8> end
|  9>
| 10> * xyz 0 1
| 11>   C                      0.003535             -5.877715            10.140912
| 12>   O                      0.318346             -4.605744            10.783172
| 13>   H                      1.007645             -4.757691            11.420423
| 14>   H                      -0.478516            -5.721957            9.157673
| 15>   H                      0.881340             -6.498868            10.075310
| 16>   H                      -0.767575            -6.350094            10.780891
| 17>   C                      3.383848             -4.997898            8.775477
| 18>   O                      4.321349             -5.344710            9.793845
| 19>   H                      5.010987             -4.761969            9.925138
| 20>   H                      3.874750             -4.633568            7.908581
| 21>   H                      2.788686             -5.840481            8.401953
| 22>   H                      2.727648             -4.186402            9.122463
| 23> *
| 24>
| 25> #Run DFT-D3 single point of the molecule with dimer basis set
| 26> $new_job
| 27> %base "8-19_DFT_A"
| 28> ! wB97X-D3 def2-TZVP TIGHTSCF CHELPG PMODEL
| 29>
| 30> %scf
| 31> MaxIter 1000
| 32> end
| 33>
| 34> * xyz 0 1
| 35>   C                      0.003535             -5.877715            10.140912
| 36>   O                      0.318346             -4.605744            10.783172
| 37>   H                      1.007645             -4.757691            11.420423
| 38>   H                      -0.478516            -5.721957            9.157673
| 39>   H                      0.881340             -6.498868            10.075310
| 40>   H                      -0.767575            -6.350094            10.780891
| 41>   C                    : 3.383848             -4.997898            8.775477
| 42>   O                    : 4.321349             -5.344710            9.793845
| 43>   H                    : 5.010987             -4.761969            9.925138
| 44>   H                    : 3.874750             -4.633568            7.908581
| 45>   H                    : 2.788686             -5.840481            8.401953
| 46>   H                    : 2.727648             -4.186402            9.122463
| 47> *
| 48>
| 49> #Run DFT-D3 single point of the particle with dimer basis set
| 50> $new_job
| 51> %base "8-19_DFT_B"
| 52> ! wB97X-D3 def2-TZVP TIGHTSCF CHELPG PMODEL
| 53>
| 54> %scf
| 55> MaxIter 1000
| 56> end
| 57>
| 58> * xyz 0 1
| 59>   C                    : 0.003535             -5.877715            10.140912
| 60>   O                    : 0.318346             -4.605744            10.783172
| 61>   H                    : 1.007645             -4.757691            11.420423
| 62>   H                    : -0.478516            -5.721957            9.157673
| 63>   H                    : 0.881340             -6.498868            10.075310
| 64>   H                    : -0.767575            -6.350094            10.780891
| 65>   C                      3.383848             -4.997898            8.775477
| 66>   O                      4.321349             -5.344710            9.793845
| 67>   H                      5.010987             -4.761969            9.925138
| 68>   H                      3.874750             -4.633568            7.908581
| 69>   H                      2.788686             -5.840481            8.401953
| 70>   H                      2.727648             -4.186402            9.122463
| 71> *
| 72>
| 73>                          ****END OF INPUT****
 Total Charge           Charge          ....    0
 Multiplicity           Mult            ....    1
 Number of Electrons    NEL             ....   36
Dispersion correction           -0.001934652
FINAL SINGLE POINT ENERGY      -231.466883877768
Dispersion correction           -0.000249233
FINAL SINGLE POINT ENERGY      -115.733929018889

CARTESIAN COORDINATES (ANGSTROEM)
---------------------------------
  C      0.003535   -5.877715   10.140912
  O      0.318346   -4.605744   10.783172
  H      1.007645   -4.757691   11.420423
  H     -0.478516   -5.721957    9.157673
  H      0.881340   -6.498868   10.075310
  H     -0.767575   -6.350094   10.780891
  C      3.383848   -4.997898    8.775477
  O      4.321349   -5.344710    9.793845
  H      5.010987   -4.761969    9.925138
  H      3.874750   -4.633568    7.908581
  H      2.788686   -5.840481    8.401953
  H      2.727648   -4.186402    9.122463

 Multiplicity           Mult            ....    1
 Number of Electrons    NEL             ....   18
 Basis Dimension        Dim             ....  172

ORBITAL ENERGIES
----------------

  NO   OCC          E(Eh)            E(eV)
   0   2.0000     -19.221445      -523.0421
   1   2.0000     -10.313303      -280.6392
   2   2.0000      -1.135729       -30.9047
   3   2.0000      -0.806713       -21.9518
   4   2.0000      -0.618118       -16.8199
   5   2.0000      -0.541614       -14.7381
   6   2.0000      -0.528889       -14.3918
   7   2.0000      -0.424541       -11.5523
   8   2.0000      -0.374298       -10.1852
   9   0.0000       0.090275         2.4565
  10   0.0000       0.125449         3.4136
  11   0.0000       0.154831         4.2132
  12   0.0000       0.166018         4.5176
  13   0.0000       0.191435         5.2092

MULLIKEN ATOMIC CHARGES
-----------------------
   0 C :   -0.004829
   1 O :    0.000951
   2 H :    0.000307
   3 H :    0.000416
   4 H :    0.002605
   5 H :    0.000013
   6 C :   -0.159887
   7 O :   -0.487173
   8 H :    0.308465
   9 H :    0.112618
  10 H :    0.123584
  11 H :    0.102928
Sum of atomic charges:    0.0000000

LOEWDIN ATOMIC CHARGES
----------------------
   0 C :   -0.004667
   1 O :   -0.001258
   2 H :   -0.000728
   3 H :   -0.000228
   4 H :   -0.001983
   5 H :   -0.000035
   6 C :   -0.361635
   7 O :   -0.063549
   8 H :    0.132968
   9 H :    0.089231
  10 H :    0.112717
  11 H :    0.099167

  Mayer bond orders larger than 0.1
B(  6-C ,  7-O ) :   0.9861 B(  6-C ,  9-H ) :   0.9780 B(  6-C , 10-H ) :   0.9696
B(  6-C , 11-H ) :   0.9778 B(  7-O ,  8-H ) :   0.9054

Dispersion correction           -0.000257326
FINAL SINGLE POINT ENERGY      -115.730196008032

DIPOLE MOMENT
-------------
                                X             Y             Z
Electronic contribution:      1.12379      -0.57132       1.30985
Nuclear contribution   :     -1.03935       1.11381      -1.69063
                        -----------------------------------------
Total Dipole Moment    :      0.08444       0.54248      -0.38079
                        -----------------------------------------
Magnitude (a.u.)       :      0.66814
Magnitude (Debye)      :      1.69829

Rotational constants in cm-1:     4.598320     0.806368     0.785430
Rotational constants in MHz : 137854.163872 24174.301145 23546.603714

                             ****ORCA TERMINATED NORMALLY****
TOTAL RUN TIME: 0 days 0 hours 0 minutes 44 seconds 91 msec
