                         Program Version 4.1.2  - RELEASE  -
|  1> #Run DFT-D3 single point of the dimer
|  2> ! wB97X-D3 def2-TZVP TIGHTSCF CHELPG PMODEL PAL8
|  3>
|  4> %base "3-162_DFT_AB"
|  5>
|  6> %scf
|  7> MaxIter 1000
|  8> end
|  9>
| 10> * xyz 0 1
| 11>   C                      5.111816             11.315297            -1.583076
| 12>   O                      4.924592             11.111814            -2.969516
| 13>   H                      4.468329             10.305470            -3.080474
| 14>   H                      5.285687             10.443004            -1.053035
| 15>   H                      5.970411             11.931998            -1.384776
| 16>   H                      4.228074             11.748586            -1.120460
| 17>   C                      1.837685             7.921256             -3.192911
| 18>   O                      3.180239             7.506162             -2.812704
| 19>   H                      3.083446             6.637611             -2.351031
| 20>   H                      1.284189             8.494155             -2.358668
| 21>   H                      1.829113             8.481215             -4.103715
| 22>   H                      1.250986             7.050510             -3.408869
| 23> *
| 24>
| 25> #Run DFT-D3 single point of the molecule with dimer basis set
| 26> $new_job
| 27> %base "3-162_DFT_A"
| 28> ! wB97X-D3 def2-TZVP TIGHTSCF CHELPG PMODEL
| 29>
| 30> %scf
| 31> MaxIter 1000
| 32> end
| 33>
| 34> * xyz 0 1
| 35>   C                      5.111816             11.315297            -1.583076
| 36>   O                      4.924592             11.111814            -2.969516
| 37>   H                      4.468329             10.305470            -3.080474
| 38>   H                      5.285687             10.443004            -1.053035
| 39>   H                      5.970411             11.931998            -1.384776
| 40>   H                      4.228074             11.748586            -1.120460
| 41>   C                    : 1.837685             7.921256             -3.192911
| 42>   O                    : 3.180239             7.506162             -2.812704
| 43>   H                    : 3.083446             6.637611             -2.351031
| 44>   H                    : 1.284189             8.494155             -2.358668
| 45>   H                    : 1.829113             8.481215             -4.103715
| 46>   H                    : 1.250986             7.050510             -3.408869
| 47> *
| 48>
| 49> #Run DFT-D3 single point of the particle with dimer basis set
| 50> $new_job
| 51> %base "3-162_DFT_B"
| 52> ! wB97X-D3 def2-TZVP TIGHTSCF CHELPG PMODEL
| 53>
| 54> %scf
| 55> MaxIter 1000
| 56> end
| 57>
| 58> * xyz 0 1
| 59>   C                    : 5.111816             11.315297            -1.583076
| 60>   O                    : 4.924592             11.111814            -2.969516
| 61>   H                    : 4.468329             10.305470            -3.080474
| 62>   H                    : 5.285687             10.443004            -1.053035
| 63>   H                    : 5.970411             11.931998            -1.384776
| 64>   H                    : 4.228074             11.748586            -1.120460
| 65>   C                      1.837685             7.921256             -3.192911
| 66>   O                      3.180239             7.506162             -2.812704
| 67>   H                      3.083446             6.637611             -2.351031
| 68>   H                      1.284189             8.494155             -2.358668
| 69>   H                      1.829113             8.481215             -4.103715
| 70>   H                      1.250986             7.050510             -3.408869
| 71> *
| 72>
| 73>                          ****END OF INPUT****
 Total Charge           Charge          ....    0
 Multiplicity           Mult            ....    1
 Number of Electrons    NEL             ....   36
Dispersion correction           -0.001215290
FINAL SINGLE POINT ENERGY      -231.466940553366
Dispersion correction           -0.000231786
FINAL SINGLE POINT ENERGY      -115.732744526427

CARTESIAN COORDINATES (ANGSTROEM)
---------------------------------
  C      5.111816   11.315297   -1.583076
  O      4.924592   11.111814   -2.969516
  H      4.468329   10.305470   -3.080474
  H      5.285687   10.443004   -1.053035
  H      5.970411   11.931998   -1.384776
  H      4.228074   11.748586   -1.120460
  C      1.837685    7.921256   -3.192911
  O      3.180239    7.506162   -2.812704
  H      3.083446    6.637611   -2.351031
  H      1.284189    8.494155   -2.358668
  H      1.829113    8.481215   -4.103715
  H      1.250986    7.050510   -3.408869

 Multiplicity           Mult            ....    1
 Number of Electrons    NEL             ....   18
 Basis Dimension        Dim             ....  172

ORBITAL ENERGIES
----------------

  NO   OCC          E(Eh)            E(eV)
   0   2.0000     -19.234391      -523.3944
   1   2.0000     -10.317869      -280.7635
   2   2.0000      -1.120168       -30.4813
   3   2.0000      -0.795056       -21.6346
   4   2.0000      -0.601179       -16.3589
   5   2.0000      -0.534340       -14.5401
   6   2.0000      -0.523756       -14.2521
   7   2.0000      -0.436197       -11.8695
   8   2.0000      -0.375317       -10.2129
   9   0.0000       0.094213         2.5637
  10   0.0000       0.115762         3.1500
  11   0.0000       0.146860         3.9963
  12   0.0000       0.179086         4.8732
  13   0.0000       0.193084         5.2541

MULLIKEN ATOMIC CHARGES
-----------------------
   0 C :    0.000294
   1 O :    0.000261
   2 H :   -0.001680
   3 H :   -0.001151
   4 H :   -0.000071
   5 H :    0.000003
   6 C :   -0.185559
   7 O :   -0.476087
   8 H :    0.316195
   9 H :    0.103810
  10 H :    0.129088
  11 H :    0.114898
Sum of atomic charges:    0.0000000

LOEWDIN ATOMIC CHARGES
----------------------
   0 C :   -0.000462
   1 O :   -0.000092
   2 H :   -0.002226
   3 H :   -0.000357
   4 H :   -0.000009
   5 H :   -0.000008
   6 C :   -0.363065
   7 O :   -0.117511
   8 H :    0.183395
   9 H :    0.106660
  10 H :    0.100870
  11 H :    0.092805

  Mayer bond orders larger than 0.1
B(  6-C ,  7-O ) :   0.9972 B(  6-C ,  9-H ) :   0.9683 B(  6-C , 10-H ) :   0.9726
B(  6-C , 11-H ) :   0.9802 B(  7-O ,  8-H ) :   0.8972

Dispersion correction           -0.000266598
FINAL SINGLE POINT ENERGY      -115.730936738972

DIPOLE MOMENT
-------------
                                X             Y             Z
Electronic contribution:      1.80222      -0.34851       0.34692
Nuclear contribution   :     -2.42620      -0.06259      -0.25932
                        -----------------------------------------
Total Dipole Moment    :     -0.62399      -0.41110       0.08760
                        -----------------------------------------
Magnitude (a.u.)       :      0.75235
Magnitude (Debye)      :      1.91232

Rotational constants in cm-1:     4.235225     0.784908     0.764293
Rotational constants in MHz : 126968.845906 23530.952882 22912.941499

                             ****ORCA TERMINATED NORMALLY****
TOTAL RUN TIME: 0 days 0 hours 5 minutes 24 seconds 727 msec
