                         Program Version 4.1.2  - RELEASE  -
|  1> #Run DFT-D3 single point of the dimer
|  2> ! wB97X-D3 def2-TZVP TIGHTSCF CHELPG PMODEL PAL8
|  3>
|  4> %base "10-136_DFT_AB"
|  5>
|  6> %scf
|  7> MaxIter 1000
|  8> end
|  9>
| 10> * xyz 0 1
| 11>   C                      3.771709             8.520026             -2.309033
| 12>   O                      4.367163             8.443631             -3.620214
| 13>   H                      5.116592             9.031496             -3.647781
| 14>   H                      3.720613             9.562944             -1.984320
| 15>   H                      2.808419             8.065377             -2.246526
| 16>   H                      4.336444             7.999039             -1.611922
| 17>   C                      3.617948             4.920657             -4.190933
| 18>   O                      2.942589             5.757748             -5.139816
| 19>   H                      3.025116             6.628615             -4.705569
| 20>   H                      3.334951             5.318446             -3.164063
| 21>   H                      3.196091             3.934872             -4.195317
| 22>   H                      4.703292             4.822993             -4.344938
| 23> *
| 24>
| 25> #Run DFT-D3 single point of the molecule with dimer basis set
| 26> $new_job
| 27> %base "10-136_DFT_A"
| 28> ! wB97X-D3 def2-TZVP TIGHTSCF CHELPG PMODEL
| 29>
| 30> %scf
| 31> MaxIter 1000
| 32> end
| 33>
| 34> * xyz 0 1
| 35>   C                      3.771709             8.520026             -2.309033
| 36>   O                      4.367163             8.443631             -3.620214
| 37>   H                      5.116592             9.031496             -3.647781
| 38>   H                      3.720613             9.562944             -1.984320
| 39>   H                      2.808419             8.065377             -2.246526
| 40>   H                      4.336444             7.999039             -1.611922
| 41>   C                    : 3.617948             4.920657             -4.190933
| 42>   O                    : 2.942589             5.757748             -5.139816
| 43>   H                    : 3.025116             6.628615             -4.705569
| 44>   H                    : 3.334951             5.318446             -3.164063
| 45>   H                    : 3.196091             3.934872             -4.195317
| 46>   H                    : 4.703292             4.822993             -4.344938
| 47> *
| 48>
| 49> #Run DFT-D3 single point of the particle with dimer basis set
| 50> $new_job
| 51> %base "10-136_DFT_B"
| 52> ! wB97X-D3 def2-TZVP TIGHTSCF CHELPG PMODEL
| 53>
| 54> %scf
| 55> MaxIter 1000
| 56> end
| 57>
| 58> * xyz 0 1
| 59>   C                    : 3.771709             8.520026             -2.309033
| 60>   O                    : 4.367163             8.443631             -3.620214
| 61>   H                    : 5.116592             9.031496             -3.647781
| 62>   H                    : 3.720613             9.562944             -1.984320
| 63>   H                    : 2.808419             8.065377             -2.246526
| 64>   H                    : 4.336444             7.999039             -1.611922
| 65>   C                      3.617948             4.920657             -4.190933
| 66>   O                      2.942589             5.757748             -5.139816
| 67>   H                      3.025116             6.628615             -4.705569
| 68>   H                      3.334951             5.318446             -3.164063
| 69>   H                      3.196091             3.934872             -4.195317
| 70>   H                      4.703292             4.822993             -4.344938
| 71> *
| 72>
| 73>                          ****END OF INPUT****
 Total Charge           Charge          ....    0
 Multiplicity           Mult            ....    1
 Number of Electrons    NEL             ....   36
Dispersion correction           -0.001936097
FINAL SINGLE POINT ENERGY      -231.468807675892
Dispersion correction           -0.000238944
FINAL SINGLE POINT ENERGY      -115.732355518459

CARTESIAN COORDINATES (ANGSTROEM)
---------------------------------
  C      3.771709    8.520026   -2.309033
  O      4.367163    8.443631   -3.620214
  H      5.116592    9.031496   -3.647781
  H      3.720613    9.562944   -1.984320
  H      2.808419    8.065377   -2.246526
  H      4.336444    7.999039   -1.611922
  C      3.617948    4.920657   -4.190933
  O      2.942589    5.757748   -5.139816
  H      3.025116    6.628615   -4.705569
  H      3.334951    5.318446   -3.164063
  H      3.196091    3.934872   -4.195317
  H      4.703292    4.822993   -4.344938

 Multiplicity           Mult            ....    1
 Number of Electrons    NEL             ....   18
 Basis Dimension        Dim             ....  172

ORBITAL ENERGIES
----------------

  NO   OCC          E(Eh)            E(eV)
   0   2.0000     -19.233970      -523.3829
   1   2.0000     -10.318180      -280.7719
   2   2.0000      -1.132216       -30.8092
   3   2.0000      -0.790629       -21.5141
   4   2.0000      -0.600183       -16.3318
   5   2.0000      -0.546006       -14.8576
   6   2.0000      -0.525885       -14.3101
   7   2.0000      -0.433447       -11.7947
   8   2.0000      -0.377401       -10.2696
   9   0.0000       0.066699         1.8150
  10   0.0000       0.131182         3.5696
  11   0.0000       0.143679         3.9097
  12   0.0000       0.155227         4.2240
  13   0.0000       0.193991         5.2788

MULLIKEN ATOMIC CHARGES
-----------------------
   0 C :   -0.001195
   1 O :   -0.000737
   2 H :   -0.000087
   3 H :    0.000021
   4 H :   -0.000217
   5 H :   -0.000254
   6 C :   -0.184256
   7 O :   -0.461786
   8 H :    0.315854
   9 H :    0.099083
  10 H :    0.122654
  11 H :    0.110920
Sum of atomic charges:    0.0000000

LOEWDIN ATOMIC CHARGES
----------------------
   0 C :   -0.003767
   1 O :   -0.004359
   2 H :   -0.000204
   3 H :   -0.000028
   4 H :   -0.000873
   5 H :   -0.000315
   6 C :   -0.379478
   7 O :   -0.095433
   8 H :    0.180586
   9 H :    0.105924
  10 H :    0.100262
  11 H :    0.097686

  Mayer bond orders larger than 0.1
B(  6-C ,  7-O ) :   1.0010 B(  6-C ,  9-H ) :   0.9891 B(  6-C , 10-H ) :   0.9749
B(  6-C , 11-H ) :   0.9657 B(  7-O ,  8-H ) :   0.9079

Dispersion correction           -0.000240066
FINAL SINGLE POINT ENERGY      -115.731232886893

DIPOLE MOMENT
-------------
                                X             Y             Z
Electronic contribution:     -0.79705       0.90310      -1.42691
Nuclear contribution   :      1.08642      -0.72439       2.06100
                        -----------------------------------------
Total Dipole Moment    :      0.28937       0.17871       0.63409
                        -----------------------------------------
Magnitude (a.u.)       :      0.71955
Magnitude (Debye)      :      1.82894

Rotational constants in cm-1:     4.139145     0.816296     0.791028
Rotational constants in MHz : 124088.445734 24471.925934 23714.415281

                             ****ORCA TERMINATED NORMALLY****
TOTAL RUN TIME: 0 days 0 hours 1 minutes 4 seconds 576 msec
