                         Program Version 4.1.2  - RELEASE  -
|  1> #Run DFT-D3 single point of the dimer
|  2> ! wB97X-D3 def2-TZVP TIGHTSCF CHELPG PMODEL PAL8
|  3>
|  4> %base "17-27_DFT_AB"
|  5>
|  6> %scf
|  7> MaxIter 1000
|  8> end
|  9>
| 10> * xyz 0 1
| 11>   C                      -1.552654            -0.347999            4.263472
| 12>   O                      -0.675985            -0.786314            3.238730
| 13>   H                      -1.311521            -0.903148            2.507645
| 14>   H                      -1.893925            0.644904             3.934240
| 15>   H                      -2.420135            -0.936720            4.503697
| 16>   H                      -1.047543            -0.169033            5.200596
| 17>   C                      -3.878778            5.226953             5.247885
| 18>   O                      -5.224629            5.348015             5.544506
| 19>   H                      -5.445611            4.485523             5.841927
| 20>   H                      -3.546686            4.160902             5.104983
| 21>   H                      -3.680878            5.721709             4.364814
| 22>   H                      -3.217609            5.667860             6.069473
| 23> *
| 24>
| 25> #Run DFT-D3 single point of the molecule with dimer basis set
| 26> $new_job
| 27> %base "17-27_DFT_A"
| 28> ! wB97X-D3 def2-TZVP TIGHTSCF CHELPG PMODEL
| 29>
| 30> %scf
| 31> MaxIter 1000
| 32> end
| 33>
| 34> * xyz 0 1
| 35>   C                      -1.552654            -0.347999            4.263472
| 36>   O                      -0.675985            -0.786314            3.238730
| 37>   H                      -1.311521            -0.903148            2.507645
| 38>   H                      -1.893925            0.644904             3.934240
| 39>   H                      -2.420135            -0.936720            4.503697
| 40>   H                      -1.047543            -0.169033            5.200596
| 41>   C                    : -3.878778            5.226953             5.247885
| 42>   O                    : -5.224629            5.348015             5.544506
| 43>   H                    : -5.445611            4.485523             5.841927
| 44>   H                    : -3.546686            4.160902             5.104983
| 45>   H                    : -3.680878            5.721709             4.364814
| 46>   H                    : -3.217609            5.667860             6.069473
| 47> *
| 48>
| 49> #Run DFT-D3 single point of the particle with dimer basis set
| 50> $new_job
| 51> %base "17-27_DFT_B"
| 52> ! wB97X-D3 def2-TZVP TIGHTSCF CHELPG PMODEL
| 53>
| 54> %scf
| 55> MaxIter 1000
| 56> end
| 57>
| 58> * xyz 0 1
| 59>   C                    : -1.552654            -0.347999            4.263472
| 60>   O                    : -0.675985            -0.786314            3.238730
| 61>   H                    : -1.311521            -0.903148            2.507645
| 62>   H                    : -1.893925            0.644904             3.934240
| 63>   H                    : -2.420135            -0.936720            4.503697
| 64>   H                    : -1.047543            -0.169033            5.200596
| 65>   C                      -3.878778            5.226953             5.247885
| 66>   O                      -5.224629            5.348015             5.544506
| 67>   H                      -5.445611            4.485523             5.841927
| 68>   H                      -3.546686            4.160902             5.104983
| 69>   H                      -3.680878            5.721709             4.364814
| 70>   H                      -3.217609            5.667860             6.069473
| 71> *
| 72>
| 73>                          ****END OF INPUT****
 Total Charge           Charge          ....    0
 Multiplicity           Mult            ....    1
 Number of Electrons    NEL             ....   36
Dispersion correction           -0.000559266
FINAL SINGLE POINT ENERGY      -231.460317834116
Dispersion correction           -0.000224197
FINAL SINGLE POINT ENERGY      -115.730808510948

CARTESIAN COORDINATES (ANGSTROEM)
---------------------------------
  C     -1.552654   -0.347999    4.263472
  O     -0.675985   -0.786314    3.238730
  H     -1.311521   -0.903148    2.507645
  H     -1.893925    0.644904    3.934240
  H     -2.420135   -0.936720    4.503697
  H     -1.047543   -0.169033    5.200596
  C     -3.878778    5.226953    5.247885
  O     -5.224629    5.348015    5.544506
  H     -5.445611    4.485523    5.841927
  H     -3.546686    4.160902    5.104983
  H     -3.680878    5.721709    4.364814
  H     -3.217609    5.667860    6.069473

 Multiplicity           Mult            ....    1
 Number of Electrons    NEL             ....   18
 Basis Dimension        Dim             ....  172

ORBITAL ENERGIES
----------------

  NO   OCC          E(Eh)            E(eV)
   0   2.0000     -19.230895      -523.2993
   1   2.0000     -10.311989      -280.6035
   2   2.0000      -1.155368       -31.4392
   3   2.0000      -0.793923       -21.6037
   4   2.0000      -0.619287       -16.8517
   5   2.0000      -0.546163       -14.8618
   6   2.0000      -0.530166       -14.4266
   7   2.0000      -0.439281       -11.9534
   8   2.0000      -0.372930       -10.1479
   9   0.0000       0.081455         2.2165
  10   0.0000       0.113281         3.0825
  11   0.0000       0.151272         4.1163
  12   0.0000       0.164856         4.4860
  13   0.0000       0.179521         4.8850

MULLIKEN ATOMIC CHARGES
-----------------------
   0 C :    0.000050
   1 O :   -0.000001
   2 H :   -0.000001
   3 H :   -0.000132
   4 H :   -0.000003
   5 H :   -0.000006
   6 C :   -0.170996
   7 O :   -0.452140
   8 H :    0.315138
   9 H :    0.095544
  10 H :    0.119476
  11 H :    0.093071
Sum of atomic charges:    0.0000000

LOEWDIN ATOMIC CHARGES
----------------------
   0 C :   -0.000021
   1 O :   -0.000001
   2 H :   -0.000000
   3 H :   -0.000085
   4 H :   -0.000000
   5 H :   -0.000001
   6 C :   -0.410260
   7 O :   -0.042450
   8 H :    0.162248
   9 H :    0.100452
  10 H :    0.087626
  11 H :    0.102493

  Mayer bond orders larger than 0.1
B(  6-C ,  7-O ) :   1.0135 B(  6-C ,  9-H ) :   0.9865 B(  6-C , 10-H ) :   0.9778
B(  6-C , 11-H ) :   0.9711 B(  7-O ,  8-H ) :   0.9058

Dispersion correction           -0.000227034
FINAL SINGLE POINT ENERGY      -115.729540259273

DIPOLE MOMENT
-------------
                                X             Y             Z
Electronic contribution:     -1.86983       0.33601       0.27853
Nuclear contribution   :      2.20394      -0.94054      -0.23422
                        -----------------------------------------
Total Dipole Moment    :      0.33410      -0.60453       0.04431
                        -----------------------------------------
Magnitude (a.u.)       :      0.69213
Magnitude (Debye)      :      1.75926

Rotational constants in cm-1:     4.266843     0.864522     0.834111
Rotational constants in MHz : 127916.741658 25917.703566 25006.003774

                             ****ORCA TERMINATED NORMALLY****
TOTAL RUN TIME: 0 days 0 hours 1 minutes 0 seconds 114 msec
