                         Program Version 4.1.2  - RELEASE  -
|  1> #Run DFT-D3 single point of the dimer
|  2> ! wB97X-D3 def2-TZVP TIGHTSCF CHELPG PMODEL PAL8
|  3>
|  4> %base "1-113_DFT_AB"
|  5>
|  6> %scf
|  7> MaxIter 1000
|  8> end
|  9>
| 10> * xyz 0 1
| 11>   C                      4.888409             3.253564             1.564337
| 12>   O                      3.677006             2.583596             1.661210
| 13>   H                      3.206091             3.184549             2.313653
| 14>   H                      4.815171             4.370015             1.276239
| 15>   H                      5.420325             3.232220             2.517922
| 16>   H                      5.548820             2.761538             0.826897
| 17>   C                      6.435517             5.502492             3.240759
| 18>   O                      7.653140             4.836100             3.103673
| 19>   H                      7.754679             4.113774             3.731142
| 20>   H                      6.451900             6.412907             2.643708
| 21>   H                      5.674505             4.828367             2.799575
| 22>   H                      6.227441             5.836066             4.251871
| 23> *
| 24>
| 25> #Run DFT-D3 single point of the molecule with dimer basis set
| 26> $new_job
| 27> %base "1-113_DFT_A"
| 28> ! wB97X-D3 def2-TZVP TIGHTSCF CHELPG PMODEL
| 29>
| 30> %scf
| 31> MaxIter 1000
| 32> end
| 33>
| 34> * xyz 0 1
| 35>   C                      4.888409             3.253564             1.564337
| 36>   O                      3.677006             2.583596             1.661210
| 37>   H                      3.206091             3.184549             2.313653
| 38>   H                      4.815171             4.370015             1.276239
| 39>   H                      5.420325             3.232220             2.517922
| 40>   H                      5.548820             2.761538             0.826897
| 41>   C                    : 6.435517             5.502492             3.240759
| 42>   O                    : 7.653140             4.836100             3.103673
| 43>   H                    : 7.754679             4.113774             3.731142
| 44>   H                    : 6.451900             6.412907             2.643708
| 45>   H                    : 5.674505             4.828367             2.799575
| 46>   H                    : 6.227441             5.836066             4.251871
| 47> *
| 48>
| 49> #Run DFT-D3 single point of the particle with dimer basis set
| 50> $new_job
| 51> %base "1-113_DFT_B"
| 52> ! wB97X-D3 def2-TZVP TIGHTSCF CHELPG PMODEL
| 53>
| 54> %scf
| 55> MaxIter 1000
| 56> end
| 57>
| 58> * xyz 0 1
| 59>   C                    : 4.888409             3.253564             1.564337
| 60>   O                    : 3.677006             2.583596             1.661210
| 61>   H                    : 3.206091             3.184549             2.313653
| 62>   H                    : 4.815171             4.370015             1.276239
| 63>   H                    : 5.420325             3.232220             2.517922
| 64>   H                    : 5.548820             2.761538             0.826897
| 65>   C                      6.435517             5.502492             3.240759
| 66>   O                      7.653140             4.836100             3.103673
| 67>   H                      7.754679             4.113774             3.731142
| 68>   H                      6.451900             6.412907             2.643708
| 69>   H                      5.674505             4.828367             2.799575
| 70>   H                      6.227441             5.836066             4.251871
| 71> *
| 72>
| 73>                          ****END OF INPUT****
 Total Charge           Charge          ....    0
 Multiplicity           Mult            ....    1
 Number of Electrons    NEL             ....   36
Dispersion correction           -0.002012235
FINAL SINGLE POINT ENERGY      -231.455925476941
Dispersion correction           -0.000226900
FINAL SINGLE POINT ENERGY      -115.730412672029

CARTESIAN COORDINATES (ANGSTROEM)
---------------------------------
  C      4.888409    3.253564    1.564337
  O      3.677006    2.583596    1.661210
  H      3.206091    3.184549    2.313653
  H      4.815171    4.370015    1.276239
  H      5.420325    3.232220    2.517922
  H      5.548820    2.761538    0.826897
  C      6.435517    5.502492    3.240759
  O      7.653140    4.836100    3.103673
  H      7.754679    4.113774    3.731142
  H      6.451900    6.412907    2.643708
  H      5.674505    4.828367    2.799575
  H      6.227441    5.836066    4.251871

 Multiplicity           Mult            ....    1
 Number of Electrons    NEL             ....   18
 Basis Dimension        Dim             ....  172

ORBITAL ENERGIES
----------------

  NO   OCC          E(Eh)            E(eV)
   0   2.0000     -19.226628      -523.1831
   1   2.0000     -10.311142      -280.5804
   2   2.0000      -1.138110       -30.9695
   3   2.0000      -0.796245       -21.6669
   4   2.0000      -0.610564       -16.6143
   5   2.0000      -0.550637       -14.9836
   6   2.0000      -0.529429       -14.4065
   7   2.0000      -0.422991       -11.5102
   8   2.0000      -0.371567       -10.1108
   9   0.0000       0.088188         2.3997
  10   0.0000       0.124804         3.3961
  11   0.0000       0.158657         4.3173
  12   0.0000       0.169203         4.6043
  13   0.0000       0.201913         5.4943

MULLIKEN ATOMIC CHARGES
-----------------------
   0 C :    0.012588
   1 O :    0.000247
   2 H :    0.000090
   3 H :   -0.002562
   4 H :   -0.001614
   5 H :   -0.000293
   6 C :   -0.115154
   7 O :   -0.485018
   8 H :    0.317620
   9 H :    0.114736
  10 H :    0.054309
  11 H :    0.105051
Sum of atomic charges:    0.0000000

LOEWDIN ATOMIC CHARGES
----------------------
   0 C :   -0.035689
   1 O :   -0.000093
   2 H :   -0.000373
   3 H :   -0.012125
   4 H :   -0.016780
   5 H :   -0.000502
   6 C :   -0.374391
   7 O :   -0.062777
   8 H :    0.169711
   9 H :    0.109393
  10 H :    0.130711
  11 H :    0.092915

  Mayer bond orders larger than 0.1
B(  6-C ,  7-O ) :   0.9945 B(  6-C ,  9-H ) :   0.9731 B(  6-C , 10-H ) :   0.9931
B(  6-C , 11-H ) :   0.9834 B(  7-O ,  8-H ) :   0.8943

Dispersion correction           -0.000236704
FINAL SINGLE POINT ENERGY      -115.734625740147

DIPOLE MOMENT
-------------
                                X             Y             Z
Electronic contribution:      1.57821      -0.75188      -0.17615
Nuclear contribution   :     -1.97217       0.57256       0.63557
                        -----------------------------------------
Total Dipole Moment    :     -0.39396      -0.17932       0.45942
                        -----------------------------------------
Magnitude (a.u.)       :      0.63121
Magnitude (Debye)      :      1.60441

Rotational constants in cm-1:     4.313516     0.842942     0.824419
Rotational constants in MHz : 129315.961451 25270.756155 24715.451752

                             ****ORCA TERMINATED NORMALLY****
TOTAL RUN TIME: 0 days 0 hours 5 minutes 35 seconds 838 msec
