                         Program Version 4.1.2  - RELEASE  -
|  1> #Run DFT-D3 single point of the dimer
|  2> ! wB97X-D3 def2-TZVP TIGHTSCF CHELPG PMODEL PAL8
|  3>
|  4> %base "8-188_DFT_AB"
|  5>
|  6> %scf
|  7> MaxIter 1000
|  8> end
|  9>
| 10> * xyz 0 1
| 11>   C                      -5.857692            3.293914             9.827698
| 12>   O                      -6.747446            4.192622             10.427490
| 13>   H                      -7.442084            4.299272             9.837414
| 14>   H                      -5.000361            3.085157             10.455396
| 15>   H                      -6.315586            2.270541             9.609744
| 16>   H                      -5.414708            3.642596             8.841099
| 17>   C                      -10.093289           1.103940             9.916650
| 18>   O                      -10.461866           2.426109             9.879604
| 19>   H                      -9.652044            3.001358             9.833511
| 20>   H                      -9.199362            0.937206             10.515245
| 21>   H                      -10.851303           0.534979             10.498085
| 22>   H                      -10.048276           0.648209             8.947210
| 23> *
| 24>
| 25> #Run DFT-D3 single point of the molecule with dimer basis set
| 26> $new_job
| 27> %base "8-188_DFT_A"
| 28> ! wB97X-D3 def2-TZVP TIGHTSCF CHELPG PMODEL
| 29>
| 30> %scf
| 31> MaxIter 1000
| 32> end
| 33>
| 34> * xyz 0 1
| 35>   C                      -5.857692            3.293914             9.827698
| 36>   O                      -6.747446            4.192622             10.427490
| 37>   H                      -7.442084            4.299272             9.837414
| 38>   H                      -5.000361            3.085157             10.455396
| 39>   H                      -6.315586            2.270541             9.609744
| 40>   H                      -5.414708            3.642596             8.841099
| 41>   C                    : -10.093289           1.103940             9.916650
| 42>   O                    : -10.461866           2.426109             9.879604
| 43>   H                    : -9.652044            3.001358             9.833511
| 44>   H                    : -9.199362            0.937206             10.515245
| 45>   H                    : -10.851303           0.534979             10.498085
| 46>   H                    : -10.048276           0.648209             8.947210
| 47> *
| 48>
| 49> #Run DFT-D3 single point of the particle with dimer basis set
| 50> $new_job
| 51> %base "8-188_DFT_B"
| 52> ! wB97X-D3 def2-TZVP TIGHTSCF CHELPG PMODEL
| 53>
| 54> %scf
| 55> MaxIter 1000
| 56> end
| 57>
| 58> * xyz 0 1
| 59>   C                    : -5.857692            3.293914             9.827698
| 60>   O                    : -6.747446            4.192622             10.427490
| 61>   H                    : -7.442084            4.299272             9.837414
| 62>   H                    : -5.000361            3.085157             10.455396
| 63>   H                    : -6.315586            2.270541             9.609744
| 64>   H                    : -5.414708            3.642596             8.841099
| 65>   C                      -10.093289           1.103940             9.916650
| 66>   O                      -10.461866           2.426109             9.879604
| 67>   H                      -9.652044            3.001358             9.833511
| 68>   H                      -9.199362            0.937206             10.515245
| 69>   H                      -10.851303           0.534979             10.498085
| 70>   H                      -10.048276           0.648209             8.947210
| 71> *
| 72>
| 73>                          ****END OF INPUT****
 Total Charge           Charge          ....    0
 Multiplicity           Mult            ....    1
 Number of Electrons    NEL             ....   36
Dispersion correction           -0.001378417
FINAL SINGLE POINT ENERGY      -231.464840283857
Dispersion correction           -0.000254922
FINAL SINGLE POINT ENERGY      -115.732785610045

CARTESIAN COORDINATES (ANGSTROEM)
---------------------------------
  C     -5.857692    3.293914    9.827698
  O     -6.747446    4.192622   10.427490
  H     -7.442084    4.299272    9.837414
  H     -5.000361    3.085157   10.455396
  H     -6.315586    2.270541    9.609744
  H     -5.414708    3.642596    8.841099
  C    -10.093289    1.103940    9.916650
  O    -10.461866    2.426109    9.879604
  H     -9.652044    3.001358    9.833511
  H     -9.199362    0.937206   10.515245
  H    -10.851303    0.534979   10.498085
  H    -10.048276    0.648209    8.947210

 Multiplicity           Mult            ....    1
 Number of Electrons    NEL             ....   18
 Basis Dimension        Dim             ....  172

ORBITAL ENERGIES
----------------

  NO   OCC          E(Eh)            E(eV)
   0   2.0000     -19.231934      -523.3275
   1   2.0000     -10.307093      -280.4702
   2   2.0000      -1.141914       -31.0731
   3   2.0000      -0.792202       -21.5569
   4   2.0000      -0.613900       -16.7051
   5   2.0000      -0.553484       -15.0611
   6   2.0000      -0.527548       -14.3553
   7   2.0000      -0.420901       -11.4533
   8   2.0000      -0.373168       -10.1544
   9   0.0000       0.067876         1.8470
  10   0.0000       0.122658         3.3377
  11   0.0000       0.144105         3.9213
  12   0.0000       0.183970         5.0061
  13   0.0000       0.188141         5.1196

MULLIKEN ATOMIC CHARGES
-----------------------
   0 C :   -0.000304
   1 O :   -0.000018
   2 H :   -0.000608
   3 H :   -0.000001
   4 H :    0.000104
   5 H :    0.000014
   6 C :   -0.155182
   7 O :   -0.471936
   8 H :    0.321000
   9 H :    0.099522
  10 H :    0.106758
  11 H :    0.100651
Sum of atomic charges:    0.0000000

LOEWDIN ATOMIC CHARGES
----------------------
   0 C :   -0.000357
   1 O :   -0.000338
   2 H :   -0.002144
   3 H :   -0.000004
   4 H :   -0.000327
   5 H :   -0.000001
   6 C :   -0.421763
   7 O :   -0.060831
   8 H :    0.192265
   9 H :    0.094237
  10 H :    0.109688
  11 H :    0.089577

  Mayer bond orders larger than 0.1
B(  6-C ,  7-O ) :   1.0085 B(  6-C ,  9-H ) :   0.9828 B(  6-C , 10-H ) :   0.9742
B(  6-C , 11-H ) :   0.9745 B(  7-O ,  8-H ) :   0.8924

Dispersion correction           -0.000237197
FINAL SINGLE POINT ENERGY      -115.732593787255

DIPOLE MOMENT
-------------
                                X             Y             Z
Electronic contribution:     -0.54237       1.75887      -0.16494
Nuclear contribution   :      1.19787      -1.88899       0.17361
                        -----------------------------------------
Total Dipole Moment    :      0.65550      -0.13012       0.00867
                        -----------------------------------------
Magnitude (a.u.)       :      0.66835
Magnitude (Debye)      :      1.69880

Rotational constants in cm-1:     4.324356     0.862329     0.836339
Rotational constants in MHz : 129640.937566 25851.987227 25072.804769

                             ****ORCA TERMINATED NORMALLY****
TOTAL RUN TIME: 0 days 0 hours 0 minutes 42 seconds 958 msec
