                         Program Version 4.1.2  - RELEASE  -
|  1> #Run DFT geometry optimization
|  2> ! wB97X-D3 def2-TZVP TIGHTSCF Grid5 FinalGrid6 Opt CHELPG PAL4
|  3>
|  4> %base "8_geo_opt"
|  5> %geom MaxIter 500
|  6> end
|  7>
|  8> %geom
|  9>   Constraints
| 10>     { A 5 0 1 C }
| 11>   end
| 12> end
| 13>
| 14>
| 15> * xyz 0 1
| 16>   C                    3.011308             -1.180897            0.598492
| 17>   O                    4.394230             -1.124729            0.875866
| 18>   H                    4.772196             -0.379022            0.412493
| 19>   H                    2.806434             -1.318965            -0.469350
| 20>   H                    2.611632             -2.040265            1.135898
| 21>   H                    2.487233             -0.283419            0.946635
| 22> *
| 23>
| 24>                          ****END OF INPUT****
 Total Charge           Charge          ....    0
 Multiplicity           Mult            ....    1
 Number of Electrons    NEL             ....   18
Dispersion correction           -0.000238867
FINAL SINGLE POINT ENERGY      -115.738045167683
Dispersion correction            ... done
Dispersion correction           -0.000238839
FINAL SINGLE POINT ENERGY      -115.738047994277
Dispersion correction            ... done
                    ***********************HURRAY********************

CARTESIAN COORDINATES (ANGSTROEM)
---------------------------------
  C      3.011234   -1.181119    0.598548
  O      4.394228   -1.125633    0.876149
  H      4.771898   -0.378109    0.412036
  H      2.806843   -1.318845   -0.469371
  H      2.611281   -2.040212    1.136059
  H      2.487549   -0.283379    0.946612

 Multiplicity           Mult            ....    1
 Number of Electrons    NEL             ....   18
 Basis Dimension        Dim             ....   86

ORBITAL ENERGIES
----------------

  NO   OCC          E(Eh)            E(eV)
   0   2.0000     -19.227943      -523.2189
   1   2.0000     -10.315115      -280.6886
   2   2.0000      -1.136707       -30.9314
   3   2.0000      -0.795309       -21.6415
   4   2.0000      -0.611445       -16.6383
   5   2.0000      -0.541901       -14.7459
   6   2.0000      -0.526407       -14.3243
   7   2.0000      -0.433696       -11.8015
   8   2.0000      -0.373519       -10.1640
   9   0.0000       0.116618         3.1733
  10   0.0000       0.156760         4.2657
  11   0.0000       0.202633         5.5139
  12   0.0000       0.205045         5.5796
  13   0.0000       0.226232         6.1561

MULLIKEN ATOMIC CHARGES
-----------------------
   0 C :   -0.150693
   1 O :   -0.477876
   2 H :    0.313016
   3 H :    0.098666
   4 H :    0.118253
   5 H :    0.098634
Sum of atomic charges:   -0.0000000

LOEWDIN ATOMIC CHARGES
----------------------
   0 C :   -0.384892
   1 O :   -0.076358
   2 H :    0.165748
   3 H :    0.093382
   4 H :    0.108652
   5 H :    0.093468

  Mayer bond orders larger than 0.1
B(  0-C ,  1-O ) :   0.9984 B(  0-C ,  3-H ) :   0.9754 B(  0-C ,  4-H ) :   0.9748
B(  0-C ,  5-H ) :   0.9759 B(  1-O ,  2-H ) :   0.9002

Dispersion correction           -0.000238757
FINAL SINGLE POINT ENERGY      -115.738048142733

DIPOLE MOMENT
-------------
                                X             Y             Z
Electronic contribution:      1.75276      -0.02787       0.42046
Nuclear contribution   :     -2.06264       0.47342      -0.82044
                        -----------------------------------------
Total Dipole Moment    :     -0.30988       0.44555      -0.39998
                        -----------------------------------------
Magnitude (a.u.)       :      0.67419
Magnitude (Debye)      :      1.71365

Rotational constants in cm-1:     4.290449     0.833924     0.805069
Rotational constants in MHz : 128624.417321 25000.420700 24135.348508

                             ****ORCA TERMINATED NORMALLY****
TOTAL RUN TIME: 0 days 0 hours 0 minutes 42 seconds 51 msec
