                         Program Version 4.1.2  - RELEASE  -
|  1> #Run DFT-D3 single point of the dimer
|  2> ! wB97X-D3 def2-TZVP TIGHTSCF CHELPG PMODEL PAL8
|  3>
|  4> %base "3-131_DFT_AB"
|  5>
|  6> %scf
|  7> MaxIter 1000
|  8> end
|  9>
| 10> * xyz 0 1
| 11>   C                      -5.125897            10.645962            -7.950531
| 12>   O                      -3.938590            11.012197            -8.624438
| 13>   H                      -4.199529            11.593696            -9.357696
| 14>   H                      -5.823865            11.454333            -7.798836
| 15>   H                      -5.709134            9.760700             -8.411397
| 16>   H                      -4.977675            10.337166            -6.942774
| 17>   C                      -1.059540            8.367356             -9.594192
| 18>   O                      -1.835546            9.496220             -9.881668
| 19>   H                      -2.261086            9.388767             -10.747348
| 20>   H                      -0.132696            8.440391             -10.077750
| 21>   H                      -0.828571            8.340224             -8.567162
| 22>   H                      -1.661701            7.452503             -9.892288
| 23> *
| 24>
| 25> #Run DFT-D3 single point of the molecule with dimer basis set
| 26> $new_job
| 27> %base "3-131_DFT_A"
| 28> ! wB97X-D3 def2-TZVP TIGHTSCF CHELPG PMODEL
| 29>
| 30> %scf
| 31> MaxIter 1000
| 32> end
| 33>
| 34> * xyz 0 1
| 35>   C                      -5.125897            10.645962            -7.950531
| 36>   O                      -3.938590            11.012197            -8.624438
| 37>   H                      -4.199529            11.593696            -9.357696
| 38>   H                      -5.823865            11.454333            -7.798836
| 39>   H                      -5.709134            9.760700             -8.411397
| 40>   H                      -4.977675            10.337166            -6.942774
| 41>   C                    : -1.059540            8.367356             -9.594192
| 42>   O                    : -1.835546            9.496220             -9.881668
| 43>   H                    : -2.261086            9.388767             -10.747348
| 44>   H                    : -0.132696            8.440391             -10.077750
| 45>   H                    : -0.828571            8.340224             -8.567162
| 46>   H                    : -1.661701            7.452503             -9.892288
| 47> *
| 48>
| 49> #Run DFT-D3 single point of the particle with dimer basis set
| 50> $new_job
| 51> %base "3-131_DFT_B"
| 52> ! wB97X-D3 def2-TZVP TIGHTSCF CHELPG PMODEL
| 53>
| 54> %scf
| 55> MaxIter 1000
| 56> end
| 57>
| 58> * xyz 0 1
| 59>   C                    : -5.125897            10.645962            -7.950531
| 60>   O                    : -3.938590            11.012197            -8.624438
| 61>   H                    : -4.199529            11.593696            -9.357696
| 62>   H                    : -5.823865            11.454333            -7.798836
| 63>   H                    : -5.709134            9.760700             -8.411397
| 64>   H                    : -4.977675            10.337166            -6.942774
| 65>   C                      -1.059540            8.367356             -9.594192
| 66>   O                      -1.835546            9.496220             -9.881668
| 67>   H                      -2.261086            9.388767             -10.747348
| 68>   H                      -0.132696            8.440391             -10.077750
| 69>   H                      -0.828571            8.340224             -8.567162
| 70>   H                      -1.661701            7.452503             -9.892288
| 71> *
| 72>
| 73>                          ****END OF INPUT****
 Total Charge           Charge          ....    0
 Multiplicity           Mult            ....    1
 Number of Electrons    NEL             ....   36
Dispersion correction           -0.001357984
FINAL SINGLE POINT ENERGY      -231.457594178001
Dispersion correction           -0.000269654
FINAL SINGLE POINT ENERGY      -115.731172728552

CARTESIAN COORDINATES (ANGSTROEM)
---------------------------------
  C     -5.125897   10.645962   -7.950531
  O     -3.938590   11.012197   -8.624438
  H     -4.199529   11.593696   -9.357696
  H     -5.823865   11.454333   -7.798836
  H     -5.709134    9.760700   -8.411397
  H     -4.977675   10.337166   -6.942774
  C     -1.059540    8.367356   -9.594192
  O     -1.835546    9.496220   -9.881668
  H     -2.261086    9.388767  -10.747348
  H     -0.132696    8.440391  -10.077750
  H     -0.828571    8.340224   -8.567162
  H     -1.661701    7.452503   -9.892288

 Multiplicity           Mult            ....    1
 Number of Electrons    NEL             ....   18
 Basis Dimension        Dim             ....  172

ORBITAL ENERGIES
----------------

  NO   OCC          E(Eh)            E(eV)
   0   2.0000     -19.226592      -523.1822
   1   2.0000     -10.306267      -280.4478
   2   2.0000      -1.136160       -30.9165
   3   2.0000      -0.798288       -21.7225
   4   2.0000      -0.606610       -16.5067
   5   2.0000      -0.550942       -14.9919
   6   2.0000      -0.535694       -14.5770
   7   2.0000      -0.426770       -11.6130
   8   2.0000      -0.371222       -10.1015
   9   0.0000       0.092267         2.5107
  10   0.0000       0.119007         3.2384
  11   0.0000       0.155958         4.2438
  12   0.0000       0.185968         5.0605
  13   0.0000       0.195265         5.3134

MULLIKEN ATOMIC CHARGES
-----------------------
   0 C :   -0.003659
   1 O :    0.001269
   2 H :   -0.001451
   3 H :   -0.000200
   4 H :    0.000115
   5 H :    0.000227
   6 C :   -0.145991
   7 O :   -0.483819
   8 H :    0.318036
   9 H :    0.102874
  10 H :    0.119069
  11 H :    0.093530
Sum of atomic charges:    0.0000000

LOEWDIN ATOMIC CHARGES
----------------------
   0 C :   -0.002450
   1 O :   -0.011159
   2 H :   -0.001872
   3 H :   -0.000088
   4 H :   -0.000160
   5 H :   -0.000050
   6 C :   -0.384359
   7 O :   -0.065207
   8 H :    0.175648
   9 H :    0.086120
  10 H :    0.098939
  11 H :    0.104637

  Mayer bond orders larger than 0.1
B(  6-C ,  7-O ) :   0.9934 B(  6-C ,  9-H ) :   0.9751 B(  6-C , 10-H ) :   0.9751
B(  6-C , 11-H ) :   0.9876 B(  7-O ,  8-H ) :   0.8947

Dispersion correction           -0.000221104
FINAL SINGLE POINT ENERGY      -115.731901278717

DIPOLE MOMENT
-------------
                                X             Y             Z
Electronic contribution:     -0.85263       1.47209      -0.21559
Nuclear contribution   :      0.91890      -1.98191      -0.20753
                        -----------------------------------------
Total Dipole Moment    :      0.06628      -0.50983      -0.42312
                        -----------------------------------------
Magnitude (a.u.)       :      0.66584
Magnitude (Debye)      :      1.69243

Rotational constants in cm-1:     4.317527     0.854677     0.820740
Rotational constants in MHz : 129436.200672 25622.557060 24605.175464

                             ****ORCA TERMINATED NORMALLY****
TOTAL RUN TIME: 0 days 0 hours 5 minutes 58 seconds 8 msec
