                         Program Version 4.1.2  - RELEASE  -
|  1> #Run DFT-D3 single point of the dimer
|  2> ! wB97X-D3 def2-TZVP TIGHTSCF CHELPG PMODEL PAL8
|  3>
|  4> %base "6-147_DFT_AB"
|  5>
|  6> %scf
|  7> MaxIter 1000
|  8> end
|  9>
| 10> * xyz 0 1
| 11>   C                      8.189695             -3.280318            4.656080
| 12>   O                      8.707699             -3.551856            5.981906
| 13>   H                      9.065366             -2.754849            6.337936
| 14>   H                      8.093782             -2.275202            4.356234
| 15>   H                      8.937084             -3.749127            3.947132
| 16>   H                      7.235108             -3.741698            4.433493
| 17>   C                      11.137992            -0.823771            6.798481
| 18>   O                      9.698968             -0.720846            6.376062
| 19>   H                      9.620379             -0.596343            5.433825
| 20>   H                      11.868299            -1.279774            6.078707
| 21>   H                      11.516395            0.206811             6.912381
| 22>   H                      11.258451            -1.332598            7.738747
| 23> *
| 24>
| 25> #Run DFT-D3 single point of the molecule with dimer basis set
| 26> $new_job
| 27> %base "6-147_DFT_A"
| 28> ! wB97X-D3 def2-TZVP TIGHTSCF CHELPG PMODEL
| 29>
| 30> %scf
| 31> MaxIter 1000
| 32> end
| 33>
| 34> * xyz 0 1
| 35>   C                      8.189695             -3.280318            4.656080
| 36>   O                      8.707699             -3.551856            5.981906
| 37>   H                      9.065366             -2.754849            6.337936
| 38>   H                      8.093782             -2.275202            4.356234
| 39>   H                      8.937084             -3.749127            3.947132
| 40>   H                      7.235108             -3.741698            4.433493
| 41>   C                    : 11.137992            -0.823771            6.798481
| 42>   O                    : 9.698968             -0.720846            6.376062
| 43>   H                    : 9.620379             -0.596343            5.433825
| 44>   H                    : 11.868299            -1.279774            6.078707
| 45>   H                    : 11.516395            0.206811             6.912381
| 46>   H                    : 11.258451            -1.332598            7.738747
| 47> *
| 48>
| 49> #Run DFT-D3 single point of the particle with dimer basis set
| 50> $new_job
| 51> %base "6-147_DFT_B"
| 52> ! wB97X-D3 def2-TZVP TIGHTSCF CHELPG PMODEL
| 53>
| 54> %scf
| 55> MaxIter 1000
| 56> end
| 57>
| 58> * xyz 0 1
| 59>   C                    : 8.189695             -3.280318            4.656080
| 60>   O                    : 8.707699             -3.551856            5.981906
| 61>   H                    : 9.065366             -2.754849            6.337936
| 62>   H                    : 8.093782             -2.275202            4.356234
| 63>   H                    : 8.937084             -3.749127            3.947132
| 64>   H                    : 7.235108             -3.741698            4.433493
| 65>   C                      11.137992            -0.823771            6.798481
| 66>   O                      9.698968             -0.720846            6.376062
| 67>   H                      9.620379             -0.596343            5.433825
| 68>   H                      11.868299            -1.279774            6.078707
| 69>   H                      11.516395            0.206811             6.912381
| 70>   H                      11.258451            -1.332598            7.738747
| 71> *
| 72>
| 73>                          ****END OF INPUT****
 Total Charge           Charge          ....    0
 Multiplicity           Mult            ....    1
 Number of Electrons    NEL             ....   36
Dispersion correction           -0.002023268
FINAL SINGLE POINT ENERGY      -231.465460258693
Dispersion correction           -0.000271708
FINAL SINGLE POINT ENERGY      -115.730251518870

CARTESIAN COORDINATES (ANGSTROEM)
---------------------------------
  C      8.189695   -3.280318    4.656080
  O      8.707699   -3.551856    5.981906
  H      9.065366   -2.754849    6.337936
  H      8.093782   -2.275202    4.356234
  H      8.937084   -3.749127    3.947132
  H      7.235108   -3.741698    4.433493
  C     11.137992   -0.823771    6.798481
  O      9.698968   -0.720846    6.376062
  H      9.620379   -0.596343    5.433825
  H     11.868299   -1.279774    6.078707
  H     11.516395    0.206811    6.912381
  H     11.258451   -1.332598    7.738747

 Multiplicity           Mult            ....    1
 Number of Electrons    NEL             ....   18
 Basis Dimension        Dim             ....  172

ORBITAL ENERGIES
----------------

  NO   OCC          E(Eh)            E(eV)
   0   2.0000     -19.232072      -523.3313
   1   2.0000     -10.324701      -280.9494
   2   2.0000      -1.112433       -30.2708
   3   2.0000      -0.801800       -21.8181
   4   2.0000      -0.599310       -16.3081
   5   2.0000      -0.532267       -14.4837
   6   2.0000      -0.514874       -14.0104
   7   2.0000      -0.439551       -11.9608
   8   2.0000      -0.375948       -10.2301
   9   0.0000       0.088448         2.4068
  10   0.0000       0.132114         3.5950
  11   0.0000       0.141163         3.8412
  12   0.0000       0.175663         4.7800
  13   0.0000       0.197593         5.3768

MULLIKEN ATOMIC CHARGES
-----------------------
   0 C :   -0.007639
   1 O :    0.000153
   2 H :   -0.002885
   3 H :   -0.002893
   4 H :    0.000888
   5 H :   -0.000719
   6 C :   -0.189239
   7 O :   -0.484480
   8 H :    0.315655
   9 H :    0.115869
  10 H :    0.119051
  11 H :    0.136240
Sum of atomic charges:    0.0000000

LOEWDIN ATOMIC CHARGES
----------------------
   0 C :   -0.007246
   1 O :   -0.004037
   2 H :   -0.029248
   3 H :   -0.002829
   4 H :   -0.000100
   5 H :   -0.000144
   6 C :   -0.327583
   7 O :   -0.098797
   8 H :    0.158693
   9 H :    0.103829
  10 H :    0.102529
  11 H :    0.104932

  Mayer bond orders larger than 0.1
B(  6-C ,  7-O ) :   0.9784 B(  6-C ,  9-H ) :   0.9660 B(  6-C , 10-H ) :   0.9761
B(  6-C , 11-H ) :   0.9729 B(  7-O ,  8-H ) :   0.8989

Dispersion correction           -0.000311636
FINAL SINGLE POINT ENERGY      -115.728327947618

DIPOLE MOMENT
-------------
                                X             Y             Z
Electronic contribution:     -1.83493       0.00308      -0.34499
Nuclear contribution   :      2.44933       0.04821      -0.05607
                        -----------------------------------------
Total Dipole Moment    :      0.61440       0.05129      -0.40106
                        -----------------------------------------
Magnitude (a.u.)       :      0.73550
Magnitude (Debye)      :      1.86950

Rotational constants in cm-1:     4.396880     0.739932     0.715293
Rotational constants in MHz : 131815.150477 22182.613815 21443.944429

                             ****ORCA TERMINATED NORMALLY****
TOTAL RUN TIME: 0 days 0 hours 1 minutes 2 seconds 897 msec
