                         Program Version 4.1.2  - RELEASE  -
|  1> #Run DFT-D3 single point of the dimer
|  2> ! wB97X-D3 def2-TZVP TIGHTSCF CHELPG PMODEL PAL8
|  3>
|  4> %base "22-118_DFT_AB"
|  5>
|  6> %scf
|  7> MaxIter 1000
|  8> end
|  9>
| 10> * xyz 0 1
| 11>   C                      9.127973             -4.206590            -5.553106
| 12>   O                      9.198352             -3.754074            -6.873676
| 13>   H                      8.767707             -2.895544            -7.051401
| 14>   H                      9.159039             -3.377369            -4.790389
| 15>   H                      8.346103             -4.875158            -5.367010
| 16>   H                      10.099926            -4.613253            -5.262392
| 17>   C                      6.151161             -1.735530            -8.769065
| 18>   O                      7.219285             -1.244227            -7.964567
| 19>   H                      6.934977             -0.470784            -7.466124
| 20>   H                      6.370894             -1.592989            -9.827518
| 21>   H                      6.054427             -2.841521            -8.626636
| 22>   H                      5.204015             -1.181408            -8.545412
| 23> *
| 24>
| 25> #Run DFT-D3 single point of the molecule with dimer basis set
| 26> $new_job
| 27> %base "22-118_DFT_A"
| 28> ! wB97X-D3 def2-TZVP TIGHTSCF CHELPG PMODEL
| 29>
| 30> %scf
| 31> MaxIter 1000
| 32> end
| 33>
| 34> * xyz 0 1
| 35>   C                      9.127973             -4.206590            -5.553106
| 36>   O                      9.198352             -3.754074            -6.873676
| 37>   H                      8.767707             -2.895544            -7.051401
| 38>   H                      9.159039             -3.377369            -4.790389
| 39>   H                      8.346103             -4.875158            -5.367010
| 40>   H                      10.099926            -4.613253            -5.262392
| 41>   C                    : 6.151161             -1.735530            -8.769065
| 42>   O                    : 7.219285             -1.244227            -7.964567
| 43>   H                    : 6.934977             -0.470784            -7.466124
| 44>   H                    : 6.370894             -1.592989            -9.827518
| 45>   H                    : 6.054427             -2.841521            -8.626636
| 46>   H                    : 5.204015             -1.181408            -8.545412
| 47> *
| 48>
| 49> #Run DFT-D3 single point of the particle with dimer basis set
| 50> $new_job
| 51> %base "22-118_DFT_B"
| 52> ! wB97X-D3 def2-TZVP TIGHTSCF CHELPG PMODEL
| 53>
| 54> %scf
| 55> MaxIter 1000
| 56> end
| 57>
| 58> * xyz 0 1
| 59>   C                    : 9.127973             -4.206590            -5.553106
| 60>   O                    : 9.198352             -3.754074            -6.873676
| 61>   H                    : 8.767707             -2.895544            -7.051401
| 62>   H                    : 9.159039             -3.377369            -4.790389
| 63>   H                    : 8.346103             -4.875158            -5.367010
| 64>   H                    : 10.099926            -4.613253            -5.262392
| 65>   C                      6.151161             -1.735530            -8.769065
| 66>   O                      7.219285             -1.244227            -7.964567
| 67>   H                      6.934977             -0.470784            -7.466124
| 68>   H                      6.370894             -1.592989            -9.827518
| 69>   H                      6.054427             -2.841521            -8.626636
| 70>   H                      5.204015             -1.181408            -8.545412
| 71> *
| 72>
| 73>                          ****END OF INPUT****
 Total Charge           Charge          ....    0
 Multiplicity           Mult            ....    1
 Number of Electrons    NEL             ....   36
Dispersion correction           -0.001397744
FINAL SINGLE POINT ENERGY      -231.469192411345
Dispersion correction           -0.000264855
FINAL SINGLE POINT ENERGY      -115.728442608451

CARTESIAN COORDINATES (ANGSTROEM)
---------------------------------
  C      9.127973   -4.206590   -5.553106
  O      9.198352   -3.754074   -6.873676
  H      8.767707   -2.895544   -7.051401
  H      9.159039   -3.377369   -4.790389
  H      8.346103   -4.875158   -5.367010
  H     10.099926   -4.613253   -5.262392
  C      6.151161   -1.735530   -8.769065
  O      7.219285   -1.244227   -7.964567
  H      6.934977   -0.470784   -7.466124
  H      6.370894   -1.592989   -9.827518
  H      6.054427   -2.841521   -8.626636
  H      5.204015   -1.181408   -8.545412

 Multiplicity           Mult            ....    1
 Number of Electrons    NEL             ....   18
 Basis Dimension        Dim             ....  172

ORBITAL ENERGIES
----------------

  NO   OCC          E(Eh)            E(eV)
   0   2.0000     -19.228946      -523.2462
   1   2.0000     -10.319668      -280.8124
   2   2.0000      -1.130836       -30.7716
   3   2.0000      -0.792806       -21.5734
   4   2.0000      -0.608328       -16.5535
   5   2.0000      -0.533616       -14.5204
   6   2.0000      -0.530170       -14.4266
   7   2.0000      -0.431973       -11.7546
   8   2.0000      -0.371211       -10.1012
   9   0.0000       0.095606         2.6016
  10   0.0000       0.116531         3.1710
  11   0.0000       0.151936         4.1344
  12   0.0000       0.179099         4.8735
  13   0.0000       0.201778         5.4906

MULLIKEN ATOMIC CHARGES
-----------------------
   0 C :   -0.000801
   1 O :   -0.000343
   2 H :   -0.005610
   3 H :   -0.000123
   4 H :    0.000130
   5 H :   -0.000067
   6 C :   -0.165639
   7 O :   -0.474647
   8 H :    0.316129
   9 H :    0.111320
  10 H :    0.116313
  11 H :    0.103338
Sum of atomic charges:   -0.0000000

LOEWDIN ATOMIC CHARGES
----------------------
   0 C :   -0.000512
   1 O :   -0.000956
   2 H :   -0.015784
   3 H :   -0.000053
   4 H :   -0.000005
   5 H :   -0.000013
   6 C :   -0.380262
   7 O :   -0.077050
   8 H :    0.168831
   9 H :    0.096409
  10 H :    0.107403
  11 H :    0.101993

  Mayer bond orders larger than 0.1
B(  6-C ,  7-O ) :   1.0004 B(  6-C ,  9-H ) :   0.9737 B(  6-C , 10-H ) :   0.9751
B(  6-C , 11-H ) :   0.9799 B(  7-O ,  8-H ) :   0.8974

Dispersion correction           -0.000258813
FINAL SINGLE POINT ENERGY      -115.734533052965

DIPOLE MOMENT
-------------
                                X             Y             Z
Electronic contribution:      1.40202       0.53920       0.99114
Nuclear contribution   :     -2.02657      -0.21581      -1.00103
                        -----------------------------------------
Total Dipole Moment    :     -0.62455       0.32339      -0.00990
                        -----------------------------------------
Magnitude (a.u.)       :      0.70338
Magnitude (Debye)      :      1.78785

Rotational constants in cm-1:     4.191575     0.821118     0.784778
Rotational constants in MHz : 125660.267952 24616.499631 23527.045273

                             ****ORCA TERMINATED NORMALLY****
TOTAL RUN TIME: 0 days 0 hours 1 minutes 7 seconds 437 msec
