                         Program Version 4.1.2  - RELEASE  -
|  1> #Run DFT-D3 single point of the dimer
|  2> ! wB97X-D3 def2-TZVP TIGHTSCF CHELPG PMODEL PAL8
|  3>
|  4> %base "3-16_DFT_AB"
|  5>
|  6> %scf
|  7> MaxIter 1000
|  8> end
|  9>
| 10> * xyz 0 1
| 11>   C                      0.141561             6.247437             4.342902
| 12>   O                      -0.671210            6.055133             5.470995
| 13>   H                      -0.143852            5.652897             6.120910
| 14>   H                      0.997028             6.871239             4.544806
| 15>   H                      0.411989             5.326716             3.898990
| 16>   H                      -0.387381            6.739469             3.540981
| 17>   C                      3.733299             6.859610             2.720790
| 18>   O                      3.502867             7.423119             1.417121
| 19>   H                      3.279573             8.337409             1.449932
| 20>   H                      4.146338             5.882763             2.750245
| 21>   H                      4.371896             7.503709             3.329809
| 22>   H                      2.808982             6.745300             3.255661
| 23> *
| 24>
| 25> #Run DFT-D3 single point of the molecule with dimer basis set
| 26> $new_job
| 27> %base "3-16_DFT_A"
| 28> ! wB97X-D3 def2-TZVP TIGHTSCF CHELPG PMODEL
| 29>
| 30> %scf
| 31> MaxIter 1000
| 32> end
| 33>
| 34> * xyz 0 1
| 35>   C                      0.141561             6.247437             4.342902
| 36>   O                      -0.671210            6.055133             5.470995
| 37>   H                      -0.143852            5.652897             6.120910
| 38>   H                      0.997028             6.871239             4.544806
| 39>   H                      0.411989             5.326716             3.898990
| 40>   H                      -0.387381            6.739469             3.540981
| 41>   C                    : 3.733299             6.859610             2.720790
| 42>   O                    : 3.502867             7.423119             1.417121
| 43>   H                    : 3.279573             8.337409             1.449932
| 44>   H                    : 4.146338             5.882763             2.750245
| 45>   H                    : 4.371896             7.503709             3.329809
| 46>   H                    : 2.808982             6.745300             3.255661
| 47> *
| 48>
| 49> #Run DFT-D3 single point of the particle with dimer basis set
| 50> $new_job
| 51> %base "3-16_DFT_B"
| 52> ! wB97X-D3 def2-TZVP TIGHTSCF CHELPG PMODEL
| 53>
| 54> %scf
| 55> MaxIter 1000
| 56> end
| 57>
| 58> * xyz 0 1
| 59>   C                    : 0.141561             6.247437             4.342902
| 60>   O                    : -0.671210            6.055133             5.470995
| 61>   H                    : -0.143852            5.652897             6.120910
| 62>   H                    : 0.997028             6.871239             4.544806
| 63>   H                    : 0.411989             5.326716             3.898990
| 64>   H                    : -0.387381            6.739469             3.540981
| 65>   C                      3.733299             6.859610             2.720790
| 66>   O                      3.502867             7.423119             1.417121
| 67>   H                      3.279573             8.337409             1.449932
| 68>   H                      4.146338             5.882763             2.750245
| 69>   H                      4.371896             7.503709             3.329809
| 70>   H                      2.808982             6.745300             3.255661
| 71> *
| 72>
| 73>                          ****END OF INPUT****
 Total Charge           Charge          ....    0
 Multiplicity           Mult            ....    1
 Number of Electrons    NEL             ....   36
Dispersion correction           -0.001358290
FINAL SINGLE POINT ENERGY      -231.465607225179
Dispersion correction           -0.000225441
FINAL SINGLE POINT ENERGY      -115.733692982672

CARTESIAN COORDINATES (ANGSTROEM)
---------------------------------
  C      0.141561    6.247437    4.342902
  O     -0.671210    6.055133    5.470995
  H     -0.143852    5.652897    6.120910
  H      0.997028    6.871239    4.544806
  H      0.411989    5.326716    3.898990
  H     -0.387381    6.739469    3.540981
  C      3.733299    6.859610    2.720790
  O      3.502867    7.423119    1.417121
  H      3.279573    8.337409    1.449932
  H      4.146338    5.882763    2.750245
  H      4.371896    7.503709    3.329809
  H      2.808982    6.745300    3.255661

 Multiplicity           Mult            ....    1
 Number of Electrons    NEL             ....   18
 Basis Dimension        Dim             ....  172

ORBITAL ENERGIES
----------------

  NO   OCC          E(Eh)            E(eV)
   0   2.0000     -19.226574      -523.1817
   1   2.0000     -10.310710      -280.5687
   2   2.0000      -1.128663       -30.7125
   3   2.0000      -0.806383       -21.9428
   4   2.0000      -0.610415       -16.6102
   5   2.0000      -0.538620       -14.6566
   6   2.0000      -0.533202       -14.5092
   7   2.0000      -0.429250       -11.6805
   8   2.0000      -0.373829       -10.1724
   9   0.0000       0.083840         2.2814
  10   0.0000       0.121481         3.3057
  11   0.0000       0.153562         4.1786
  12   0.0000       0.167865         4.5678
  13   0.0000       0.193579         5.2676

MULLIKEN ATOMIC CHARGES
-----------------------
   0 C :    0.005900
   1 O :    0.000183
   2 H :    0.000055
   3 H :   -0.001913
   4 H :   -0.001410
   5 H :   -0.000791
   6 C :   -0.158141
   7 O :   -0.489338
   8 H :    0.315766
   9 H :    0.126129
  10 H :    0.106929
  11 H :    0.096630
Sum of atomic charges:   -0.0000000

LOEWDIN ATOMIC CHARGES
----------------------
   0 C :   -0.006192
   1 O :   -0.000030
   2 H :   -0.000003
   3 H :   -0.006172
   4 H :   -0.000769
   5 H :   -0.000162
   6 C :   -0.354159
   7 O :   -0.085713
   8 H :    0.154793
   9 H :    0.103279
  10 H :    0.096922
  11 H :    0.098205

  Mayer bond orders larger than 0.1
B(  6-C ,  7-O ) :   0.9901 B(  6-C ,  9-H ) :   0.9698 B(  6-C , 10-H ) :   0.9872
B(  6-C , 11-H ) :   0.9753 B(  7-O ,  8-H ) :   0.8991

Dispersion correction           -0.000258744
FINAL SINGLE POINT ENERGY      -115.731660221723

DIPOLE MOMENT
-------------
                                X             Y             Z
Electronic contribution:     -0.21203       0.54956      -1.76774
Nuclear contribution   :      0.16253      -0.20686       2.35320
                        -----------------------------------------
Total Dipole Moment    :     -0.04950       0.34270       0.58547
                        -----------------------------------------
Magnitude (a.u.)       :      0.68019
Magnitude (Debye)      :      1.72891

Rotational constants in cm-1:     4.623710     0.797687     0.772900
Rotational constants in MHz : 138615.330838 23914.067614 23170.951750

                             ****ORCA TERMINATED NORMALLY****
TOTAL RUN TIME: 0 days 0 hours 5 minutes 28 seconds 522 msec
