                         Program Version 4.1.2  - RELEASE  -
|  1> #Run DFT-D3 single point of the dimer
|  2> ! wB97X-D3 def2-TZVP TIGHTSCF CHELPG PMODEL PAL8
|  3>
|  4> %base "1-165_DFT_AB"
|  5>
|  6> %scf
|  7> MaxIter 1000
|  8> end
|  9>
| 10> * xyz 0 1
| 11>   C                      0.144095             -7.252960            6.891746
| 12>   O                      0.342838             -6.072351            7.719867
| 13>   H                      0.144008             -6.243576            8.650731
| 14>   H                      -0.412885            -7.910515            7.511644
| 15>   H                      -0.473165            -7.072138            6.063705
| 16>   H                      1.048022             -7.622503            6.470122
| 17>   C                      -4.439394            -5.866600            5.348677
| 18>   O                      -4.186637            -7.062473            6.134142
| 19>   H                      -3.738023            -6.884358            6.968323
| 20>   H                      -4.397404            -6.036696            4.230191
| 21>   H                      -5.435929            -5.555591            5.585817
| 22>   H                      -3.862727            -4.997880            5.734016
| 23> *
| 24>
| 25> #Run DFT-D3 single point of the molecule with dimer basis set
| 26> $new_job
| 27> %base "1-165_DFT_A"
| 28> ! wB97X-D3 def2-TZVP TIGHTSCF CHELPG PMODEL
| 29>
| 30> %scf
| 31> MaxIter 1000
| 32> end
| 33>
| 34> * xyz 0 1
| 35>   C                      0.144095             -7.252960            6.891746
| 36>   O                      0.342838             -6.072351            7.719867
| 37>   H                      0.144008             -6.243576            8.650731
| 38>   H                      -0.412885            -7.910515            7.511644
| 39>   H                      -0.473165            -7.072138            6.063705
| 40>   H                      1.048022             -7.622503            6.470122
| 41>   C                    : -4.439394            -5.866600            5.348677
| 42>   O                    : -4.186637            -7.062473            6.134142
| 43>   H                    : -3.738023            -6.884358            6.968323
| 44>   H                    : -4.397404            -6.036696            4.230191
| 45>   H                    : -5.435929            -5.555591            5.585817
| 46>   H                    : -3.862727            -4.997880            5.734016
| 47> *
| 48>
| 49> #Run DFT-D3 single point of the particle with dimer basis set
| 50> $new_job
| 51> %base "1-165_DFT_B"
| 52> ! wB97X-D3 def2-TZVP TIGHTSCF CHELPG PMODEL
| 53>
| 54> %scf
| 55> MaxIter 1000
| 56> end
| 57>
| 58> * xyz 0 1
| 59>   C                    : 0.144095             -7.252960            6.891746
| 60>   O                    : 0.342838             -6.072351            7.719867
| 61>   H                    : 0.144008             -6.243576            8.650731
| 62>   H                    : -0.412885            -7.910515            7.511644
| 63>   H                    : -0.473165            -7.072138            6.063705
| 64>   H                    : 1.048022             -7.622503            6.470122
| 65>   C                      -4.439394            -5.866600            5.348677
| 66>   O                      -4.186637            -7.062473            6.134142
| 67>   H                      -3.738023            -6.884358            6.968323
| 68>   H                      -4.397404            -6.036696            4.230191
| 69>   H                      -5.435929            -5.555591            5.585817
| 70>   H                      -3.862727            -4.997880            5.734016
| 71> *
| 72>
| 73>                          ****END OF INPUT****
 Total Charge           Charge          ....    0
 Multiplicity           Mult            ....    1
 Number of Electrons    NEL             ....   36
Dispersion correction           -0.001078856
FINAL SINGLE POINT ENERGY      -231.456645701584
Dispersion correction           -0.000249000
FINAL SINGLE POINT ENERGY      -115.727351546921

CARTESIAN COORDINATES (ANGSTROEM)
---------------------------------
  C      0.144095   -7.252960    6.891746
  O      0.342838   -6.072351    7.719867
  H      0.144008   -6.243576    8.650731
  H     -0.412885   -7.910515    7.511644
  H     -0.473165   -7.072138    6.063705
  H      1.048022   -7.622503    6.470122
  C     -4.439394   -5.866600    5.348677
  O     -4.186637   -7.062473    6.134142
  H     -3.738023   -6.884358    6.968323
  H     -4.397404   -6.036696    4.230191
  H     -5.435929   -5.555591    5.585817
  H     -3.862727   -4.997880    5.734016

 Multiplicity           Mult            ....    1
 Number of Electrons    NEL             ....   18
 Basis Dimension        Dim             ....  172

ORBITAL ENERGIES
----------------

  NO   OCC          E(Eh)            E(eV)
   0   2.0000     -19.227276      -523.2008
   1   2.0000     -10.321054      -280.8502
   2   2.0000      -1.120178       -30.4816
   3   2.0000      -0.797125       -21.6909
   4   2.0000      -0.605732       -16.4828
   5   2.0000      -0.531799       -14.4710
   6   2.0000      -0.524281       -14.2664
   7   2.0000      -0.431130       -11.7316
   8   2.0000      -0.369578       -10.0567
   9   0.0000       0.079998         2.1769
  10   0.0000       0.122591         3.3359
  11   0.0000       0.146864         3.9964
  12   0.0000       0.162584         4.4241
  13   0.0000       0.193205         5.2574

MULLIKEN ATOMIC CHARGES
-----------------------
   0 C :   -0.000347
   1 O :    0.000141
   2 H :    0.000023
   3 H :    0.000134
   4 H :   -0.002522
   5 H :   -0.000285
   6 C :   -0.168175
   7 O :   -0.495850
   8 H :    0.318975
   9 H :    0.127095
  10 H :    0.112490
  11 H :    0.108323
Sum of atomic charges:    0.0000000

LOEWDIN ATOMIC CHARGES
----------------------
   0 C :   -0.001159
   1 O :   -0.000018
   2 H :   -0.000006
   3 H :   -0.000198
   4 H :   -0.001108
   5 H :   -0.000033
   6 C :   -0.361041
   7 O :   -0.111907
   8 H :    0.166109
   9 H :    0.115534
  10 H :    0.092380
  11 H :    0.101449

  Mayer bond orders larger than 0.1
B(  6-C ,  7-O ) :   0.9850 B(  6-C ,  9-H ) :   0.9676 B(  6-C , 10-H ) :   0.9793
B(  6-C , 11-H ) :   0.9789 B(  7-O ,  8-H ) :   0.8946

Dispersion correction           -0.000270482
FINAL SINGLE POINT ENERGY      -115.728240905342

DIPOLE MOMENT
-------------
                                X             Y             Z
Electronic contribution:      0.35921      -1.57530       0.77078
Nuclear contribution   :     -0.20659       2.22528      -0.54497
                        -----------------------------------------
Total Dipole Moment    :      0.15262       0.64998       0.22581
                        -----------------------------------------
Magnitude (a.u.)       :      0.70481
Magnitude (Debye)      :      1.79149

Rotational constants in cm-1:     4.288638     0.793687     0.754078
Rotational constants in MHz : 128570.147414 23794.126078 22606.683182

                             ****ORCA TERMINATED NORMALLY****
TOTAL RUN TIME: 0 days 0 hours 6 minutes 15 seconds 578 msec
