                         Program Version 4.1.2  - RELEASE  -
|  1> #Run DFT-D3 single point of the dimer
|  2> ! wB97X-D3 def2-TZVP TIGHTSCF CHELPG PMODEL PAL8
|  3>
|  4> %base "11-145_DFT_AB"
|  5>
|  6> %scf
|  7> MaxIter 1000
|  8> end
|  9>
| 10> * xyz 0 1
| 11>   C                      3.963104             -1.894302            -6.831238
| 12>   O                      4.841024             -1.628224            -5.724773
| 13>   H                      5.315042             -2.462843            -5.462940
| 14>   H                      3.675892             -0.939994            -7.360445
| 15>   H                      4.399781             -2.566132            -7.606293
| 16>   H                      3.045565             -2.437522            -6.505905
| 17>   C                      4.437092             -0.808071            -10.256159
| 18>   O                      3.049270             -0.932101            -9.980154
| 19>   H                      2.555484             -1.028475            -10.807407
| 20>   H                      5.159058             -1.269933            -9.547572
| 21>   H                      4.795339             -1.273333            -11.214875
| 22>   H                      4.641081             0.196038             -10.414987
| 23> *
| 24>
| 25> #Run DFT-D3 single point of the molecule with dimer basis set
| 26> $new_job
| 27> %base "11-145_DFT_A"
| 28> ! wB97X-D3 def2-TZVP TIGHTSCF CHELPG PMODEL
| 29>
| 30> %scf
| 31> MaxIter 1000
| 32> end
| 33>
| 34> * xyz 0 1
| 35>   C                      3.963104             -1.894302            -6.831238
| 36>   O                      4.841024             -1.628224            -5.724773
| 37>   H                      5.315042             -2.462843            -5.462940
| 38>   H                      3.675892             -0.939994            -7.360445
| 39>   H                      4.399781             -2.566132            -7.606293
| 40>   H                      3.045565             -2.437522            -6.505905
| 41>   C                    : 4.437092             -0.808071            -10.256159
| 42>   O                    : 3.049270             -0.932101            -9.980154
| 43>   H                    : 2.555484             -1.028475            -10.807407
| 44>   H                    : 5.159058             -1.269933            -9.547572
| 45>   H                    : 4.795339             -1.273333            -11.214875
| 46>   H                    : 4.641081             0.196038             -10.414987
| 47> *
| 48>
| 49> #Run DFT-D3 single point of the particle with dimer basis set
| 50> $new_job
| 51> %base "11-145_DFT_B"
| 52> ! wB97X-D3 def2-TZVP TIGHTSCF CHELPG PMODEL
| 53>
| 54> %scf
| 55> MaxIter 1000
| 56> end
| 57>
| 58> * xyz 0 1
| 59>   C                    : 3.963104             -1.894302            -6.831238
| 60>   O                    : 4.841024             -1.628224            -5.724773
| 61>   H                    : 5.315042             -2.462843            -5.462940
| 62>   H                    : 3.675892             -0.939994            -7.360445
| 63>   H                    : 4.399781             -2.566132            -7.606293
| 64>   H                    : 3.045565             -2.437522            -6.505905
| 65>   C                      4.437092             -0.808071            -10.256159
| 66>   O                      3.049270             -0.932101            -9.980154
| 67>   H                      2.555484             -1.028475            -10.807407
| 68>   H                      5.159058             -1.269933            -9.547572
| 69>   H                      4.795339             -1.273333            -11.214875
| 70>   H                      4.641081             0.196038             -10.414987
| 71> *
| 72>
| 73>                          ****END OF INPUT****
 Total Charge           Charge          ....    0
 Multiplicity           Mult            ....    1
 Number of Electrons    NEL             ....   36
Dispersion correction           -0.001881848
FINAL SINGLE POINT ENERGY      -231.462003485386
Dispersion correction           -0.000276692
FINAL SINGLE POINT ENERGY      -115.732876412940

CARTESIAN COORDINATES (ANGSTROEM)
---------------------------------
  C      3.963104   -1.894302   -6.831238
  O      4.841024   -1.628224   -5.724773
  H      5.315042   -2.462843   -5.462940
  H      3.675892   -0.939994   -7.360445
  H      4.399781   -2.566132   -7.606293
  H      3.045565   -2.437522   -6.505905
  C      4.437092   -0.808071  -10.256159
  O      3.049270   -0.932101   -9.980154
  H      2.555484   -1.028475  -10.807407
  H      5.159058   -1.269933   -9.547572
  H      4.795339   -1.273333  -11.214875
  H      4.641081    0.196038  -10.414987

 Multiplicity           Mult            ....    1
 Number of Electrons    NEL             ....   18
 Basis Dimension        Dim             ....  172

ORBITAL ENERGIES
----------------

  NO   OCC          E(Eh)            E(eV)
   0   2.0000     -19.233048      -523.3578
   1   2.0000     -10.312845      -280.6268
   2   2.0000      -1.132704       -30.8224
   3   2.0000      -0.799558       -21.7571
   4   2.0000      -0.612860       -16.6768
   5   2.0000      -0.549300       -14.9472
   6   2.0000      -0.518598       -14.1118
   7   2.0000      -0.426904       -11.6167
   8   2.0000      -0.376026       -10.2322
   9   0.0000       0.094937         2.5834
  10   0.0000       0.119426         3.2498
  11   0.0000       0.149286         4.0623
  12   0.0000       0.181693         4.9441
  13   0.0000       0.194474         5.2919

MULLIKEN ATOMIC CHARGES
-----------------------
   0 C :    0.001740
   1 O :   -0.000007
   2 H :    0.000004
   3 H :   -0.002387
   4 H :   -0.000776
   5 H :   -0.000510
   6 C :   -0.177243
   7 O :   -0.476045
   8 H :    0.319303
   9 H :    0.119510
  10 H :    0.098084
  11 H :    0.118328
Sum of atomic charges:   -0.0000000

LOEWDIN ATOMIC CHARGES
----------------------
   0 C :   -0.009077
   1 O :   -0.000026
   2 H :   -0.000009
   3 H :   -0.005073
   4 H :   -0.002789
   5 H :   -0.000179
   6 C :   -0.382536
   7 O :   -0.076069
   8 H :    0.175447
   9 H :    0.113830
  10 H :    0.101522
  11 H :    0.084959

  Mayer bond orders larger than 0.1
B(  6-C ,  7-O ) :   0.9928 B(  6-C ,  9-H ) :   0.9690 B(  6-C , 10-H ) :   0.9750
B(  6-C , 11-H ) :   0.9840 B(  7-O ,  8-H ) :   0.8931

Dispersion correction           -0.000261819
FINAL SINGLE POINT ENERGY      -115.727355059622

DIPOLE MOMENT
-------------
                                X             Y             Z
Electronic contribution:     -1.85347      -0.12345       0.63105
Nuclear contribution   :      2.10052       0.11393      -1.30217
                        -----------------------------------------
Total Dipole Moment    :      0.24705      -0.00952      -0.67111
                        -----------------------------------------
Magnitude (a.u.)       :      0.71520
Magnitude (Debye)      :      1.81790

Rotational constants in cm-1:     4.514521     0.809539     0.781567
Rotational constants in MHz : 135341.930790 24269.361558 23430.779573

                             ****ORCA TERMINATED NORMALLY****
TOTAL RUN TIME: 0 days 0 hours 1 minutes 11 seconds 821 msec
