                         Program Version 4.1.2  - RELEASE  -
|  1> #Run DFT-D3 single point of the dimer
|  2> ! wB97X-D3 def2-TZVP TIGHTSCF CHELPG PMODEL PAL8
|  3>
|  4> %base "15-144_DFT_AB"
|  5>
|  6> %scf
|  7> MaxIter 1000
|  8> end
|  9>
| 10> * xyz 0 1
| 11>   C                      -4.484758            8.407967             3.688813
| 12>   O                      -4.479491            9.748562             3.262175
| 13>   H                      -3.579098            10.059647            3.079137
| 14>   H                      -4.119576            7.755454             2.874660
| 15>   H                      -3.874546            8.304731             4.547465
| 16>   H                      -5.538848            8.038277             3.916587
| 17>   C                      -3.343531            6.125688             0.309255
| 18>   O                      -4.783303            6.347521             0.275186
| 19>   H                      -5.034317            7.018130             -0.422322
| 20>   H                      -2.895862            5.609519             -0.543921
| 21>   H                      -2.784280            7.100064             0.629029
| 22>   H                      -3.128050            5.492418             1.210818
| 23> *
| 24>
| 25> #Run DFT-D3 single point of the molecule with dimer basis set
| 26> $new_job
| 27> %base "15-144_DFT_A"
| 28> ! wB97X-D3 def2-TZVP TIGHTSCF CHELPG PMODEL
| 29>
| 30> %scf
| 31> MaxIter 1000
| 32> end
| 33>
| 34> * xyz 0 1
| 35>   C                      -4.484758            8.407967             3.688813
| 36>   O                      -4.479491            9.748562             3.262175
| 37>   H                      -3.579098            10.059647            3.079137
| 38>   H                      -4.119576            7.755454             2.874660
| 39>   H                      -3.874546            8.304731             4.547465
| 40>   H                      -5.538848            8.038277             3.916587
| 41>   C                    : -3.343531            6.125688             0.309255
| 42>   O                    : -4.783303            6.347521             0.275186
| 43>   H                    : -5.034317            7.018130             -0.422322
| 44>   H                    : -2.895862            5.609519             -0.543921
| 45>   H                    : -2.784280            7.100064             0.629029
| 46>   H                    : -3.128050            5.492418             1.210818
| 47> *
| 48>
| 49> #Run DFT-D3 single point of the particle with dimer basis set
| 50> $new_job
| 51> %base "15-144_DFT_B"
| 52> ! wB97X-D3 def2-TZVP TIGHTSCF CHELPG PMODEL
| 53>
| 54> %scf
| 55> MaxIter 1000
| 56> end
| 57>
| 58> * xyz 0 1
| 59>   C                    : -4.484758            8.407967             3.688813
| 60>   O                    : -4.479491            9.748562             3.262175
| 61>   H                    : -3.579098            10.059647            3.079137
| 62>   H                    : -4.119576            7.755454             2.874660
| 63>   H                    : -3.874546            8.304731             4.547465
| 64>   H                    : -5.538848            8.038277             3.916587
| 65>   C                      -3.343531            6.125688             0.309255
| 66>   O                      -4.783303            6.347521             0.275186
| 67>   H                      -5.034317            7.018130             -0.422322
| 68>   H                      -2.895862            5.609519             -0.543921
| 69>   H                      -2.784280            7.100064             0.629029
| 70>   H                      -3.128050            5.492418             1.210818
| 71> *
| 72>
| 73>                          ****END OF INPUT****
 Total Charge           Charge          ....    0
 Multiplicity           Mult            ....    1
 Number of Electrons    NEL             ....   36
Dispersion correction           -0.001540856
FINAL SINGLE POINT ENERGY      -231.462397560853
Dispersion correction           -0.000238525
FINAL SINGLE POINT ENERGY      -115.733529127952

CARTESIAN COORDINATES (ANGSTROEM)
---------------------------------
  C     -4.484758    8.407967    3.688813
  O     -4.479491    9.748562    3.262175
  H     -3.579098   10.059647    3.079137
  H     -4.119576    7.755454    2.874660
  H     -3.874546    8.304731    4.547465
  H     -5.538848    8.038277    3.916587
  C     -3.343531    6.125688    0.309255
  O     -4.783303    6.347521    0.275186
  H     -5.034317    7.018130   -0.422322
  H     -2.895862    5.609519   -0.543921
  H     -2.784280    7.100064    0.629029
  H     -3.128050    5.492418    1.210818

 Multiplicity           Mult            ....    1
 Number of Electrons    NEL             ....   18
 Basis Dimension        Dim             ....  172

ORBITAL ENERGIES
----------------

  NO   OCC          E(Eh)            E(eV)
   0   2.0000     -19.235930      -523.4363
   1   2.0000     -10.327460      -281.0245
   2   2.0000      -1.115381       -30.3511
   3   2.0000      -0.789668       -21.4880
   4   2.0000      -0.596120       -16.2213
   5   2.0000      -0.538281       -14.6474
   6   2.0000      -0.513671       -13.9777
   7   2.0000      -0.423644       -11.5280
   8   2.0000      -0.377530       -10.2731
   9   0.0000       0.087787         2.3888
  10   0.0000       0.119172         3.2428
  11   0.0000       0.143513         3.9052
  12   0.0000       0.163464         4.4481
  13   0.0000       0.194725         5.2987

MULLIKEN ATOMIC CHARGES
-----------------------
   0 C :   -0.006475
   1 O :    0.000177
   2 H :   -0.000013
   3 H :    0.006957
   4 H :    0.000005
   5 H :    0.000390
   6 C :   -0.194084
   7 O :   -0.487956
   8 H :    0.318066
   9 H :    0.129143
  10 H :    0.108065
  11 H :    0.125726
Sum of atomic charges:   -0.0000000

LOEWDIN ATOMIC CHARGES
----------------------
   0 C :   -0.002410
   1 O :   -0.000010
   2 H :   -0.000033
   3 H :   -0.003035
   4 H :   -0.000026
   5 H :   -0.000130
   6 C :   -0.378286
   7 O :   -0.123199
   8 H :    0.186432
   9 H :    0.095803
  10 H :    0.109224
  11 H :    0.115669

  Mayer bond orders larger than 0.1
B(  6-C ,  7-O ) :   0.9938 B(  6-C ,  9-H ) :   0.9596 B(  6-C , 10-H ) :   0.9762
B(  6-C , 11-H ) :   0.9740 B(  7-O ,  8-H ) :   0.8915

Dispersion correction           -0.000306261
FINAL SINGLE POINT ENERGY      -115.727679178557

DIPOLE MOMENT
-------------
                                X             Y             Z
Electronic contribution:     -1.86602       0.12614      -0.17096
Nuclear contribution   :      2.30323       0.17398      -0.23429
                        -----------------------------------------
Total Dipole Moment    :      0.43721       0.30012      -0.40525
                        -----------------------------------------
Magnitude (a.u.)       :      0.66742
Magnitude (Debye)      :      1.69646

Rotational constants in cm-1:     4.119975     0.768204     0.753528
Rotational constants in MHz : 123513.749419 23030.170840 22590.200113

                             ****ORCA TERMINATED NORMALLY****
TOTAL RUN TIME: 0 days 0 hours 1 minutes 5 seconds 882 msec
