                         Program Version 4.1.2  - RELEASE  -
|  1> #Run DFT-D3 single point of the dimer
|  2> ! wB97X-D3 def2-TZVP TIGHTSCF  CHELPG PAL8
|  3>
|  4> %base "6_charges"
|  5>
|  6> %scf
|  7> MaxIter 1000
|  8> end
|  9> %output
| 10>   Print[ P_Mayer ] 1
| 11>   Print[ P_NatPop ] 1
| 12>   Print[ P_Hirshfeld ] 1
| 13>   Print[ P_Mulliken ] 1
| 14>   Print [ P_Loewdin ] 1
| 15> end
| 16>
| 17> * xyz 0 1
| 18>   C                      6.200363             11.031047            3.887116
| 19>   O                      5.072839             10.872300            3.084618
| 20>   H                      4.556574             11.698012            3.095751
| 21>   H                      6.368848             12.120012            4.016940
| 22>   H                      6.180327             10.474969            4.819324
| 23>   H                      7.104946             10.555412            3.371985
| 24> *
| 25>
| 26>                          ****END OF INPUT****

CARTESIAN COORDINATES (ANGSTROEM)
---------------------------------
  C      6.200363   11.031047    3.887116
  O      5.072839   10.872300    3.084618
  H      4.556574   11.698012    3.095751
  H      6.368848   12.120012    4.016940
  H      6.180327   10.474969    4.819324
  H      7.104946   10.555412    3.371985

 Total Charge           Charge          ....    0
 Multiplicity           Mult            ....    1
 Number of Electrons    NEL             ....   18
 Basis Dimension        Dim             ....   86

ORBITAL ENERGIES
----------------

  NO   OCC          E(Eh)            E(eV)
   0   2.0000     -19.230729      -523.2948
   1   2.0000     -10.317253      -280.7467
   2   2.0000      -1.140203       -31.0265
   3   2.0000      -0.789148       -21.4738
   4   2.0000      -0.612309       -16.6618
   5   2.0000      -0.547744       -14.9049
   6   2.0000      -0.524792       -14.2803
   7   2.0000      -0.427929       -11.6445
   8   2.0000      -0.368890       -10.0380
   9   0.0000       0.109823         2.9884
  10   0.0000       0.153690         4.1821
  11   0.0000       0.196557         5.3486
  12   0.0000       0.209242         5.6938
  13   0.0000       0.230255         6.2656

MULLIKEN ATOMIC CHARGES
-----------------------
   0 C :   -0.154853
   1 O :   -0.469171
   2 H :    0.320178
   3 H :    0.097039
   4 H :    0.104582
   5 H :    0.102226
Sum of atomic charges:    0.0000000

LOEWDIN ATOMIC CHARGES
----------------------
   0 C :   -0.409008
   1 O :   -0.071715
   2 H :    0.179528
   3 H :    0.098926
   4 H :    0.092427
   5 H :    0.109843

  Mayer bond orders larger than 0.1
B(  0-C ,  1-O ) :   1.0162 B(  0-C ,  3-H ) :   0.9907 B(  0-C ,  4-H ) :   0.9688
B(  0-C ,  5-H ) :   0.9759 B(  1-O ,  2-H ) :   0.8956

Dispersion correction           -0.000246101
FINAL SINGLE POINT ENERGY      -115.731106818738

DIPOLE MOMENT
-------------
                                X             Y             Z
Electronic contribution:     -1.53048      -0.29258      -0.98543
Nuclear contribution   :      1.62016       0.88989       1.29738
                        -----------------------------------------
Total Dipole Moment    :      0.08968       0.59731       0.31195
                        -----------------------------------------
Magnitude (a.u.)       :      0.67980
Magnitude (Debye)      :      1.72792

Rotational constants in cm-1:     4.183081     0.851779     0.810094
Rotational constants in MHz : 125405.626129 25535.681617 24286.009373

                             ****ORCA TERMINATED NORMALLY****
TOTAL RUN TIME: 0 days 0 hours 0 minutes 41 seconds 257 msec
