                         Program Version 4.1.2  - RELEASE  -
|  1> #Run DFT-D3 single point of the dimer
|  2> ! wB97X-D3 def2-TZVP TIGHTSCF  CHELPG PAL8
|  3>
|  4> %base "44_charges"
|  5>
|  6> %scf
|  7> MaxIter 1000
|  8> end
|  9> %output
| 10>   Print[ P_Mayer ] 1
| 11>   Print[ P_NatPop ] 1
| 12>   Print[ P_Hirshfeld ] 1
| 13>   Print[ P_Mulliken ] 1
| 14>   Print [ P_Loewdin ] 1
| 15> end
| 16>
| 17> * xyz 0 1
| 18>   C                      0.644980             3.632156             0.457490
| 19>   O                      2.002139             3.146813             0.825631
| 20>   H                      2.002265             3.116874             1.818001
| 21>   H                      0.410151             4.673514             0.621178
| 22>   H                      0.501000             3.396254             -0.627705
| 23>   H                      -0.127574            2.952439             0.764018
| 24> *
| 25>
| 26>                          ****END OF INPUT****

CARTESIAN COORDINATES (ANGSTROEM)
---------------------------------
  C      0.644980    3.632156    0.457490
  O      2.002139    3.146813    0.825631
  H      2.002265    3.116874    1.818001
  H      0.410151    4.673514    0.621178
  H      0.501000    3.396254   -0.627705
  H     -0.127574    2.952439    0.764018

 Total Charge           Charge          ....    0
 Multiplicity           Mult            ....    1
 Number of Electrons    NEL             ....   18
 Basis Dimension        Dim             ....   86

ORBITAL ENERGIES
----------------

  NO   OCC          E(Eh)            E(eV)
   0   2.0000     -19.237423      -523.4769
   1   2.0000     -10.317357      -280.7495
   2   2.0000      -1.111690       -30.2506
   3   2.0000      -0.799773       -21.7629
   4   2.0000      -0.591373       -16.0921
   5   2.0000      -0.549919       -14.9641
   6   2.0000      -0.506582       -13.7848
   7   2.0000      -0.430346       -11.7103
   8   2.0000      -0.382280       -10.4024
   9   0.0000       0.114038         3.1031
  10   0.0000       0.144277         3.9260
  11   0.0000       0.194914         5.3039
  12   0.0000       0.206189         5.6107
  13   0.0000       0.214116         5.8264

MULLIKEN ATOMIC CHARGES
-----------------------
   0 C :   -0.195500
   1 O :   -0.475040
   2 H :    0.313155
   3 H :    0.120364
   4 H :    0.119724
   5 H :    0.117298
Sum of atomic charges:    0.0000000

LOEWDIN ATOMIC CHARGES
----------------------
   0 C :   -0.354790
   1 O :   -0.136655
   2 H :    0.182038
   3 H :    0.095023
   4 H :    0.118126
   5 H :    0.096258

  Mayer bond orders larger than 0.1
B(  0-C ,  1-O ) :   1.0102 B(  0-C ,  3-H ) :   0.9637 B(  0-C ,  4-H ) :   0.9747
B(  0-C ,  5-H ) :   0.9728 B(  1-O ,  2-H ) :   0.9007

Dispersion correction           -0.000292640
FINAL SINGLE POINT ENERGY      -115.724727134192

DIPOLE MOMENT
-------------
                                X             Y             Z
Electronic contribution:      1.76731      -0.43520       0.50359
Nuclear contribution   :     -2.36418       0.58654      -0.07601
                        -----------------------------------------
Total Dipole Moment    :     -0.59687       0.15134       0.42758
                        -----------------------------------------
Magnitude (a.u.)       :      0.74965
Magnitude (Debye)      :      1.90546

Rotational constants in cm-1:     4.327869     0.755277     0.736788
Rotational constants in MHz : 129746.234529 22642.625959 22088.356299

                             ****ORCA TERMINATED NORMALLY****
TOTAL RUN TIME: 0 days 0 hours 0 minutes 40 seconds 767 msec
