                         Program Version 4.1.2  - RELEASE  -
|  1> #Run DFT-D3 single point of the dimer
|  2> ! wB97X-D3 def2-TZVP TIGHTSCF CHELPG PMODEL PAL8
|  3>
|  4> %base "5-11_DFT_AB"
|  5>
|  6> %scf
|  7> MaxIter 1000
|  8> end
|  9>
| 10> * xyz 0 1
| 11>   C                      4.682052             -4.285258            7.565120
| 12>   O                      4.866444             -3.775011            6.253769
| 13>   H                      4.430609             -2.921144            6.243393
| 14>   H                      4.396078             -3.482571            8.277853
| 15>   H                      3.896837             -5.017560            7.602140
| 16>   H                      5.548066             -4.676643            7.981622
| 17>   C                      3.523408             -5.923778            2.070169
| 18>   O                      3.834441             -4.576411            1.836301
| 19>   H                      4.763971             -4.562166            1.509061
| 20>   H                      2.729272             -5.991882            2.856450
| 21>   H                      3.330591             -6.484672            1.252621
| 22>   H                      4.446997             -6.457884            2.510366
| 23> *
| 24>
| 25> #Run DFT-D3 single point of the molecule with dimer basis set
| 26> $new_job
| 27> %base "5-11_DFT_A"
| 28> ! wB97X-D3 def2-TZVP TIGHTSCF CHELPG PMODEL
| 29>
| 30> %scf
| 31> MaxIter 1000
| 32> end
| 33>
| 34> * xyz 0 1
| 35>   C                      4.682052             -4.285258            7.565120
| 36>   O                      4.866444             -3.775011            6.253769
| 37>   H                      4.430609             -2.921144            6.243393
| 38>   H                      4.396078             -3.482571            8.277853
| 39>   H                      3.896837             -5.017560            7.602140
| 40>   H                      5.548066             -4.676643            7.981622
| 41>   C                    : 3.523408             -5.923778            2.070169
| 42>   O                    : 3.834441             -4.576411            1.836301
| 43>   H                    : 4.763971             -4.562166            1.509061
| 44>   H                    : 2.729272             -5.991882            2.856450
| 45>   H                    : 3.330591             -6.484672            1.252621
| 46>   H                    : 4.446997             -6.457884            2.510366
| 47> *
| 48>
| 49> #Run DFT-D3 single point of the particle with dimer basis set
| 50> $new_job
| 51> %base "5-11_DFT_B"
| 52> ! wB97X-D3 def2-TZVP TIGHTSCF CHELPG PMODEL
| 53>
| 54> %scf
| 55> MaxIter 1000
| 56> end
| 57>
| 58> * xyz 0 1
| 59>   C                    : 4.682052             -4.285258            7.565120
| 60>   O                    : 4.866444             -3.775011            6.253769
| 61>   H                    : 4.430609             -2.921144            6.243393
| 62>   H                    : 4.396078             -3.482571            8.277853
| 63>   H                    : 3.896837             -5.017560            7.602140
| 64>   H                    : 5.548066             -4.676643            7.981622
| 65>   C                      3.523408             -5.923778            2.070169
| 66>   O                      3.834441             -4.576411            1.836301
| 67>   H                      4.763971             -4.562166            1.509061
| 68>   H                      2.729272             -5.991882            2.856450
| 69>   H                      3.330591             -6.484672            1.252621
| 70>   H                      4.446997             -6.457884            2.510366
| 71> *
| 72>
| 73>                          ****END OF INPUT****
 Total Charge           Charge          ....    0
 Multiplicity           Mult            ....    1
 Number of Electrons    NEL             ....   36
Dispersion correction           -0.000689009
FINAL SINGLE POINT ENERGY      -231.459023340255
Dispersion correction           -0.000239376
FINAL SINGLE POINT ENERGY      -115.732509643950

CARTESIAN COORDINATES (ANGSTROEM)
---------------------------------
  C      4.682052   -4.285258    7.565120
  O      4.866444   -3.775011    6.253769
  H      4.430609   -2.921144    6.243393
  H      4.396078   -3.482571    8.277853
  H      3.896837   -5.017560    7.602140
  H      5.548066   -4.676643    7.981622
  C      3.523408   -5.923778    2.070169
  O      3.834441   -4.576411    1.836301
  H      4.763971   -4.562166    1.509061
  H      2.729272   -5.991882    2.856450
  H      3.330591   -6.484672    1.252621
  H      4.446997   -6.457884    2.510366

 Multiplicity           Mult            ....    1
 Number of Electrons    NEL             ....   18
 Basis Dimension        Dim             ....  172

ORBITAL ENERGIES
----------------

  NO   OCC          E(Eh)            E(eV)
   0   2.0000     -19.233632      -523.3737
   1   2.0000     -10.312113      -280.6069
   2   2.0000      -1.136920       -30.9372
   3   2.0000      -0.793963       -21.6048
   4   2.0000      -0.615180       -16.7399
   5   2.0000      -0.545365       -14.8401
   6   2.0000      -0.523905       -14.2562
   7   2.0000      -0.431203       -11.7336
   8   2.0000      -0.373387       -10.1604
   9   0.0000       0.089070         2.4237
  10   0.0000       0.108920         2.9639
  11   0.0000       0.154660         4.2085
  12   0.0000       0.170359         4.6357
  13   0.0000       0.191165         5.2019

MULLIKEN ATOMIC CHARGES
-----------------------
   0 C :   -0.000018
   1 O :   -0.000062
   2 H :   -0.000082
   3 H :    0.000001
   4 H :   -0.000007
   5 H :    0.000000
   6 C :   -0.167663
   7 O :   -0.469378
   8 H :    0.318991
   9 H :    0.116321
  10 H :    0.114870
  11 H :    0.087027
Sum of atomic charges:    0.0000000

LOEWDIN ATOMIC CHARGES
----------------------
   0 C :   -0.000008
   1 O :   -0.000069
   2 H :   -0.000061
   3 H :   -0.000000
   4 H :   -0.000002
   5 H :   -0.000000
   6 C :   -0.394378
   7 O :   -0.080025
   8 H :    0.186908
   9 H :    0.113324
  10 H :    0.071820
  11 H :    0.102492

  Mayer bond orders larger than 0.1
B(  6-C ,  7-O ) :   1.0031 B(  6-C ,  9-H ) :   0.9747 B(  6-C , 10-H ) :   0.9651
B(  6-C , 11-H ) :   0.9906 B(  7-O ,  8-H ) :   0.8948

Dispersion correction           -0.000230739
FINAL SINGLE POINT ENERGY      -115.726359414811

DIPOLE MOMENT
-------------
                                X             Y             Z
Electronic contribution:      0.07564       1.84093      -0.44504
Nuclear contribution   :      0.38439      -2.35198       0.31175
                        -----------------------------------------
Total Dipole Moment    :      0.46003      -0.51105      -0.13329
                        -----------------------------------------
Magnitude (a.u.)       :      0.70040
Magnitude (Debye)      :      1.78028

Rotational constants in cm-1:     4.242782     0.847651     0.804472
Rotational constants in MHz : 127195.415070 25411.950990 24117.462614

                             ****ORCA TERMINATED NORMALLY****
TOTAL RUN TIME: 0 days 0 hours 0 minutes 58 seconds 194 msec
