                         Program Version 4.1.2  - RELEASE  -
|  1> #Run DFT-D3 single point of the dimer
|  2> ! wB97X-D3 def2-TZVP TIGHTSCF CHELPG PMODEL PAL8
|  3>
|  4> %base "17-73_DFT_AB"
|  5>
|  6> %scf
|  7> MaxIter 1000
|  8> end
|  9>
| 10> * xyz 0 1
| 11>   C                      -1.143472            3.251015             -8.383428
| 12>   O                      -1.942154            2.903486             -9.464382
| 13>   H                      -1.698939            3.509440             -10.183064
| 14>   H                      -1.426148            2.504044             -7.571571
| 15>   H                      -0.084644            3.152513             -8.594473
| 16>   H                      -1.392792            4.268874             -8.070492
| 17>   C                      -5.201214            2.513529             -9.631531
| 18>   O                      -4.515403            1.567229             -8.775223
| 19>   H                      -3.611690            1.885344             -8.810768
| 20>   H                      -5.769243            3.251244             -9.067049
| 21>   H                      -4.640554            2.954154             -10.383649
| 22>   H                      -6.017593            1.996925             -10.226665
| 23> *
| 24>
| 25> #Run DFT-D3 single point of the molecule with dimer basis set
| 26> $new_job
| 27> %base "17-73_DFT_A"
| 28> ! wB97X-D3 def2-TZVP TIGHTSCF CHELPG PMODEL
| 29>
| 30> %scf
| 31> MaxIter 1000
| 32> end
| 33>
| 34> * xyz 0 1
| 35>   C                      -1.143472            3.251015             -8.383428
| 36>   O                      -1.942154            2.903486             -9.464382
| 37>   H                      -1.698939            3.509440             -10.183064
| 38>   H                      -1.426148            2.504044             -7.571571
| 39>   H                      -0.084644            3.152513             -8.594473
| 40>   H                      -1.392792            4.268874             -8.070492
| 41>   C                    : -5.201214            2.513529             -9.631531
| 42>   O                    : -4.515403            1.567229             -8.775223
| 43>   H                    : -3.611690            1.885344             -8.810768
| 44>   H                    : -5.769243            3.251244             -9.067049
| 45>   H                    : -4.640554            2.954154             -10.383649
| 46>   H                    : -6.017593            1.996925             -10.226665
| 47> *
| 48>
| 49> #Run DFT-D3 single point of the particle with dimer basis set
| 50> $new_job
| 51> %base "17-73_DFT_B"
| 52> ! wB97X-D3 def2-TZVP TIGHTSCF CHELPG PMODEL
| 53>
| 54> %scf
| 55> MaxIter 1000
| 56> end
| 57>
| 58> * xyz 0 1
| 59>   C                    : -1.143472            3.251015             -8.383428
| 60>   O                    : -1.942154            2.903486             -9.464382
| 61>   H                    : -1.698939            3.509440             -10.183064
| 62>   H                    : -1.426148            2.504044             -7.571571
| 63>   H                    : -0.084644            3.152513             -8.594473
| 64>   H                    : -1.392792            4.268874             -8.070492
| 65>   C                      -5.201214            2.513529             -9.631531
| 66>   O                      -4.515403            1.567229             -8.775223
| 67>   H                      -3.611690            1.885344             -8.810768
| 68>   H                      -5.769243            3.251244             -9.067049
| 69>   H                      -4.640554            2.954154             -10.383649
| 70>   H                      -6.017593            1.996925             -10.226665
| 71> *
| 72>
| 73>                          ****END OF INPUT****
 Total Charge           Charge          ....    0
 Multiplicity           Mult            ....    1
 Number of Electrons    NEL             ....   36
Dispersion correction           -0.001896360
FINAL SINGLE POINT ENERGY      -231.471193738332
Dispersion correction           -0.000216689
FINAL SINGLE POINT ENERGY      -115.734820069888

CARTESIAN COORDINATES (ANGSTROEM)
---------------------------------
  C     -1.143472    3.251015   -8.383428
  O     -1.942154    2.903486   -9.464382
  H     -1.698939    3.509440  -10.183064
  H     -1.426148    2.504044   -7.571571
  H     -0.084644    3.152513   -8.594473
  H     -1.392792    4.268874   -8.070492
  C     -5.201214    2.513529   -9.631531
  O     -4.515403    1.567229   -8.775223
  H     -3.611690    1.885344   -8.810768
  H     -5.769243    3.251244   -9.067049
  H     -4.640554    2.954154  -10.383649
  H     -6.017593    1.996925  -10.226665

 Multiplicity           Mult            ....    1
 Number of Electrons    NEL             ....   18
 Basis Dimension        Dim             ....  172

ORBITAL ENERGIES
----------------

  NO   OCC          E(Eh)            E(eV)
   0   2.0000     -19.236232      -523.4445
   1   2.0000     -10.313258      -280.6380
   2   2.0000      -1.131910       -30.8008
   3   2.0000      -0.800002       -21.7692
   4   2.0000      -0.609901       -16.5963
   5   2.0000      -0.539301       -14.6751
   6   2.0000      -0.518087       -14.0979
   7   2.0000      -0.445017       -12.1095
   8   2.0000      -0.377111       -10.2617
   9   0.0000       0.068494         1.8638
  10   0.0000       0.133823         3.6415
  11   0.0000       0.145679         3.9641
  12   0.0000       0.164389         4.4733
  13   0.0000       0.190875         5.1940

MULLIKEN ATOMIC CHARGES
-----------------------
   0 C :   -0.003746
   1 O :   -0.003036
   2 H :    0.000069
   3 H :   -0.000317
   4 H :   -0.000066
   5 H :    0.000366
   6 C :   -0.191682
   7 O :   -0.459387
   8 H :    0.314744
   9 H :    0.110502
  10 H :    0.122289
  11 H :    0.110262
Sum of atomic charges:    0.0000000

LOEWDIN ATOMIC CHARGES
----------------------
   0 C :   -0.004590
   1 O :   -0.014423
   2 H :   -0.000834
   3 H :   -0.001254
   4 H :   -0.000099
   5 H :   -0.000082
   6 C :   -0.365123
   7 O :   -0.084166
   8 H :    0.173953
   9 H :    0.097828
  10 H :    0.084933
  11 H :    0.113856

  Mayer bond orders larger than 0.1
B(  6-C ,  7-O ) :   1.0054 B(  6-C ,  9-H ) :   0.9769 B(  6-C , 10-H ) :   0.9728
B(  6-C , 11-H ) :   0.9777 B(  7-O ,  8-H ) :   0.9118

Dispersion correction           -0.000262466
FINAL SINGLE POINT ENERGY      -115.729073301623

DIPOLE MOMENT
-------------
                                X             Y             Z
Electronic contribution:      0.94650      -1.21633       1.17596
Nuclear contribution   :     -0.65231       1.79365      -1.56705
                        -----------------------------------------
Total Dipole Moment    :      0.29419       0.57732      -0.39109
                        -----------------------------------------
Magnitude (a.u.)       :      0.75683
Magnitude (Debye)      :      1.92372

Rotational constants in cm-1:     4.415484     0.795163     0.769282
Rotational constants in MHz : 132372.883333 23838.387156 23062.492831

                             ****ORCA TERMINATED NORMALLY****
TOTAL RUN TIME: 0 days 0 hours 1 minutes 13 seconds 403 msec
