                         Program Version 4.1.2  - RELEASE  -
|  1> #Run DFT-D3 single point of the dimer
|  2> ! wB97X-D3 def2-TZVP TIGHTSCF CHELPG PMODEL PAL8
|  3>
|  4> %base "21-214_DFT_AB"
|  5>
|  6> %scf
|  7> MaxIter 1000
|  8> end
|  9>
| 10> * xyz 0 1
| 11>   C                      -2.783148            -4.777537            2.431724
| 12>   O                      -1.829021            -5.293584            3.392940
| 13>   H                      -1.867300            -4.710863            4.157976
| 14>   H                      -2.752814            -5.410339            1.611272
| 15>   H                      -3.882283            -4.787825            2.730736
| 16>   H                      -2.585822            -3.705635            2.105126
| 17>   C                      -2.221058            -3.446689            6.998465
| 18>   O                      -1.873761            -3.179078            5.629325
| 19>   H                      -1.860094            -2.201635            5.512073
| 20>   H                      -2.621781            -4.400439            7.017455
| 21>   H                      -1.377824            -3.586597            7.742426
| 22>   H                      -3.018817            -2.859799            7.498066
| 23> *
| 24>
| 25> #Run DFT-D3 single point of the molecule with dimer basis set
| 26> $new_job
| 27> %base "21-214_DFT_A"
| 28> ! wB97X-D3 def2-TZVP TIGHTSCF CHELPG PMODEL
| 29>
| 30> %scf
| 31> MaxIter 1000
| 32> end
| 33>
| 34> * xyz 0 1
| 35>   C                      -2.783148            -4.777537            2.431724
| 36>   O                      -1.829021            -5.293584            3.392940
| 37>   H                      -1.867300            -4.710863            4.157976
| 38>   H                      -2.752814            -5.410339            1.611272
| 39>   H                      -3.882283            -4.787825            2.730736
| 40>   H                      -2.585822            -3.705635            2.105126
| 41>   C                    : -2.221058            -3.446689            6.998465
| 42>   O                    : -1.873761            -3.179078            5.629325
| 43>   H                    : -1.860094            -2.201635            5.512073
| 44>   H                    : -2.621781            -4.400439            7.017455
| 45>   H                    : -1.377824            -3.586597            7.742426
| 46>   H                    : -3.018817            -2.859799            7.498066
| 47> *
| 48>
| 49> #Run DFT-D3 single point of the particle with dimer basis set
| 50> $new_job
| 51> %base "21-214_DFT_B"
| 52> ! wB97X-D3 def2-TZVP TIGHTSCF CHELPG PMODEL
| 53>
| 54> %scf
| 55> MaxIter 1000
| 56> end
| 57>
| 58> * xyz 0 1
| 59>   C                    : -2.783148            -4.777537            2.431724
| 60>   O                    : -1.829021            -5.293584            3.392940
| 61>   H                    : -1.867300            -4.710863            4.157976
| 62>   H                    : -2.752814            -5.410339            1.611272
| 63>   H                    : -3.882283            -4.787825            2.730736
| 64>   H                    : -2.585822            -3.705635            2.105126
| 65>   C                      -2.221058            -3.446689            6.998465
| 66>   O                      -1.873761            -3.179078            5.629325
| 67>   H                      -1.860094            -2.201635            5.512073
| 68>   H                      -2.621781            -4.400439            7.017455
| 69>   H                      -1.377824            -3.586597            7.742426
| 70>   H                      -3.018817            -2.859799            7.498066
| 71> *
| 72>
| 73>                          ****END OF INPUT****
 Total Charge           Charge          ....    0
 Multiplicity           Mult            ....    1
 Number of Electrons    NEL             ....   36
Dispersion correction           -0.001643299
FINAL SINGLE POINT ENERGY      -231.464981356231
Dispersion correction           -0.000285278
FINAL SINGLE POINT ENERGY      -115.731082381895

CARTESIAN COORDINATES (ANGSTROEM)
---------------------------------
  C     -2.783148   -4.777537    2.431724
  O     -1.829021   -5.293584    3.392940
  H     -1.867300   -4.710863    4.157976
  H     -2.752814   -5.410339    1.611272
  H     -3.882283   -4.787825    2.730736
  H     -2.585822   -3.705635    2.105126
  C     -2.221058   -3.446689    6.998465
  O     -1.873761   -3.179078    5.629325
  H     -1.860094   -2.201635    5.512073
  H     -2.621781   -4.400439    7.017455
  H     -1.377824   -3.586597    7.742426
  H     -3.018817   -2.859799    7.498066

 Multiplicity           Mult            ....    1
 Number of Electrons    NEL             ....   18
 Basis Dimension        Dim             ....  172

ORBITAL ENERGIES
----------------

  NO   OCC          E(Eh)            E(eV)
   0   2.0000     -19.240997      -523.5742
   1   2.0000     -10.313210      -280.6367
   2   2.0000      -1.128424       -30.7060
   3   2.0000      -0.801369       -21.8063
   4   2.0000      -0.607169       -16.5219
   5   2.0000      -0.529953       -14.4207
   6   2.0000      -0.524729       -14.2786
   7   2.0000      -0.438843       -11.9415
   8   2.0000      -0.377956       -10.2847
   9   0.0000       0.097173         2.6442
  10   0.0000       0.123414         3.3583
  11   0.0000       0.142960         3.8901
  12   0.0000       0.182731         4.9724
  13   0.0000       0.202888         5.5209

MULLIKEN ATOMIC CHARGES
-----------------------
   0 C :   -0.000450
   1 O :    0.000143
   2 H :   -0.006317
   3 H :   -0.000275
   4 H :   -0.000554
   5 H :   -0.000731
   6 C :   -0.188024
   7 O :   -0.458032
   8 H :    0.314887
   9 H :    0.129354
  10 H :    0.098919
  11 H :    0.111080
Sum of atomic charges:    0.0000000

LOEWDIN ATOMIC CHARGES
----------------------
   0 C :   -0.003136
   1 O :   -0.002412
   2 H :   -0.026246
   3 H :   -0.000061
   4 H :   -0.000217
   5 H :   -0.000348
   6 C :   -0.385396
   7 O :   -0.066064
   8 H :    0.182622
   9 H :    0.095857
  10 H :    0.103509
  11 H :    0.101892

  Mayer bond orders larger than 0.1
B(  6-C ,  7-O ) :   1.0177 B(  6-C ,  9-H ) :   0.9803 B(  6-C , 10-H ) :   0.9692
B(  6-C , 11-H ) :   0.9665 B(  7-O ,  8-H ) :   0.8961

Dispersion correction           -0.000299699
FINAL SINGLE POINT ENERGY      -115.726588839094

DIPOLE MOMENT
-------------
                                X             Y             Z
Electronic contribution:      0.47491       0.36352      -1.90829
Nuclear contribution   :     -0.64350       0.10568       2.37185
                        -----------------------------------------
Total Dipole Moment    :     -0.16859       0.46920       0.46356
                        -----------------------------------------
Magnitude (a.u.)       :      0.68077
Magnitude (Debye)      :      1.73039

Rotational constants in cm-1:     4.506576     0.789083     0.765544
Rotational constants in MHz : 135103.744650 23656.116505 22950.427205

                             ****ORCA TERMINATED NORMALLY****
TOTAL RUN TIME: 0 days 0 hours 1 minutes 1 seconds 529 msec
