                         Program Version 4.1.2  - RELEASE  -
|  1> #Run DFT-D3 single point of the dimer
|  2> ! wB97X-D3 def2-TZVP TIGHTSCF CHELPG PMODEL PAL8
|  3>
|  4> %base "11-201_DFT_AB"
|  5>
|  6> %scf
|  7> MaxIter 1000
|  8> end
|  9>
| 10> * xyz 0 1
| 11>   C                      0.276761             -8.388340            2.524597
| 12>   O                      -0.540361            -9.100075            1.582698
| 13>   H                      -1.304006            -8.545842            1.477367
| 14>   H                      0.429768             -7.391606            2.252149
| 15>   H                      -0.126394            -8.307074            3.551532
| 16>   H                      1.244585             -8.724416            2.582084
| 17>   C                      -2.958133            -5.910956            1.866469
| 18>   O                      -2.832775            -7.293299            1.854868
| 19>   H                      -3.467590            -7.636709            1.262656
| 20>   H                      -2.945001            -5.442606            0.902511
| 21>   H                      -3.971730            -5.552848            2.280433
| 22>   H                      -2.192545            -5.548036            2.414765
| 23> *
| 24>
| 25> #Run DFT-D3 single point of the molecule with dimer basis set
| 26> $new_job
| 27> %base "11-201_DFT_A"
| 28> ! wB97X-D3 def2-TZVP TIGHTSCF CHELPG PMODEL
| 29>
| 30> %scf
| 31> MaxIter 1000
| 32> end
| 33>
| 34> * xyz 0 1
| 35>   C                      0.276761             -8.388340            2.524597
| 36>   O                      -0.540361            -9.100075            1.582698
| 37>   H                      -1.304006            -8.545842            1.477367
| 38>   H                      0.429768             -7.391606            2.252149
| 39>   H                      -0.126394            -8.307074            3.551532
| 40>   H                      1.244585             -8.724416            2.582084
| 41>   C                    : -2.958133            -5.910956            1.866469
| 42>   O                    : -2.832775            -7.293299            1.854868
| 43>   H                    : -3.467590            -7.636709            1.262656
| 44>   H                    : -2.945001            -5.442606            0.902511
| 45>   H                    : -3.971730            -5.552848            2.280433
| 46>   H                    : -2.192545            -5.548036            2.414765
| 47> *
| 48>
| 49> #Run DFT-D3 single point of the particle with dimer basis set
| 50> $new_job
| 51> %base "11-201_DFT_B"
| 52> ! wB97X-D3 def2-TZVP TIGHTSCF CHELPG PMODEL
| 53>
| 54> %scf
| 55> MaxIter 1000
| 56> end
| 57>
| 58> * xyz 0 1
| 59>   C                    : 0.276761             -8.388340            2.524597
| 60>   O                    : -0.540361            -9.100075            1.582698
| 61>   H                    : -1.304006            -8.545842            1.477367
| 62>   H                    : 0.429768             -7.391606            2.252149
| 63>   H                    : -0.126394            -8.307074            3.551532
| 64>   H                    : 1.244585             -8.724416            2.582084
| 65>   C                      -2.958133            -5.910956            1.866469
| 66>   O                      -2.832775            -7.293299            1.854868
| 67>   H                      -3.467590            -7.636709            1.262656
| 68>   H                      -2.945001            -5.442606            0.902511
| 69>   H                      -3.971730            -5.552848            2.280433
| 70>   H                      -2.192545            -5.548036            2.414765
| 71> *
| 72>
| 73>                          ****END OF INPUT****
 Total Charge           Charge          ....    0
 Multiplicity           Mult            ....    1
 Number of Electrons    NEL             ....   36
Dispersion correction           -0.001894840
FINAL SINGLE POINT ENERGY      -231.464762921816
Dispersion correction           -0.000242336
FINAL SINGLE POINT ENERGY      -115.728232964597

CARTESIAN COORDINATES (ANGSTROEM)
---------------------------------
  C      0.276761   -8.388340    2.524597
  O     -0.540361   -9.100075    1.582698
  H     -1.304006   -8.545842    1.477367
  H      0.429768   -7.391606    2.252149
  H     -0.126394   -8.307074    3.551532
  H      1.244585   -8.724416    2.582084
  C     -2.958133   -5.910956    1.866469
  O     -2.832775   -7.293299    1.854868
  H     -3.467590   -7.636709    1.262656
  H     -2.945001   -5.442606    0.902511
  H     -3.971730   -5.552848    2.280433
  H     -2.192545   -5.548036    2.414765

 Multiplicity           Mult            ....    1
 Number of Electrons    NEL             ....   18
 Basis Dimension        Dim             ....  172

ORBITAL ENERGIES
----------------

  NO   OCC          E(Eh)            E(eV)
   0   2.0000     -19.230829      -523.2975
   1   2.0000     -10.305640      -280.4307
   2   2.0000      -1.151536       -31.3349
   3   2.0000      -0.804427       -21.8896
   4   2.0000      -0.625095       -17.0097
   5   2.0000      -0.541948       -14.7472
   6   2.0000      -0.532061       -14.4781
   7   2.0000      -0.444753       -12.1024
   8   2.0000      -0.371303       -10.1037
   9   0.0000       0.099164         2.6984
  10   0.0000       0.128041         3.4842
  11   0.0000       0.154462         4.2031
  12   0.0000       0.189417         5.1543
  13   0.0000       0.200277         5.4498

MULLIKEN ATOMIC CHARGES
-----------------------
   0 C :    0.006869
   1 O :    0.001264
   2 H :   -0.017437
   3 H :   -0.002592
   4 H :   -0.001892
   5 H :   -0.000211
   6 C :   -0.155821
   7 O :   -0.452062
   8 H :    0.309248
   9 H :    0.099972
  10 H :    0.083581
  11 H :    0.129082
Sum of atomic charges:    0.0000000

LOEWDIN ATOMIC CHARGES
----------------------
   0 C :   -0.005432
   1 O :   -0.004571
   2 H :   -0.037583
   3 H :   -0.000624
   4 H :   -0.000686
   5 H :   -0.000066
   6 C :   -0.390874
   7 O :    0.001566
   8 H :    0.155955
   9 H :    0.090051
  10 H :    0.102966
  11 H :    0.089298

  Mayer bond orders larger than 0.1
B(  6-C ,  7-O ) :   0.9975 B(  6-C ,  9-H ) :   0.9741 B(  6-C , 10-H ) :   0.9712
B(  6-C , 11-H ) :   0.9808 B(  7-O ,  8-H ) :   0.9037

Dispersion correction           -0.000228277
FINAL SINGLE POINT ENERGY      -115.729308057445

DIPOLE MOMENT
-------------
                                X             Y             Z
Electronic contribution:      0.41551      -1.82948       0.08078
Nuclear contribution   :     -0.84406       2.14032      -0.47466
                        -----------------------------------------
Total Dipole Moment    :     -0.42855       0.31084      -0.39388
                        -----------------------------------------
Magnitude (a.u.)       :      0.65986
Magnitude (Debye)      :      1.67724

Rotational constants in cm-1:     4.487101     0.858477     0.826950
Rotational constants in MHz : 134519.914412 25736.482950 24791.324195

                             ****ORCA TERMINATED NORMALLY****
TOTAL RUN TIME: 0 days 0 hours 1 minutes 8 seconds 517 msec
