                         Program Version 4.1.2  - RELEASE  -
|  1> #Run DFT-D3 single point of the dimer
|  2> ! wB97X-D3 def2-TZVP TIGHTSCF CHELPG PMODEL PAL8
|  3>
|  4> %base "11-76_DFT_AB"
|  5>
|  6> %scf
|  7> MaxIter 1000
|  8> end
|  9>
| 10> * xyz 0 1
| 11>   C                      8.208089             3.975349             -1.861267
| 12>   O                      7.813825             2.619600             -2.292651
| 13>   H                      7.000944             2.319256             -1.900115
| 14>   H                      8.304451             4.108650             -0.728916
| 15>   H                      9.262322             4.143959             -2.354098
| 16>   H                      7.514508             4.812777             -2.164203
| 17>   C                      5.383772             1.473984             -0.370313
| 18>   O                      5.049317             2.549317             -1.247021
| 19>   H                      4.397362             2.140532             -1.766536
| 20>   H                      4.888294             1.611386             0.614607
| 21>   H                      5.168040             0.555937             -0.835142
| 22>   H                      6.514453             1.453211             -0.175672
| 23> *
| 24>
| 25> #Run DFT-D3 single point of the molecule with dimer basis set
| 26> $new_job
| 27> %base "11-76_DFT_A"
| 28> ! wB97X-D3 def2-TZVP TIGHTSCF CHELPG PMODEL
| 29>
| 30> %scf
| 31> MaxIter 1000
| 32> end
| 33>
| 34> * xyz 0 1
| 35>   C                      8.208089             3.975349             -1.861267
| 36>   O                      7.813825             2.619600             -2.292651
| 37>   H                      7.000944             2.319256             -1.900115
| 38>   H                      8.304451             4.108650             -0.728916
| 39>   H                      9.262322             4.143959             -2.354098
| 40>   H                      7.514508             4.812777             -2.164203
| 41>   C                    : 5.383772             1.473984             -0.370313
| 42>   O                    : 5.049317             2.549317             -1.247021
| 43>   H                    : 4.397362             2.140532             -1.766536
| 44>   H                    : 4.888294             1.611386             0.614607
| 45>   H                    : 5.168040             0.555937             -0.835142
| 46>   H                    : 6.514453             1.453211             -0.175672
| 47> *
| 48>
| 49> #Run DFT-D3 single point of the particle with dimer basis set
| 50> $new_job
| 51> %base "11-76_DFT_B"
| 52> ! wB97X-D3 def2-TZVP TIGHTSCF CHELPG PMODEL
| 53>
| 54> %scf
| 55> MaxIter 1000
| 56> end
| 57>
| 58> * xyz 0 1
| 59>   C                    : 8.208089             3.975349             -1.861267
| 60>   O                    : 7.813825             2.619600             -2.292651
| 61>   H                    : 7.000944             2.319256             -1.900115
| 62>   H                    : 8.304451             4.108650             -0.728916
| 63>   H                    : 9.262322             4.143959             -2.354098
| 64>   H                    : 7.514508             4.812777             -2.164203
| 65>   C                      5.383772             1.473984             -0.370313
| 66>   O                      5.049317             2.549317             -1.247021
| 67>   H                      4.397362             2.140532             -1.766536
| 68>   H                      4.888294             1.611386             0.614607
| 69>   H                      5.168040             0.555937             -0.835142
| 70>   H                      6.514453             1.453211             -0.175672
| 71> *
| 72>
| 73>                          ****END OF INPUT****
 Total Charge           Charge          ....    0
 Multiplicity           Mult            ....    1
 Number of Electrons    NEL             ....   36
Dispersion correction           -0.002043507
FINAL SINGLE POINT ENERGY      -231.461262599120
Dispersion correction           -0.000325897
FINAL SINGLE POINT ENERGY      -115.727009983071

CARTESIAN COORDINATES (ANGSTROEM)
---------------------------------
  C      8.208089    3.975349   -1.861267
  O      7.813825    2.619600   -2.292651
  H      7.000944    2.319256   -1.900115
  H      8.304451    4.108650   -0.728916
  H      9.262322    4.143959   -2.354098
  H      7.514508    4.812777   -2.164203
  C      5.383772    1.473984   -0.370313
  O      5.049317    2.549317   -1.247021
  H      4.397362    2.140532   -1.766536
  H      4.888294    1.611386    0.614607
  H      5.168040    0.555937   -0.835142
  H      6.514453    1.453211   -0.175672

 Multiplicity           Mult            ....    1
 Number of Electrons    NEL             ....   18
 Basis Dimension        Dim             ....  172

ORBITAL ENERGIES
----------------

  NO   OCC          E(Eh)            E(eV)
   0   2.0000     -19.229576      -523.2634
   1   2.0000     -10.317559      -280.7551
   2   2.0000      -1.145323       -31.1658
   3   2.0000      -0.792862       -21.5749
   4   2.0000      -0.614860       -16.7312
   5   2.0000      -0.543592       -14.7919
   6   2.0000      -0.521559       -14.1923
   7   2.0000      -0.442964       -12.0537
   8   2.0000      -0.375805       -10.2262
   9   0.0000       0.095399         2.5959
  10   0.0000       0.125689         3.4202
  11   0.0000       0.153763         4.1841
  12   0.0000       0.187596         5.1047
  13   0.0000       0.194961         5.3052

MULLIKEN ATOMIC CHARGES
-----------------------
   0 C :    0.001977
   1 O :   -0.002323
   2 H :    0.000053
   3 H :   -0.000449
   4 H :   -0.000029
   5 H :   -0.001703
   6 C :   -0.190469
   7 O :   -0.452093
   8 H :    0.305597
   9 H :    0.115153
  10 H :    0.114450
  11 H :    0.109838
Sum of atomic charges:    0.0000000

LOEWDIN ATOMIC CHARGES
----------------------
   0 C :   -0.004057
   1 O :   -0.005506
   2 H :   -0.031113
   3 H :   -0.000203
   4 H :   -0.000036
   5 H :   -0.000740
   6 C :   -0.370041
   7 O :   -0.046466
   8 H :    0.150533
   9 H :    0.101996
  10 H :    0.087986
  11 H :    0.117648

  Mayer bond orders larger than 0.1
B(  6-C ,  7-O ) :   0.9923 B(  6-C ,  9-H ) :   0.9712 B(  6-C , 10-H ) :   0.9848
B(  6-C , 11-H ) :   0.9807 B(  7-O ,  8-H ) :   0.9123

Dispersion correction           -0.000233139
FINAL SINGLE POINT ENERGY      -115.730052086477

DIPOLE MOMENT
-------------
                                X             Y             Z
Electronic contribution:     -0.44816       1.42016      -1.08118
Nuclear contribution   :      0.15952      -2.11752       1.07767
                        -----------------------------------------
Total Dipole Moment    :     -0.28864      -0.69736      -0.00350
                        -----------------------------------------
Magnitude (a.u.)       :      0.75474
Magnitude (Debye)      :      1.91840

Rotational constants in cm-1:     4.204949     0.825840     0.801769
Rotational constants in MHz : 126061.195977 24758.069511 24036.439188

                             ****ORCA TERMINATED NORMALLY****
TOTAL RUN TIME: 0 days 0 hours 1 minutes 12 seconds 966 msec
