                         Program Version 4.1.2  - RELEASE  -
|  1> #Run DFT-D3 single point of the dimer
|  2> ! wB97X-D3 def2-TZVP TIGHTSCF CHELPG PMODEL PAL8
|  3>
|  4> %base "13-207_DFT_AB"
|  5>
|  6> %scf
|  7> MaxIter 1000
|  8> end
|  9>
| 10> * xyz 0 1
| 11>   C                      5.160119             -4.518508            -1.480591
| 12>   O                      6.307349             -3.679778            -1.437952
| 13>   H                      6.918061             -4.117089            -2.025001
| 14>   H                      4.300942             -3.910907            -1.216338
| 15>   H                      4.971459             -5.059759            -2.422785
| 16>   H                      5.262418             -5.328838            -0.725788
| 17>   C                      7.641876             -1.443304            -3.827482
| 18>   O                      8.660792             -1.847088            -2.945813
| 19>   H                      8.216865             -1.976950            -2.076097
| 20>   H                      6.758530             -2.093491            -3.837452
| 21>   H                      7.290760             -0.440925            -3.544145
| 22>   H                      8.044087             -1.370167            -4.856427
| 23> *
| 24>
| 25> #Run DFT-D3 single point of the molecule with dimer basis set
| 26> $new_job
| 27> %base "13-207_DFT_A"
| 28> ! wB97X-D3 def2-TZVP TIGHTSCF CHELPG PMODEL
| 29>
| 30> %scf
| 31> MaxIter 1000
| 32> end
| 33>
| 34> * xyz 0 1
| 35>   C                      5.160119             -4.518508            -1.480591
| 36>   O                      6.307349             -3.679778            -1.437952
| 37>   H                      6.918061             -4.117089            -2.025001
| 38>   H                      4.300942             -3.910907            -1.216338
| 39>   H                      4.971459             -5.059759            -2.422785
| 40>   H                      5.262418             -5.328838            -0.725788
| 41>   C                    : 7.641876             -1.443304            -3.827482
| 42>   O                    : 8.660792             -1.847088            -2.945813
| 43>   H                    : 8.216865             -1.976950            -2.076097
| 44>   H                    : 6.758530             -2.093491            -3.837452
| 45>   H                    : 7.290760             -0.440925            -3.544145
| 46>   H                    : 8.044087             -1.370167            -4.856427
| 47> *
| 48>
| 49> #Run DFT-D3 single point of the particle with dimer basis set
| 50> $new_job
| 51> %base "13-207_DFT_B"
| 52> ! wB97X-D3 def2-TZVP TIGHTSCF CHELPG PMODEL
| 53>
| 54> %scf
| 55> MaxIter 1000
| 56> end
| 57>
| 58> * xyz 0 1
| 59>   C                    : 5.160119             -4.518508            -1.480591
| 60>   O                    : 6.307349             -3.679778            -1.437952
| 61>   H                    : 6.918061             -4.117089            -2.025001
| 62>   H                    : 4.300942             -3.910907            -1.216338
| 63>   H                    : 4.971459             -5.059759            -2.422785
| 64>   H                    : 5.262418             -5.328838            -0.725788
| 65>   C                      7.641876             -1.443304            -3.827482
| 66>   O                      8.660792             -1.847088            -2.945813
| 67>   H                      8.216865             -1.976950            -2.076097
| 68>   H                      6.758530             -2.093491            -3.837452
| 69>   H                      7.290760             -0.440925            -3.544145
| 70>   H                      8.044087             -1.370167            -4.856427
| 71> *
| 72>
| 73>                          ****END OF INPUT****
 Total Charge           Charge          ....    0
 Multiplicity           Mult            ....    1
 Number of Electrons    NEL             ....   36
Dispersion correction           -0.001735277
FINAL SINGLE POINT ENERGY      -231.475906799111
Dispersion correction           -0.000241773
FINAL SINGLE POINT ENERGY      -115.734960850171

CARTESIAN COORDINATES (ANGSTROEM)
---------------------------------
  C      5.160119   -4.518508   -1.480591
  O      6.307349   -3.679778   -1.437952
  H      6.918061   -4.117089   -2.025001
  H      4.300942   -3.910907   -1.216338
  H      4.971459   -5.059759   -2.422785
  H      5.262418   -5.328838   -0.725788
  C      7.641876   -1.443304   -3.827482
  O      8.660792   -1.847088   -2.945813
  H      8.216865   -1.976950   -2.076097
  H      6.758530   -2.093491   -3.837452
  H      7.290760   -0.440925   -3.544145
  H      8.044087   -1.370167   -4.856427

 Multiplicity           Mult            ....    1
 Number of Electrons    NEL             ....   18
 Basis Dimension        Dim             ....  172

ORBITAL ENERGIES
----------------

  NO   OCC          E(Eh)            E(eV)
   0   2.0000     -19.235048      -523.4123
   1   2.0000     -10.314715      -280.6777
   2   2.0000      -1.136821       -30.9345
   3   2.0000      -0.790418       -21.5084
   4   2.0000      -0.610841       -16.6218
   5   2.0000      -0.540073       -14.6961
   6   2.0000      -0.526565       -14.3286
   7   2.0000      -0.437383       -11.9018
   8   2.0000      -0.372547       -10.1375
   9   0.0000       0.075407         2.0519
  10   0.0000       0.120313         3.2739
  11   0.0000       0.151325         4.1178
  12   0.0000       0.180475         4.9110
  13   0.0000       0.187238         5.0950

MULLIKEN ATOMIC CHARGES
-----------------------
   0 C :   -0.000062
   1 O :   -0.001606
   2 H :   -0.003633
   3 H :   -0.000104
   4 H :   -0.000037
   5 H :   -0.000001
   6 C :   -0.165160
   7 O :   -0.466554
   8 H :    0.317149
   9 H :    0.102538
  10 H :    0.097439
  11 H :    0.120031
Sum of atomic charges:    0.0000000

LOEWDIN ATOMIC CHARGES
----------------------
   0 C :   -0.000726
   1 O :   -0.004130
   2 H :   -0.004115
   3 H :   -0.000029
   4 H :   -0.000063
   5 H :   -0.000008
   6 C :   -0.397791
   7 O :   -0.076619
   8 H :    0.185320
   9 H :    0.093051
  10 H :    0.093659
  11 H :    0.111451

  Mayer bond orders larger than 0.1
B(  6-C ,  7-O ) :   1.0011 B(  6-C ,  9-H ) :   0.9695 B(  6-C , 10-H ) :   0.9835
B(  6-C , 11-H ) :   0.9733 B(  7-O ,  8-H ) :   0.8968

Dispersion correction           -0.000233963
FINAL SINGLE POINT ENERGY      -115.736134536788

DIPOLE MOMENT
-------------
                                X             Y             Z
Electronic contribution:      1.45452      -0.58598       1.02044
Nuclear contribution   :     -2.11254       0.66483      -0.82930
                        -----------------------------------------
Total Dipole Moment    :     -0.65802       0.07885       0.19114
                        -----------------------------------------
Magnitude (a.u.)       :      0.68974
Magnitude (Debye)      :      1.75318

Rotational constants in cm-1:     4.203182     0.839677     0.803774
Rotational constants in MHz : 126008.226074 25172.872562 24096.539110

                             ****ORCA TERMINATED NORMALLY****
TOTAL RUN TIME: 0 days 0 hours 1 minutes 0 seconds 337 msec
