                         Program Version 4.1.2  - RELEASE  -
|  1> #Run DFT-D3 single point of the dimer
|  2> ! wB97X-D3 def2-TZVP TIGHTSCF CHELPG PMODEL PAL8
|  3>
|  4> %base "9-212_DFT_AB"
|  5>
|  6> %scf
|  7> MaxIter 1000
|  8> end
|  9>
| 10> * xyz 0 1
| 11>   C                      2.965190             6.623918             0.967026
| 12>   O                      3.087321             7.178349             2.250108
| 13>   H                      2.300229             6.975506             2.740599
| 14>   H                      3.202862             5.599845             0.971613
| 15>   H                      1.936361             6.698119             0.639535
| 16>   H                      3.581406             7.209717             0.268602
| 17>   C                      -0.295640            5.583411             4.615057
| 18>   O                      0.703822             6.013300             3.708380
| 19>   H                      0.533030             5.490817             2.814526
| 20>   H                      -0.269927            4.481626             4.780587
| 21>   H                      -0.123123            6.165248             5.600437
| 22>   H                      -1.338070            5.897622             4.206678
| 23> *
| 24>
| 25> #Run DFT-D3 single point of the molecule with dimer basis set
| 26> $new_job
| 27> %base "9-212_DFT_A"
| 28> ! wB97X-D3 def2-TZVP TIGHTSCF CHELPG PMODEL
| 29>
| 30> %scf
| 31> MaxIter 1000
| 32> end
| 33>
| 34> * xyz 0 1
| 35>   C                      2.965190             6.623918             0.967026
| 36>   O                      3.087321             7.178349             2.250108
| 37>   H                      2.300229             6.975506             2.740599
| 38>   H                      3.202862             5.599845             0.971613
| 39>   H                      1.936361             6.698119             0.639535
| 40>   H                      3.581406             7.209717             0.268602
| 41>   C                    : -0.295640            5.583411             4.615057
| 42>   O                    : 0.703822             6.013300             3.708380
| 43>   H                    : 0.533030             5.490817             2.814526
| 44>   H                    : -0.269927            4.481626             4.780587
| 45>   H                    : -0.123123            6.165248             5.600437
| 46>   H                    : -1.338070            5.897622             4.206678
| 47> *
| 48>
| 49> #Run DFT-D3 single point of the particle with dimer basis set
| 50> $new_job
| 51> %base "9-212_DFT_B"
| 52> ! wB97X-D3 def2-TZVP TIGHTSCF CHELPG PMODEL
| 53>
| 54> %scf
| 55> MaxIter 1000
| 56> end
| 57>
| 58> * xyz 0 1
| 59>   C                    : 2.965190             6.623918             0.967026
| 60>   O                    : 3.087321             7.178349             2.250108
| 61>   H                    : 2.300229             6.975506             2.740599
| 62>   H                    : 3.202862             5.599845             0.971613
| 63>   H                    : 1.936361             6.698119             0.639535
| 64>   H                    : 3.581406             7.209717             0.268602
| 65>   C                      -0.295640            5.583411             4.615057
| 66>   O                      0.703822             6.013300             3.708380
| 67>   H                      0.533030             5.490817             2.814526
| 68>   H                      -0.269927            4.481626             4.780587
| 69>   H                      -0.123123            6.165248             5.600437
| 70>   H                      -1.338070            5.897622             4.206678
| 71> *
| 72>
| 73>                          ****END OF INPUT****
 Total Charge           Charge          ....    0
 Multiplicity           Mult            ....    1
 Number of Electrons    NEL             ....   36
Dispersion correction           -0.001569060
FINAL SINGLE POINT ENERGY      -231.465355089426
Dispersion correction           -0.000218467
FINAL SINGLE POINT ENERGY      -115.734784907743

CARTESIAN COORDINATES (ANGSTROEM)
---------------------------------
  C      2.965190    6.623918    0.967026
  O      3.087321    7.178349    2.250108
  H      2.300229    6.975506    2.740599
  H      3.202862    5.599845    0.971613
  H      1.936361    6.698119    0.639535
  H      3.581406    7.209717    0.268602
  C     -0.295640    5.583411    4.615057
  O      0.703822    6.013300    3.708380
  H      0.533030    5.490817    2.814526
  H     -0.269927    4.481626    4.780587
  H     -0.123123    6.165248    5.600437
  H     -1.338070    5.897622    4.206678

 Multiplicity           Mult            ....    1
 Number of Electrons    NEL             ....   18
 Basis Dimension        Dim             ....  172

ORBITAL ENERGIES
----------------

  NO   OCC          E(Eh)            E(eV)
   0   2.0000     -19.239713      -523.5392
   1   2.0000     -10.329362      -281.0762
   2   2.0000      -1.123326       -30.5672
   3   2.0000      -0.775128       -21.0923
   4   2.0000      -0.598471       -16.2852
   5   2.0000      -0.536292       -14.5933
   6   2.0000      -0.517634       -14.0855
   7   2.0000      -0.430098       -11.7036
   8   2.0000      -0.370468       -10.0810
   9   0.0000       0.082333         2.2404
  10   0.0000       0.119971         3.2646
  11   0.0000       0.150292         4.0897
  12   0.0000       0.180489         4.9113
  13   0.0000       0.193308         5.2602

MULLIKEN ATOMIC CHARGES
-----------------------
   0 C :    0.000116
   1 O :    0.000732
   2 H :   -0.009581
   3 H :   -0.000128
   4 H :   -0.001513
   5 H :   -0.000097
   6 C :   -0.175480
   7 O :   -0.456186
   8 H :    0.316937
   9 H :    0.107733
  10 H :    0.121790
  11 H :    0.095676
Sum of atomic charges:    0.0000000

LOEWDIN ATOMIC CHARGES
----------------------
   0 C :   -0.002734
   1 O :   -0.002781
   2 H :   -0.027492
   3 H :   -0.000248
   4 H :   -0.000926
   5 H :   -0.000023
   6 C :   -0.409147
   7 O :   -0.093356
   8 H :    0.218995
   9 H :    0.095629
  10 H :    0.120208
  11 H :    0.101874

  Mayer bond orders larger than 0.1
B(  6-C ,  7-O ) :   0.9983 B(  6-C ,  9-H ) :   0.9646 B(  6-C , 10-H ) :   0.9722
B(  6-C , 11-H ) :   0.9731 B(  7-O ,  8-H ) :   0.8842

Dispersion correction           -0.000257136
FINAL SINGLE POINT ENERGY      -115.725582445616

DIPOLE MOMENT
-------------
                                X             Y             Z
Electronic contribution:      1.41074       0.56812      -1.00264
Nuclear contribution   :     -1.87810      -1.04686       0.82500
                        -----------------------------------------
Total Dipole Moment    :     -0.46736      -0.47874      -0.17764
                        -----------------------------------------
Magnitude (a.u.)       :      0.69222
Magnitude (Debye)      :      1.75948

Rotational constants in cm-1:     3.780031     0.824895     0.788195
Rotational constants in MHz : 113322.474714 24729.723328 23629.479516

                             ****ORCA TERMINATED NORMALLY****
TOTAL RUN TIME: 0 days 0 hours 0 minutes 43 seconds 370 msec
