                         Program Version 4.1.2  - RELEASE  -
|  1> #Run DFT-D3 single point of the dimer
|  2> ! wB97X-D3 def2-TZVP TIGHTSCF CHELPG PMODEL PAL8
|  3>
|  4> %base "18-19_DFT_AB"
|  5>
|  6> %scf
|  7> MaxIter 1000
|  8> end
|  9>
| 10> * xyz 0 1
| 11>   C                      -5.176520            -0.642955            5.468790
| 12>   O                      -4.038877            -1.295501            5.945422
| 13>   H                      -4.126203            -2.205438            5.650035
| 14>   H                      -5.286508            -0.774904            4.375683
| 15>   H                      -6.105946            -0.911018            5.899308
| 16>   H                      -5.090722            0.414521             5.747167
| 17>   C                      -0.641337            -1.278704            2.735910
| 18>   O                      -0.235503            -1.995124            1.558616
| 19>   H                      -0.216393            -1.287634            0.896333
| 20>   H                      -1.715056            -1.169015            2.646839
| 21>   H                      -0.486806            -1.780883            3.720906
| 22>   H                      -0.073791            -0.337690            2.824643
| 23> *
| 24>
| 25> #Run DFT-D3 single point of the molecule with dimer basis set
| 26> $new_job
| 27> %base "18-19_DFT_A"
| 28> ! wB97X-D3 def2-TZVP TIGHTSCF CHELPG PMODEL
| 29>
| 30> %scf
| 31> MaxIter 1000
| 32> end
| 33>
| 34> * xyz 0 1
| 35>   C                      -5.176520            -0.642955            5.468790
| 36>   O                      -4.038877            -1.295501            5.945422
| 37>   H                      -4.126203            -2.205438            5.650035
| 38>   H                      -5.286508            -0.774904            4.375683
| 39>   H                      -6.105946            -0.911018            5.899308
| 40>   H                      -5.090722            0.414521             5.747167
| 41>   C                    : -0.641337            -1.278704            2.735910
| 42>   O                    : -0.235503            -1.995124            1.558616
| 43>   H                    : -0.216393            -1.287634            0.896333
| 44>   H                    : -1.715056            -1.169015            2.646839
| 45>   H                    : -0.486806            -1.780883            3.720906
| 46>   H                    : -0.073791            -0.337690            2.824643
| 47> *
| 48>
| 49> #Run DFT-D3 single point of the particle with dimer basis set
| 50> $new_job
| 51> %base "18-19_DFT_B"
| 52> ! wB97X-D3 def2-TZVP TIGHTSCF CHELPG PMODEL
| 53>
| 54> %scf
| 55> MaxIter 1000
| 56> end
| 57>
| 58> * xyz 0 1
| 59>   C                    : -5.176520            -0.642955            5.468790
| 60>   O                    : -4.038877            -1.295501            5.945422
| 61>   H                    : -4.126203            -2.205438            5.650035
| 62>   H                    : -5.286508            -0.774904            4.375683
| 63>   H                    : -6.105946            -0.911018            5.899308
| 64>   H                    : -5.090722            0.414521             5.747167
| 65>   C                      -0.641337            -1.278704            2.735910
| 66>   O                      -0.235503            -1.995124            1.558616
| 67>   H                      -0.216393            -1.287634            0.896333
| 68>   H                      -1.715056            -1.169015            2.646839
| 69>   H                      -0.486806            -1.780883            3.720906
| 70>   H                      -0.073791            -0.337690            2.824643
| 71> *
| 72>
| 73>                          ****END OF INPUT****
 Total Charge           Charge          ....    0
 Multiplicity           Mult            ....    1
 Number of Electrons    NEL             ....   36
Dispersion correction           -0.000781033
FINAL SINGLE POINT ENERGY      -231.465146264539
Dispersion correction           -0.000229559
FINAL SINGLE POINT ENERGY      -115.734242227924

CARTESIAN COORDINATES (ANGSTROEM)
---------------------------------
  C     -5.176520   -0.642955    5.468790
  O     -4.038877   -1.295501    5.945422
  H     -4.126203   -2.205438    5.650035
  H     -5.286508   -0.774904    4.375683
  H     -6.105946   -0.911018    5.899308
  H     -5.090722    0.414521    5.747167
  C     -0.641337   -1.278704    2.735910
  O     -0.235503   -1.995124    1.558616
  H     -0.216393   -1.287634    0.896333
  H     -1.715056   -1.169015    2.646839
  H     -0.486806   -1.780883    3.720906
  H     -0.073791   -0.337690    2.824643

 Multiplicity           Mult            ....    1
 Number of Electrons    NEL             ....   18
 Basis Dimension        Dim             ....  172

ORBITAL ENERGIES
----------------

  NO   OCC          E(Eh)            E(eV)
   0   2.0000     -19.231276      -523.3096
   1   2.0000     -10.317148      -280.7439
   2   2.0000      -1.131537       -30.7907
   3   2.0000      -0.791229       -21.5304
   4   2.0000      -0.599346       -16.3090
   5   2.0000      -0.549032       -14.9399
   6   2.0000      -0.525909       -14.3107
   7   2.0000      -0.431806       -11.7501
   8   2.0000      -0.374217       -10.1830
   9   0.0000       0.082222         2.2374
  10   0.0000       0.114415         3.1134
  11   0.0000       0.143635         3.9085
  12   0.0000       0.172719         4.6999
  13   0.0000       0.181632         4.9425

MULLIKEN ATOMIC CHARGES
-----------------------
   0 C :   -0.000015
   1 O :    0.000026
   2 H :   -0.000062
   3 H :   -0.000110
   4 H :   -0.000009
   5 H :    0.000003
   6 C :   -0.181063
   7 O :   -0.471681
   8 H :    0.316410
   9 H :    0.112458
  10 H :    0.118458
  11 H :    0.105585
Sum of atomic charges:    0.0000000

LOEWDIN ATOMIC CHARGES
----------------------
   0 C :   -0.000126
   1 O :   -0.000040
   2 H :   -0.000057
   3 H :   -0.000077
   4 H :   -0.000003
   5 H :   -0.000002
   6 C :   -0.379429
   7 O :   -0.101232
   8 H :    0.176534
   9 H :    0.095543
  10 H :    0.110886
  11 H :    0.098003

  Mayer bond orders larger than 0.1
B(  6-C ,  7-O ) :   0.9898 B(  6-C ,  9-H ) :   0.9824 B(  6-C , 10-H ) :   0.9691
B(  6-C , 11-H ) :   0.9795 B(  7-O ,  8-H ) :   0.9000

Dispersion correction           -0.000232225
FINAL SINGLE POINT ENERGY      -115.730134842045

DIPOLE MOMENT
-------------
                                X             Y             Z
Electronic contribution:      0.55187      -1.05905      -1.41787
Nuclear contribution   :     -0.69735       1.77939       1.49653
                        -----------------------------------------
Total Dipole Moment    :     -0.14549       0.72034       0.07866
                        -----------------------------------------
Magnitude (a.u.)       :      0.73908
Magnitude (Debye)      :      1.87859

Rotational constants in cm-1:     4.230044     0.810884     0.786519
Rotational constants in MHz : 126813.539351 24309.683936 23579.235472

                             ****ORCA TERMINATED NORMALLY****
TOTAL RUN TIME: 0 days 0 hours 0 minutes 55 seconds 682 msec
