                         Program Version 4.1.2  - RELEASE  -
|  1> #Run DFT-D3 single point of the dimer
|  2> ! wB97X-D3 def2-TZVP TIGHTSCF CHELPG PMODEL PAL8
|  3>
|  4> %base "3-172_DFT_AB"
|  5>
|  6> %scf
|  7> MaxIter 1000
|  8> end
|  9>
| 10> * xyz 0 1
| 11>   C                      2.699402             -3.634339            -11.448789
| 12>   O                      3.095201             -3.066923            -10.252742
| 13>   H                      3.010599             -3.773326            -9.633671
| 14>   H                      2.888609             -4.616307            -11.672325
| 15>   H                      1.616299             -3.610211            -11.627145
| 16>   H                      3.167318             -3.013800            -12.175437
| 17>   C                      3.363542             -8.764673            -10.582646
| 18>   O                      3.248719             -7.391291            -11.051283
| 19>   H                      2.560820             -7.434277            -11.711269
| 20>   H                      2.413977             -9.288456            -10.532275
| 21>   H                      3.955452             -9.375713            -11.328671
| 22>   H                      3.829267             -8.886131            -9.608058
| 23> *
| 24>
| 25> #Run DFT-D3 single point of the molecule with dimer basis set
| 26> $new_job
| 27> %base "3-172_DFT_A"
| 28> ! wB97X-D3 def2-TZVP TIGHTSCF CHELPG PMODEL
| 29>
| 30> %scf
| 31> MaxIter 1000
| 32> end
| 33>
| 34> * xyz 0 1
| 35>   C                      2.699402             -3.634339            -11.448789
| 36>   O                      3.095201             -3.066923            -10.252742
| 37>   H                      3.010599             -3.773326            -9.633671
| 38>   H                      2.888609             -4.616307            -11.672325
| 39>   H                      1.616299             -3.610211            -11.627145
| 40>   H                      3.167318             -3.013800            -12.175437
| 41>   C                    : 3.363542             -8.764673            -10.582646
| 42>   O                    : 3.248719             -7.391291            -11.051283
| 43>   H                    : 2.560820             -7.434277            -11.711269
| 44>   H                    : 2.413977             -9.288456            -10.532275
| 45>   H                    : 3.955452             -9.375713            -11.328671
| 46>   H                    : 3.829267             -8.886131            -9.608058
| 47> *
| 48>
| 49> #Run DFT-D3 single point of the particle with dimer basis set
| 50> $new_job
| 51> %base "3-172_DFT_B"
| 52> ! wB97X-D3 def2-TZVP TIGHTSCF CHELPG PMODEL
| 53>
| 54> %scf
| 55> MaxIter 1000
| 56> end
| 57>
| 58> * xyz 0 1
| 59>   C                    : 2.699402             -3.634339            -11.448789
| 60>   O                    : 3.095201             -3.066923            -10.252742
| 61>   H                    : 3.010599             -3.773326            -9.633671
| 62>   H                    : 2.888609             -4.616307            -11.672325
| 63>   H                    : 1.616299             -3.610211            -11.627145
| 64>   H                    : 3.167318             -3.013800            -12.175437
| 65>   C                      3.363542             -8.764673            -10.582646
| 66>   O                      3.248719             -7.391291            -11.051283
| 67>   H                      2.560820             -7.434277            -11.711269
| 68>   H                      2.413977             -9.288456            -10.532275
| 69>   H                      3.955452             -9.375713            -11.328671
| 70>   H                      3.829267             -8.886131            -9.608058
| 71> *
| 72>
| 73>                          ****END OF INPUT****
 Total Charge           Charge          ....    0
 Multiplicity           Mult            ....    1
 Number of Electrons    NEL             ....   36
Dispersion correction           -0.001157870
FINAL SINGLE POINT ENERGY      -231.460030695025
Dispersion correction           -0.000222267
FINAL SINGLE POINT ENERGY      -115.725915628067

CARTESIAN COORDINATES (ANGSTROEM)
---------------------------------
  C      2.699402   -3.634339  -11.448789
  O      3.095201   -3.066923  -10.252742
  H      3.010599   -3.773326   -9.633671
  H      2.888609   -4.616307  -11.672325
  H      1.616299   -3.610211  -11.627145
  H      3.167318   -3.013800  -12.175437
  C      3.363542   -8.764673  -10.582646
  O      3.248719   -7.391291  -11.051283
  H      2.560820   -7.434277  -11.711269
  H      2.413977   -9.288456  -10.532275
  H      3.955452   -9.375713  -11.328671
  H      3.829267   -8.886131   -9.608058

 Multiplicity           Mult            ....    1
 Number of Electrons    NEL             ....   18
 Basis Dimension        Dim             ....  172

ORBITAL ENERGIES
----------------

  NO   OCC          E(Eh)            E(eV)
   0   2.0000     -19.234102      -523.3865
   1   2.0000     -10.320146      -280.8255
   2   2.0000      -1.129412       -30.7329
   3   2.0000      -0.796608       -21.6768
   4   2.0000      -0.606296       -16.4981
   5   2.0000      -0.532407       -14.4875
   6   2.0000      -0.523886       -14.2557
   7   2.0000      -0.444570       -12.0974
   8   2.0000      -0.374824       -10.1995
   9   0.0000       0.094374         2.5680
  10   0.0000       0.120355         3.2750
  11   0.0000       0.149315         4.0631
  12   0.0000       0.176219         4.7952
  13   0.0000       0.196286         5.3412

MULLIKEN ATOMIC CHARGES
-----------------------
   0 C :    0.001662
   1 O :    0.000085
   2 H :   -0.000721
   3 H :   -0.005781
   4 H :   -0.000040
   5 H :   -0.000132
   6 C :   -0.194285
   7 O :   -0.460236
   8 H :    0.314834
   9 H :    0.112270
  10 H :    0.102924
  11 H :    0.129420
Sum of atomic charges:   -0.0000000

LOEWDIN ATOMIC CHARGES
----------------------
   0 C :   -0.002330
   1 O :   -0.000018
   2 H :   -0.000374
   3 H :   -0.004084
   4 H :   -0.000034
   5 H :   -0.000019
   6 C :   -0.363899
   7 O :   -0.096952
   8 H :    0.165680
   9 H :    0.094108
  10 H :    0.102010
  11 H :    0.105913

  Mayer bond orders larger than 0.1
B(  6-C ,  7-O ) :   0.9959 B(  6-C ,  9-H ) :   0.9747 B(  6-C , 10-H ) :   0.9751
B(  6-C , 11-H ) :   0.9722 B(  7-O ,  8-H ) :   0.9015

Dispersion correction           -0.000259734
FINAL SINGLE POINT ENERGY      -115.732310068685

DIPOLE MOMENT
-------------
                                X             Y             Z
Electronic contribution:     -0.05042       1.89821      -0.38287
Nuclear contribution   :     -0.35507      -2.50249       0.17820
                        -----------------------------------------
Total Dipole Moment    :     -0.40549      -0.60428      -0.20467
                        -----------------------------------------
Magnitude (a.u.)       :      0.75596
Magnitude (Debye)      :      1.92149

Rotational constants in cm-1:     4.314049     0.787958     0.760153
Rotational constants in MHz : 129331.948235 23622.392109 22788.805590

                             ****ORCA TERMINATED NORMALLY****
TOTAL RUN TIME: 0 days 0 hours 5 minutes 30 seconds 785 msec
