                         Program Version 4.1.2  - RELEASE  -
|  1> #Run DFT-D3 single point of the dimer
|  2> ! wB97X-D3 def2-TZVP TIGHTSCF CHELPG PMODEL PAL8
|  3>
|  4> %base "22-111_DFT_AB"
|  5>
|  6> %scf
|  7> MaxIter 1000
|  8> end
|  9>
| 10> * xyz 0 1
| 11>   C                      2.728777             -5.694057            -8.740329
| 12>   O                      2.324008             -5.912598            -10.072786
| 13>   H                      2.987133             -6.439181            -10.468047
| 14>   H                      2.161046             -4.898734            -8.325374
| 15>   H                      2.535671             -6.576832            -8.025007
| 16>   H                      3.746550             -5.495858            -8.741357
| 17>   C                      1.442386             -2.274042            -9.890710
| 18>   O                      0.592274             -2.089816            -8.804962
| 19>   H                      0.747935             -1.204462            -8.573068
| 20>   H                      1.681016             -1.319483            -10.309592
| 21>   H                      2.439277             -2.726638            -9.619208
| 22>   H                      0.897639             -2.841825            -10.695493
| 23> *
| 24>
| 25> #Run DFT-D3 single point of the molecule with dimer basis set
| 26> $new_job
| 27> %base "22-111_DFT_A"
| 28> ! wB97X-D3 def2-TZVP TIGHTSCF CHELPG PMODEL
| 29>
| 30> %scf
| 31> MaxIter 1000
| 32> end
| 33>
| 34> * xyz 0 1
| 35>   C                      2.728777             -5.694057            -8.740329
| 36>   O                      2.324008             -5.912598            -10.072786
| 37>   H                      2.987133             -6.439181            -10.468047
| 38>   H                      2.161046             -4.898734            -8.325374
| 39>   H                      2.535671             -6.576832            -8.025007
| 40>   H                      3.746550             -5.495858            -8.741357
| 41>   C                    : 1.442386             -2.274042            -9.890710
| 42>   O                    : 0.592274             -2.089816            -8.804962
| 43>   H                    : 0.747935             -1.204462            -8.573068
| 44>   H                    : 1.681016             -1.319483            -10.309592
| 45>   H                    : 2.439277             -2.726638            -9.619208
| 46>   H                    : 0.897639             -2.841825            -10.695493
| 47> *
| 48>
| 49> #Run DFT-D3 single point of the particle with dimer basis set
| 50> $new_job
| 51> %base "22-111_DFT_B"
| 52> ! wB97X-D3 def2-TZVP TIGHTSCF CHELPG PMODEL
| 53>
| 54> %scf
| 55> MaxIter 1000
| 56> end
| 57>
| 58> * xyz 0 1
| 59>   C                    : 2.728777             -5.694057            -8.740329
| 60>   O                    : 2.324008             -5.912598            -10.072786
| 61>   H                    : 2.987133             -6.439181            -10.468047
| 62>   H                    : 2.161046             -4.898734            -8.325374
| 63>   H                    : 2.535671             -6.576832            -8.025007
| 64>   H                    : 3.746550             -5.495858            -8.741357
| 65>   C                      1.442386             -2.274042            -9.890710
| 66>   O                      0.592274             -2.089816            -8.804962
| 67>   H                      0.747935             -1.204462            -8.573068
| 68>   H                      1.681016             -1.319483            -10.309592
| 69>   H                      2.439277             -2.726638            -9.619208
| 70>   H                      0.897639             -2.841825            -10.695493
| 71> *
| 72>
| 73>                          ****END OF INPUT****
 Total Charge           Charge          ....    0
 Multiplicity           Mult            ....    1
 Number of Electrons    NEL             ....   36
Dispersion correction           -0.001695048
FINAL SINGLE POINT ENERGY      -231.463091299455
Dispersion correction           -0.000232302
FINAL SINGLE POINT ENERGY      -115.731157257319

CARTESIAN COORDINATES (ANGSTROEM)
---------------------------------
  C      2.728777   -5.694057   -8.740329
  O      2.324008   -5.912598  -10.072786
  H      2.987133   -6.439181  -10.468047
  H      2.161046   -4.898734   -8.325374
  H      2.535671   -6.576832   -8.025007
  H      3.746550   -5.495858   -8.741357
  C      1.442386   -2.274042   -9.890710
  O      0.592274   -2.089816   -8.804962
  H      0.747935   -1.204462   -8.573068
  H      1.681016   -1.319483  -10.309592
  H      2.439277   -2.726638   -9.619208
  H      0.897639   -2.841825  -10.695493

 Multiplicity           Mult            ....    1
 Number of Electrons    NEL             ....   18
 Basis Dimension        Dim             ....  172

ORBITAL ENERGIES
----------------

  NO   OCC          E(Eh)            E(eV)
   0   2.0000     -19.229207      -523.2533
   1   2.0000     -10.316021      -280.7132
   2   2.0000      -1.155194       -31.4344
   3   2.0000      -0.791279       -21.5318
   4   2.0000      -0.623483       -16.9658
   5   2.0000      -0.544016       -14.8034
   6   2.0000      -0.526226       -14.3193
   7   2.0000      -0.436493       -11.8776
   8   2.0000      -0.375032       -10.2052
   9   0.0000       0.089391         2.4324
  10   0.0000       0.118570         3.2265
  11   0.0000       0.157783         4.2935
  12   0.0000       0.170500         4.6395
  13   0.0000       0.188170         5.1204

MULLIKEN ATOMIC CHARGES
-----------------------
   0 C :   -0.000794
   1 O :   -0.000082
   2 H :   -0.000099
   3 H :    0.002472
   4 H :    0.000124
   5 H :   -0.000622
   6 C :   -0.172219
   7 O :   -0.450545
   8 H :    0.309254
   9 H :    0.104973
  10 H :    0.096783
  11 H :    0.110756
Sum of atomic charges:   -0.0000000

LOEWDIN ATOMIC CHARGES
----------------------
   0 C :   -0.005016
   1 O :   -0.000519
   2 H :   -0.000054
   3 H :   -0.002262
   4 H :   -0.000038
   5 H :   -0.000415
   6 C :   -0.404975
   7 O :   -0.043528
   8 H :    0.153508
   9 H :    0.089242
  10 H :    0.102689
  11 H :    0.111368

  Mayer bond orders larger than 0.1
B(  6-C ,  7-O ) :   1.0021 B(  6-C ,  9-H ) :   0.9900 B(  6-C , 10-H ) :   0.9666
B(  6-C , 11-H ) :   0.9754 B(  7-O ,  8-H ) :   0.9098

Dispersion correction           -0.000225630
FINAL SINGLE POINT ENERGY      -115.730568039201

DIPOLE MOMENT
-------------
                                X             Y             Z
Electronic contribution:     -1.18234       0.07230       1.46412
Nuclear contribution   :      1.58361       0.47890      -1.72684
                        -----------------------------------------
Total Dipole Moment    :      0.40127       0.55120      -0.26272
                        -----------------------------------------
Magnitude (a.u.)       :      0.73066
Magnitude (Debye)      :      1.85719

Rotational constants in cm-1:     4.212356     0.856371     0.831468
Rotational constants in MHz : 126283.269012 25673.355546 24926.772506

                             ****ORCA TERMINATED NORMALLY****
TOTAL RUN TIME: 0 days 0 hours 1 minutes 0 seconds 49 msec
