                         Program Version 4.1.2  - RELEASE  -
|  1> #Run DFT-D3 single point of the dimer
|  2> ! wB97X-D3 def2-TZVP TIGHTSCF CHELPG PMODEL PAL8
|  3>
|  4> %base "3-152_DFT_AB"
|  5>
|  6> %scf
|  7> MaxIter 1000
|  8> end
|  9>
| 10> * xyz 0 1
| 11>   C                      6.745725             9.675620             6.100346
| 12>   O                      6.065059             8.799649             5.211877
| 13>   H                      5.292187             9.106264             4.782544
| 14>   H                      7.817412             9.817642             5.772021
| 15>   H                      6.263485             10.669242            6.151953
| 16>   H                      6.794358             9.337570             7.126804
| 17>   C                      3.733299             6.859610             2.720790
| 18>   O                      3.502867             7.423119             1.417121
| 19>   H                      3.279573             8.337409             1.449932
| 20>   H                      4.146338             5.882763             2.750245
| 21>   H                      4.371896             7.503709             3.329809
| 22>   H                      2.808982             6.745300             3.255661
| 23> *
| 24>
| 25> #Run DFT-D3 single point of the molecule with dimer basis set
| 26> $new_job
| 27> %base "3-152_DFT_A"
| 28> ! wB97X-D3 def2-TZVP TIGHTSCF CHELPG PMODEL
| 29>
| 30> %scf
| 31> MaxIter 1000
| 32> end
| 33>
| 34> * xyz 0 1
| 35>   C                      6.745725             9.675620             6.100346
| 36>   O                      6.065059             8.799649             5.211877
| 37>   H                      5.292187             9.106264             4.782544
| 38>   H                      7.817412             9.817642             5.772021
| 39>   H                      6.263485             10.669242            6.151953
| 40>   H                      6.794358             9.337570             7.126804
| 41>   C                    : 3.733299             6.859610             2.720790
| 42>   O                    : 3.502867             7.423119             1.417121
| 43>   H                    : 3.279573             8.337409             1.449932
| 44>   H                    : 4.146338             5.882763             2.750245
| 45>   H                    : 4.371896             7.503709             3.329809
| 46>   H                    : 2.808982             6.745300             3.255661
| 47> *
| 48>
| 49> #Run DFT-D3 single point of the particle with dimer basis set
| 50> $new_job
| 51> %base "3-152_DFT_B"
| 52> ! wB97X-D3 def2-TZVP TIGHTSCF CHELPG PMODEL
| 53>
| 54> %scf
| 55> MaxIter 1000
| 56> end
| 57>
| 58> * xyz 0 1
| 59>   C                    : 6.745725             9.675620             6.100346
| 60>   O                    : 6.065059             8.799649             5.211877
| 61>   H                    : 5.292187             9.106264             4.782544
| 62>   H                    : 7.817412             9.817642             5.772021
| 63>   H                    : 6.263485             10.669242            6.151953
| 64>   H                    : 6.794358             9.337570             7.126804
| 65>   C                      3.733299             6.859610             2.720790
| 66>   O                      3.502867             7.423119             1.417121
| 67>   H                      3.279573             8.337409             1.449932
| 68>   H                      4.146338             5.882763             2.750245
| 69>   H                      4.371896             7.503709             3.329809
| 70>   H                      2.808982             6.745300             3.255661
| 71> *
| 72>
| 73>                          ****END OF INPUT****
 Total Charge           Charge          ....    0
 Multiplicity           Mult            ....    1
 Number of Electrons    NEL             ....   36
Dispersion correction           -0.001177316
FINAL SINGLE POINT ENERGY      -231.462756424009
Dispersion correction           -0.000278855
FINAL SINGLE POINT ENERGY      -115.731226077388

CARTESIAN COORDINATES (ANGSTROEM)
---------------------------------
  C      6.745725    9.675620    6.100346
  O      6.065059    8.799649    5.211877
  H      5.292187    9.106264    4.782544
  H      7.817412    9.817642    5.772021
  H      6.263485   10.669242    6.151953
  H      6.794358    9.337570    7.126804
  C      3.733299    6.859610    2.720790
  O      3.502867    7.423119    1.417121
  H      3.279573    8.337409    1.449932
  H      4.146338    5.882763    2.750245
  H      4.371896    7.503709    3.329809
  H      2.808982    6.745300    3.255661

 Multiplicity           Mult            ....    1
 Number of Electrons    NEL             ....   18
 Basis Dimension        Dim             ....  172

ORBITAL ENERGIES
----------------

  NO   OCC          E(Eh)            E(eV)
   0   2.0000     -19.226475      -523.1790
   1   2.0000     -10.310696      -280.5683
   2   2.0000      -1.128589       -30.7105
   3   2.0000      -0.806366       -21.9423
   4   2.0000      -0.610366       -16.6089
   5   2.0000      -0.538591       -14.6558
   6   2.0000      -0.533176       -14.5085
   7   2.0000      -0.429211       -11.6794
   8   2.0000      -0.373771       -10.1708
   9   0.0000       0.082783         2.2526
  10   0.0000       0.117933         3.2091
  11   0.0000       0.145634         3.9629
  12   0.0000       0.173854         4.7308
  13   0.0000       0.194205         5.2846

MULLIKEN ATOMIC CHARGES
-----------------------
   0 C :   -0.000243
   1 O :   -0.000162
   2 H :    0.000212
   3 H :    0.000006
   4 H :    0.000006
   5 H :    0.000003
   6 C :   -0.159076
   7 O :   -0.489827
   8 H :    0.315617
   9 H :    0.126524
  10 H :    0.099603
  11 H :    0.107337
Sum of atomic charges:   -0.0000000

LOEWDIN ATOMIC CHARGES
----------------------
   0 C :   -0.000080
   1 O :   -0.001980
   2 H :   -0.004766
   3 H :   -0.000002
   4 H :   -0.000001
   5 H :   -0.000002
   6 C :   -0.356390
   7 O :   -0.086676
   8 H :    0.154674
   9 H :    0.102818
  10 H :    0.099055
  11 H :    0.093352

  Mayer bond orders larger than 0.1
B(  6-C ,  7-O ) :   0.9872 B(  6-C ,  9-H ) :   0.9703 B(  6-C , 10-H ) :   0.9837
B(  6-C , 11-H ) :   0.9805 B(  7-O ,  8-H ) :   0.8993

Dispersion correction           -0.000258744
FINAL SINGLE POINT ENERGY      -115.731629620822

DIPOLE MOMENT
-------------
                                X             Y             Z
Electronic contribution:     -0.21210       0.54826      -1.76608
Nuclear contribution   :      0.16253      -0.20686       2.35320
                        -----------------------------------------
Total Dipole Moment    :     -0.04957       0.34140       0.58713
                        -----------------------------------------
Magnitude (a.u.)       :      0.68098
Magnitude (Debye)      :      1.73091

Rotational constants in cm-1:     4.623710     0.797687     0.772900
Rotational constants in MHz : 138615.330838 23914.067614 23170.951750

                             ****ORCA TERMINATED NORMALLY****
TOTAL RUN TIME: 0 days 0 hours 6 minutes 21 seconds 705 msec
