                         Program Version 4.1.2  - RELEASE  -
|  1> #Run DFT-D3 single point of the dimer
|  2> ! wB97X-D3 def2-TZVP TIGHTSCF CHELPG PMODEL PAL8
|  3>
|  4> %base "13-125_DFT_AB"
|  5>
|  6> %scf
|  7> MaxIter 1000
|  8> end
|  9>
| 10> * xyz 0 1
| 11>   C                      -4.441860            0.252273             -10.388572
| 12>   O                      -5.831980            0.272758             -10.110588
| 13>   H                      -6.199616            0.251479             -11.006176
| 14>   H                      -4.139284            1.101493             -11.007962
| 15>   H                      -3.881177            0.211888             -9.421861
| 16>   H                      -4.225145            -0.703041            -10.844103
| 17>   C                      -5.779180            -3.428768            -7.105090
| 18>   O                      -6.965934            -3.671722            -7.741450
| 19>   H                      -7.515566            -4.048091            -7.069416
| 20>   H                      -5.275618            -4.387856            -6.873689
| 21>   H                      -5.084575            -2.798522            -7.654741
| 22>   H                      -5.954719            -2.892347            -6.155258
| 23> *
| 24>
| 25> #Run DFT-D3 single point of the molecule with dimer basis set
| 26> $new_job
| 27> %base "13-125_DFT_A"
| 28> ! wB97X-D3 def2-TZVP TIGHTSCF CHELPG PMODEL
| 29>
| 30> %scf
| 31> MaxIter 1000
| 32> end
| 33>
| 34> * xyz 0 1
| 35>   C                      -4.441860            0.252273             -10.388572
| 36>   O                      -5.831980            0.272758             -10.110588
| 37>   H                      -6.199616            0.251479             -11.006176
| 38>   H                      -4.139284            1.101493             -11.007962
| 39>   H                      -3.881177            0.211888             -9.421861
| 40>   H                      -4.225145            -0.703041            -10.844103
| 41>   C                    : -5.779180            -3.428768            -7.105090
| 42>   O                    : -6.965934            -3.671722            -7.741450
| 43>   H                    : -7.515566            -4.048091            -7.069416
| 44>   H                    : -5.275618            -4.387856            -6.873689
| 45>   H                    : -5.084575            -2.798522            -7.654741
| 46>   H                    : -5.954719            -2.892347            -6.155258
| 47> *
| 48>
| 49> #Run DFT-D3 single point of the particle with dimer basis set
| 50> $new_job
| 51> %base "13-125_DFT_B"
| 52> ! wB97X-D3 def2-TZVP TIGHTSCF CHELPG PMODEL
| 53>
| 54> %scf
| 55> MaxIter 1000
| 56> end
| 57>
| 58> * xyz 0 1
| 59>   C                    : -4.441860            0.252273             -10.388572
| 60>   O                    : -5.831980            0.272758             -10.110588
| 61>   H                    : -6.199616            0.251479             -11.006176
| 62>   H                    : -4.139284            1.101493             -11.007962
| 63>   H                    : -3.881177            0.211888             -9.421861
| 64>   H                    : -4.225145            -0.703041            -10.844103
| 65>   C                      -5.779180            -3.428768            -7.105090
| 66>   O                      -6.965934            -3.671722            -7.741450
| 67>   H                      -7.515566            -4.048091            -7.069416
| 68>   H                      -5.275618            -4.387856            -6.873689
| 69>   H                      -5.084575            -2.798522            -7.654741
| 70>   H                      -5.954719            -2.892347            -6.155258
| 71> *
| 72>
| 73>                          ****END OF INPUT****
 Total Charge           Charge          ....    0
 Multiplicity           Mult            ....    1
 Number of Electrons    NEL             ....   36
Dispersion correction           -0.000782780
FINAL SINGLE POINT ENERGY      -231.466676104652
Dispersion correction           -0.000213209
FINAL SINGLE POINT ENERGY      -115.733518003147

CARTESIAN COORDINATES (ANGSTROEM)
---------------------------------
  C     -4.441860    0.252273  -10.388572
  O     -5.831980    0.272758  -10.110588
  H     -6.199616    0.251479  -11.006176
  H     -4.139284    1.101493  -11.007962
  H     -3.881177    0.211888   -9.421861
  H     -4.225145   -0.703041  -10.844103
  C     -5.779180   -3.428768   -7.105090
  O     -6.965934   -3.671722   -7.741450
  H     -7.515566   -4.048091   -7.069416
  H     -5.275618   -4.387856   -6.873689
  H     -5.084575   -2.798522   -7.654741
  H     -5.954719   -2.892347   -6.155258

 Multiplicity           Mult            ....    1
 Number of Electrons    NEL             ....   18
 Basis Dimension        Dim             ....  172

ORBITAL ENERGIES
----------------

  NO   OCC          E(Eh)            E(eV)
   0   2.0000     -19.229781      -523.2690
   1   2.0000     -10.311361      -280.5864
   2   2.0000      -1.157303       -31.4918
   3   2.0000      -0.791743       -21.5444
   4   2.0000      -0.619464       -16.8565
   5   2.0000      -0.548837       -14.9346
   6   2.0000      -0.537195       -14.6178
   7   2.0000      -0.431873       -11.7519
   8   2.0000      -0.370679       -10.0867
   9   0.0000       0.087156         2.3716
  10   0.0000       0.116328         3.1654
  11   0.0000       0.152388         4.1467
  12   0.0000       0.174319         4.7434
  13   0.0000       0.184802         5.0287

MULLIKEN ATOMIC CHARGES
-----------------------
   0 C :    0.000341
   1 O :   -0.000036
   2 H :   -0.000003
   3 H :   -0.000000
   4 H :   -0.000232
   5 H :   -0.000107
   6 C :   -0.164288
   7 O :   -0.454883
   8 H :    0.316146
   9 H :    0.092225
  10 H :    0.116955
  11 H :    0.093881
Sum of atomic charges:    0.0000000

LOEWDIN ATOMIC CHARGES
----------------------
   0 C :   -0.000206
   1 O :   -0.000016
   2 H :   -0.000004
   3 H :   -0.000002
   4 H :   -0.000121
   5 H :   -0.000038
   6 C :   -0.424772
   7 O :   -0.036855
   8 H :    0.168524
   9 H :    0.094338
  10 H :    0.104620
  11 H :    0.094532

  Mayer bond orders larger than 0.1
B(  6-C ,  7-O ) :   1.0036 B(  6-C ,  9-H ) :   0.9800 B(  6-C , 10-H ) :   0.9712
B(  6-C , 11-H ) :   0.9835 B(  7-O ,  8-H ) :   0.9011

Dispersion correction           -0.000207647
FINAL SINGLE POINT ENERGY      -115.733229169444

DIPOLE MOMENT
-------------
                                X             Y             Z
Electronic contribution:     -1.54944      -0.24623      -1.08535
Nuclear contribution   :      1.62989       0.11595       1.73460
                        -----------------------------------------
Total Dipole Moment    :      0.08045      -0.13028       0.64925
                        -----------------------------------------
Magnitude (a.u.)       :      0.66707
Magnitude (Debye)      :      1.69555

Rotational constants in cm-1:     4.291450     0.876752     0.847560
Rotational constants in MHz : 128654.433871 26284.370149 25409.201207

                             ****ORCA TERMINATED NORMALLY****
TOTAL RUN TIME: 0 days 0 hours 0 minutes 59 seconds 137 msec
