                         Program Version 4.1.2  - RELEASE  -
|  1> #Run DFT-D3 single point of the dimer
|  2> ! wB97X-D3 def2-TZVP TIGHTSCF CHELPG PMODEL PAL8
|  3>
|  4> %base "10-219_DFT_AB"
|  5>
|  6> %scf
|  7> MaxIter 1000
|  8> end
|  9>
| 10> * xyz 0 1
| 11>   C                      1.311991             8.258281             3.248429
| 12>   O                      0.436384             8.338334             4.328784
| 13>   H                      -0.298761            8.938756             4.145385
| 14>   H                      2.209316             7.776873             3.545253
| 15>   H                      0.941491             7.711517             2.293017
| 16>   H                      1.692251             9.258311             2.986769
| 17>   C                      -2.001623            9.540740             2.373419
| 18>   O                      -1.267555            10.275526            3.303355
| 19>   H                      -1.410999            11.223802            3.044789
| 20>   H                      -3.071432            9.702160             2.549565
| 21>   H                      -1.865324            9.894794             1.344526
| 22>   H                      -1.822595            8.448200             2.471200
| 23> *
| 24>
| 25> #Run DFT-D3 single point of the molecule with dimer basis set
| 26> $new_job
| 27> %base "10-219_DFT_A"
| 28> ! wB97X-D3 def2-TZVP TIGHTSCF CHELPG PMODEL
| 29>
| 30> %scf
| 31> MaxIter 1000
| 32> end
| 33>
| 34> * xyz 0 1
| 35>   C                      1.311991             8.258281             3.248429
| 36>   O                      0.436384             8.338334             4.328784
| 37>   H                      -0.298761            8.938756             4.145385
| 38>   H                      2.209316             7.776873             3.545253
| 39>   H                      0.941491             7.711517             2.293017
| 40>   H                      1.692251             9.258311             2.986769
| 41>   C                    : -2.001623            9.540740             2.373419
| 42>   O                    : -1.267555            10.275526            3.303355
| 43>   H                    : -1.410999            11.223802            3.044789
| 44>   H                    : -3.071432            9.702160             2.549565
| 45>   H                    : -1.865324            9.894794             1.344526
| 46>   H                    : -1.822595            8.448200             2.471200
| 47> *
| 48>
| 49> #Run DFT-D3 single point of the particle with dimer basis set
| 50> $new_job
| 51> %base "10-219_DFT_B"
| 52> ! wB97X-D3 def2-TZVP TIGHTSCF CHELPG PMODEL
| 53>
| 54> %scf
| 55> MaxIter 1000
| 56> end
| 57>
| 58> * xyz 0 1
| 59>   C                    : 1.311991             8.258281             3.248429
| 60>   O                    : 0.436384             8.338334             4.328784
| 61>   H                    : -0.298761            8.938756             4.145385
| 62>   H                    : 2.209316             7.776873             3.545253
| 63>   H                    : 0.941491             7.711517             2.293017
| 64>   H                    : 1.692251             9.258311             2.986769
| 65>   C                      -2.001623            9.540740             2.373419
| 66>   O                      -1.267555            10.275526            3.303355
| 67>   H                      -1.410999            11.223802            3.044789
| 68>   H                      -3.071432            9.702160             2.549565
| 69>   H                      -1.865324            9.894794             1.344526
| 70>   H                      -1.822595            8.448200             2.471200
| 71> *
| 72>
| 73>                          ****END OF INPUT****
 Total Charge           Charge          ....    0
 Multiplicity           Mult            ....    1
 Number of Electrons    NEL             ....   36
Dispersion correction           -0.002182781
FINAL SINGLE POINT ENERGY      -231.472472486579
Dispersion correction           -0.000265562
FINAL SINGLE POINT ENERGY      -115.732410626324

CARTESIAN COORDINATES (ANGSTROEM)
---------------------------------
  C      1.311991    8.258281    3.248429
  O      0.436384    8.338334    4.328784
  H     -0.298761    8.938756    4.145385
  H      2.209316    7.776873    3.545253
  H      0.941491    7.711517    2.293017
  H      1.692251    9.258311    2.986769
  C     -2.001623    9.540740    2.373419
  O     -1.267555   10.275526    3.303355
  H     -1.410999   11.223802    3.044789
  H     -3.071432    9.702160    2.549565
  H     -1.865324    9.894794    1.344526
  H     -1.822595    8.448200    2.471200

 Multiplicity           Mult            ....    1
 Number of Electrons    NEL             ....   18
 Basis Dimension        Dim             ....  172

ORBITAL ENERGIES
----------------

  NO   OCC          E(Eh)            E(eV)
   0   2.0000     -19.235371      -523.4211
   1   2.0000     -10.313496      -280.6445
   2   2.0000      -1.140037       -31.0220
   3   2.0000      -0.788851       -21.4657
   4   2.0000      -0.614303       -16.7160
   5   2.0000      -0.537578       -14.6282
   6   2.0000      -0.530476       -14.4350
   7   2.0000      -0.439223       -11.9519
   8   2.0000      -0.368748       -10.0342
   9   0.0000       0.094951         2.5837
  10   0.0000       0.122933         3.3452
  11   0.0000       0.153614         4.1800
  12   0.0000       0.183402         4.9906
  13   0.0000       0.200743         5.4625

MULLIKEN ATOMIC CHARGES
-----------------------
   0 C :    0.006692
   1 O :    0.001781
   2 H :   -0.009996
   3 H :   -0.000207
   4 H :   -0.001019
   5 H :   -0.005838
   6 C :   -0.186689
   7 O :   -0.451043
   8 H :    0.312736
   9 H :    0.104697
  10 H :    0.104348
  11 H :    0.124537
Sum of atomic charges:    0.0000000

LOEWDIN ATOMIC CHARGES
----------------------
   0 C :   -0.008234
   1 O :   -0.005705
   2 H :   -0.041961
   3 H :   -0.000071
   4 H :   -0.000853
   5 H :   -0.002361
   6 C :   -0.403839
   7 O :   -0.033171
   8 H :    0.192133
   9 H :    0.094071
  10 H :    0.094440
  11 H :    0.115551

  Mayer bond orders larger than 0.1
B(  6-C ,  7-O ) :   0.9875 B(  6-C ,  9-H ) :   0.9758 B(  6-C , 10-H ) :   0.9751
B(  6-C , 11-H ) :   0.9748 B(  7-O ,  8-H ) :   0.8929

Dispersion correction           -0.000222490
FINAL SINGLE POINT ENERGY      -115.733561394812

DIPOLE MOMENT
-------------
                                X             Y             Z
Electronic contribution:      1.12594       0.77887       1.29580
Nuclear contribution   :     -1.50435      -0.46485      -1.80413
                        -----------------------------------------
Total Dipole Moment    :     -0.37841       0.31402      -0.50832
                        -----------------------------------------
Magnitude (a.u.)       :      0.70724
Magnitude (Debye)      :      1.79767

Rotational constants in cm-1:     4.184669     0.856581     0.811578
Rotational constants in MHz : 125453.210720 25679.657033 24330.502326

                             ****ORCA TERMINATED NORMALLY****
TOTAL RUN TIME: 0 days 0 hours 1 minutes 8 seconds 691 msec
