                         Program Version 4.1.2  - RELEASE  -
|  1> #Run DFT-D3 single point of the dimer
|  2> ! wB97X-D3 def2-TZVP TIGHTSCF CHELPG PMODEL PAL8
|  3>
|  4> %base "18-68_DFT_AB"
|  5>
|  6> %scf
|  7> MaxIter 1000
|  8> end
|  9>
| 10> * xyz 0 1
| 11>   C                      -9.376882            2.477543             -4.713638
| 12>   O                      -8.879101            1.249759             -4.251672
| 13>   H                      -8.504587            1.328272             -3.362079
| 14>   H                      -8.510873            3.150077             -4.795730
| 15>   H                      -9.919677            2.295343             -5.655822
| 16>   H                      -10.081456           2.950234             -3.991283
| 17>   C                      -9.503273            1.869471             -0.794715
| 18>   O                      -8.314313            1.494020             -1.485974
| 19>   H                      -7.717175            1.049972             -0.914766
| 20>   H                      -9.793729            1.122150             0.018869
| 21>   H                      -9.471223            2.846437             -0.338861
| 22>   H                      -10.320531           1.933585             -1.513166
| 23> *
| 24>
| 25> #Run DFT-D3 single point of the molecule with dimer basis set
| 26> $new_job
| 27> %base "18-68_DFT_A"
| 28> ! wB97X-D3 def2-TZVP TIGHTSCF CHELPG PMODEL
| 29>
| 30> %scf
| 31> MaxIter 1000
| 32> end
| 33>
| 34> * xyz 0 1
| 35>   C                      -9.376882            2.477543             -4.713638
| 36>   O                      -8.879101            1.249759             -4.251672
| 37>   H                      -8.504587            1.328272             -3.362079
| 38>   H                      -8.510873            3.150077             -4.795730
| 39>   H                      -9.919677            2.295343             -5.655822
| 40>   H                      -10.081456           2.950234             -3.991283
| 41>   C                    : -9.503273            1.869471             -0.794715
| 42>   O                    : -8.314313            1.494020             -1.485974
| 43>   H                    : -7.717175            1.049972             -0.914766
| 44>   H                    : -9.793729            1.122150             0.018869
| 45>   H                    : -9.471223            2.846437             -0.338861
| 46>   H                    : -10.320531           1.933585             -1.513166
| 47> *
| 48>
| 49> #Run DFT-D3 single point of the particle with dimer basis set
| 50> $new_job
| 51> %base "18-68_DFT_B"
| 52> ! wB97X-D3 def2-TZVP TIGHTSCF CHELPG PMODEL
| 53>
| 54> %scf
| 55> MaxIter 1000
| 56> end
| 57>
| 58> * xyz 0 1
| 59>   C                    : -9.376882            2.477543             -4.713638
| 60>   O                    : -8.879101            1.249759             -4.251672
| 61>   H                    : -8.504587            1.328272             -3.362079
| 62>   H                    : -8.510873            3.150077             -4.795730
| 63>   H                    : -9.919677            2.295343             -5.655822
| 64>   H                    : -10.081456           2.950234             -3.991283
| 65>   C                      -9.503273            1.869471             -0.794715
| 66>   O                      -8.314313            1.494020             -1.485974
| 67>   H                      -7.717175            1.049972             -0.914766
| 68>   H                      -9.793729            1.122150             0.018869
| 69>   H                      -9.471223            2.846437             -0.338861
| 70>   H                      -10.320531           1.933585             -1.513166
| 71> *
| 72>
| 73>                          ****END OF INPUT****
 Total Charge           Charge          ....    0
 Multiplicity           Mult            ....    1
 Number of Electrons    NEL             ....   36
Dispersion correction           -0.002006466
FINAL SINGLE POINT ENERGY      -231.478339935743
Dispersion correction           -0.000233081
FINAL SINGLE POINT ENERGY      -115.735205670346

CARTESIAN COORDINATES (ANGSTROEM)
---------------------------------
  C     -9.376882    2.477543   -4.713638
  O     -8.879101    1.249759   -4.251672
  H     -8.504587    1.328272   -3.362079
  H     -8.510873    3.150077   -4.795730
  H     -9.919677    2.295343   -5.655822
  H    -10.081456    2.950234   -3.991283
  C     -9.503273    1.869471   -0.794715
  O     -8.314313    1.494020   -1.485974
  H     -7.717175    1.049972   -0.914766
  H     -9.793729    1.122150    0.018869
  H     -9.471223    2.846437   -0.338861
  H    -10.320531    1.933585   -1.513166

 Multiplicity           Mult            ....    1
 Number of Electrons    NEL             ....   18
 Basis Dimension        Dim             ....  172

ORBITAL ENERGIES
----------------

  NO   OCC          E(Eh)            E(eV)
   0   2.0000     -19.230004      -523.2750
   1   2.0000     -10.318193      -280.7723
   2   2.0000      -1.136311       -30.9206
   3   2.0000      -0.799118       -21.7451
   4   2.0000      -0.612398       -16.6642
   5   2.0000      -0.536852       -14.6085
   6   2.0000      -0.528276       -14.3751
   7   2.0000      -0.432486       -11.7685
   8   2.0000      -0.375905       -10.2289
   9   0.0000       0.098734         2.6867
  10   0.0000       0.126623         3.4456
  11   0.0000       0.150750         4.1021
  12   0.0000       0.189894         5.1673
  13   0.0000       0.203753         5.5444

MULLIKEN ATOMIC CHARGES
-----------------------
   0 C :    0.000524
   1 O :   -0.001198
   2 H :   -0.007138
   3 H :   -0.000641
   4 H :   -0.000018
   5 H :    0.000247
   6 C :   -0.162635
   7 O :   -0.472712
   8 H :    0.312018
   9 H :    0.102842
  10 H :    0.107068
  11 H :    0.121643
Sum of atomic charges:    0.0000000

LOEWDIN ATOMIC CHARGES
----------------------
   0 C :   -0.002939
   1 O :   -0.005518
   2 H :   -0.046206
   3 H :   -0.000202
   4 H :   -0.000030
   5 H :   -0.001318
   6 C :   -0.372483
   7 O :   -0.028499
   8 H :    0.152838
   9 H :    0.105066
  10 H :    0.092152
  11 H :    0.107138

  Mayer bond orders larger than 0.1
B(  6-C ,  7-O ) :   0.9927 B(  6-C ,  9-H ) :   0.9761 B(  6-C , 10-H ) :   0.9694
B(  6-C , 11-H ) :   0.9789 B(  7-O ,  8-H ) :   0.9012

Dispersion correction           -0.000267798
FINAL SINGLE POINT ENERGY      -115.734455335329

DIPOLE MOMENT
-------------
                                X             Y             Z
Electronic contribution:      1.53862      -0.39873      -0.99062
Nuclear contribution   :     -1.63673       0.26981       1.64337
                        -----------------------------------------
Total Dipole Moment    :     -0.09811      -0.12892       0.65274
                        -----------------------------------------
Magnitude (a.u.)       :      0.67255
Magnitude (Debye)      :      1.70948

Rotational constants in cm-1:     4.361537     0.812948     0.780962
Rotational constants in MHz : 130755.589776 24371.556969 23412.650367

                             ****ORCA TERMINATED NORMALLY****
TOTAL RUN TIME: 0 days 0 hours 1 minutes 5 seconds 778 msec
