                         Program Version 4.1.2  - RELEASE  -
|  1> #Run DFT-D3 single point of the dimer
|  2> ! wB97X-D3 def2-TZVP TIGHTSCF CHELPG PMODEL PAL8
|  3>
|  4> %base "2-33_DFT_AB"
|  5>
|  6> %scf
|  7> MaxIter 1000
|  8> end
|  9>
| 10> * xyz 0 1
| 11>   C                      5.916145             7.599752             -3.115480
| 12>   O                      6.303187             6.405109             -3.797141
| 13>   H                      6.313995             5.742929             -3.113214
| 14>   H                      6.562852             7.866482             -2.246742
| 15>   H                      5.963492             8.428625             -3.817606
| 16>   H                      4.933177             7.588969             -2.693862
| 17>   C                      5.814539             11.098391            -0.719599
| 18>   O                      7.206503             11.063690            -0.586654
| 19>   H                      7.517720             11.184157            0.306351
| 20>   H                      5.503744             10.609196            -1.696033
| 21>   H                      5.347833             10.536149            0.096536
| 22>   H                      5.465169             12.094514            -0.793164
| 23> *
| 24>
| 25> #Run DFT-D3 single point of the molecule with dimer basis set
| 26> $new_job
| 27> %base "2-33_DFT_A"
| 28> ! wB97X-D3 def2-TZVP TIGHTSCF CHELPG PMODEL
| 29>
| 30> %scf
| 31> MaxIter 1000
| 32> end
| 33>
| 34> * xyz 0 1
| 35>   C                      5.916145             7.599752             -3.115480
| 36>   O                      6.303187             6.405109             -3.797141
| 37>   H                      6.313995             5.742929             -3.113214
| 38>   H                      6.562852             7.866482             -2.246742
| 39>   H                      5.963492             8.428625             -3.817606
| 40>   H                      4.933177             7.588969             -2.693862
| 41>   C                    : 5.814539             11.098391            -0.719599
| 42>   O                    : 7.206503             11.063690            -0.586654
| 43>   H                    : 7.517720             11.184157            0.306351
| 44>   H                    : 5.503744             10.609196            -1.696033
| 45>   H                    : 5.347833             10.536149            0.096536
| 46>   H                    : 5.465169             12.094514            -0.793164
| 47> *
| 48>
| 49> #Run DFT-D3 single point of the particle with dimer basis set
| 50> $new_job
| 51> %base "2-33_DFT_B"
| 52> ! wB97X-D3 def2-TZVP TIGHTSCF CHELPG PMODEL
| 53>
| 54> %scf
| 55> MaxIter 1000
| 56> end
| 57>
| 58> * xyz 0 1
| 59>   C                    : 5.916145             7.599752             -3.115480
| 60>   O                    : 6.303187             6.405109             -3.797141
| 61>   H                    : 6.313995             5.742929             -3.113214
| 62>   H                    : 6.562852             7.866482             -2.246742
| 63>   H                    : 5.963492             8.428625             -3.817606
| 64>   H                    : 4.933177             7.588969             -2.693862
| 65>   C                      5.814539             11.098391            -0.719599
| 66>   O                      7.206503             11.063690            -0.586654
| 67>   H                      7.517720             11.184157            0.306351
| 68>   H                      5.503744             10.609196            -1.696033
| 69>   H                      5.347833             10.536149            0.096536
| 70>   H                      5.465169             12.094514            -0.793164
| 71> *
| 72>
| 73>                          ****END OF INPUT****
 Total Charge           Charge          ....    0
 Multiplicity           Mult            ....    1
 Number of Electrons    NEL             ....   36
Dispersion correction           -0.001290771
FINAL SINGLE POINT ENERGY      -231.469391448789
Dispersion correction           -0.000247121
FINAL SINGLE POINT ENERGY      -115.735048556516

CARTESIAN COORDINATES (ANGSTROEM)
---------------------------------
  C      5.916145    7.599752   -3.115480
  O      6.303187    6.405109   -3.797141
  H      6.313995    5.742929   -3.113214
  H      6.562852    7.866482   -2.246742
  H      5.963492    8.428625   -3.817606
  H      4.933177    7.588969   -2.693862
  C      5.814539   11.098391   -0.719599
  O      7.206503   11.063690   -0.586654
  H      7.517720   11.184157    0.306351
  H      5.503744   10.609196   -1.696033
  H      5.347833   10.536149    0.096536
  H      5.465169   12.094514   -0.793164

 Multiplicity           Mult            ....    1
 Number of Electrons    NEL             ....   18
 Basis Dimension        Dim             ....  172

ORBITAL ENERGIES
----------------

  NO   OCC          E(Eh)            E(eV)
   0   2.0000     -19.224954      -523.1376
   1   2.0000     -10.312473      -280.6167
   2   2.0000      -1.137064       -30.9411
   3   2.0000      -0.797273       -21.6949
   4   2.0000      -0.612833       -16.6760
   5   2.0000      -0.551216       -14.9993
   6   2.0000      -0.525772       -14.3070
   7   2.0000      -0.420464       -11.4414
   8   2.0000      -0.372732       -10.1426
   9   0.0000       0.087608         2.3839
  10   0.0000       0.118857         3.2343
  11   0.0000       0.148653         4.0451
  12   0.0000       0.174052         4.7362
  13   0.0000       0.201590         5.4856

MULLIKEN ATOMIC CHARGES
-----------------------
   0 C :    0.000373
   1 O :    0.000033
   2 H :    0.000005
   3 H :   -0.000251
   4 H :   -0.000217
   5 H :   -0.000295
   6 C :   -0.149486
   7 O :   -0.487215
   8 H :    0.316948
   9 H :    0.111133
  10 H :    0.101936
  11 H :    0.107035
Sum of atomic charges:   -0.0000000

LOEWDIN ATOMIC CHARGES
----------------------
   0 C :   -0.002165
   1 O :   -0.000009
   2 H :   -0.000004
   3 H :   -0.000765
   4 H :   -0.000507
   5 H :   -0.000350
   6 C :   -0.391425
   7 O :   -0.067666
   8 H :    0.163188
   9 H :    0.116500
  10 H :    0.096540
  11 H :    0.086662

  Mayer bond orders larger than 0.1
B(  6-C ,  7-O ) :   0.9930 B(  6-C ,  9-H ) :   0.9729 B(  6-C , 10-H ) :   0.9844
B(  6-C , 11-H ) :   0.9765 B(  7-O ,  8-H ) :   0.8948

Dispersion correction           -0.000243183
FINAL SINGLE POINT ENERGY      -115.733459499685

DIPOLE MOMENT
-------------
                                X             Y             Z
Electronic contribution:      1.76586       0.00946       0.13715
Nuclear contribution   :     -2.12555       0.08973       0.40111
                        -----------------------------------------
Total Dipole Moment    :     -0.35969       0.09919       0.53826
                        -----------------------------------------
Magnitude (a.u.)       :      0.65494
Magnitude (Debye)      :      1.66471

Rotational constants in cm-1:     4.358593     0.840105     0.811038
Rotational constants in MHz : 130667.328032 25185.721470 24314.312550

                             ****ORCA TERMINATED NORMALLY****
TOTAL RUN TIME: 0 days 0 hours 5 minutes 20 seconds 558 msec
