                         Program Version 4.1.2  - RELEASE  -
|  1> #Run DFT-D3 single point of the dimer
|  2> ! wB97X-D3 def2-TZVP TIGHTSCF CHELPG PMODEL PAL8
|  3>
|  4> %base "1-25_DFT_AB"
|  5>
|  6> %scf
|  7> MaxIter 1000
|  8> end
|  9>
| 10> * xyz 0 1
| 11>   C                      -2.881200            5.269052             1.066537
| 12>   O                      -2.445104            4.075524             0.341486
| 13>   H                      -2.756895            4.205874             -0.534556
| 14>   H                      -3.832270            5.165989             1.402556
| 15>   H                      -2.191036            5.618454             1.900053
| 16>   H                      -2.957396            6.094008             0.292697
| 17>   C                      2.048376             4.863387             1.672935
| 18>   O                      2.054165             6.299924             1.791389
| 19>   H                      2.832459             6.575149             2.255047
| 20>   H                      1.922047             4.439233             2.619953
| 21>   H                      1.223006             4.407376             1.191580
| 22>   H                      3.058283             4.518590             1.360563
| 23> *
| 24>
| 25> #Run DFT-D3 single point of the molecule with dimer basis set
| 26> $new_job
| 27> %base "1-25_DFT_A"
| 28> ! wB97X-D3 def2-TZVP TIGHTSCF CHELPG PMODEL
| 29>
| 30> %scf
| 31> MaxIter 1000
| 32> end
| 33>
| 34> * xyz 0 1
| 35>   C                      -2.881200            5.269052             1.066537
| 36>   O                      -2.445104            4.075524             0.341486
| 37>   H                      -2.756895            4.205874             -0.534556
| 38>   H                      -3.832270            5.165989             1.402556
| 39>   H                      -2.191036            5.618454             1.900053
| 40>   H                      -2.957396            6.094008             0.292697
| 41>   C                    : 2.048376             4.863387             1.672935
| 42>   O                    : 2.054165             6.299924             1.791389
| 43>   H                    : 2.832459             6.575149             2.255047
| 44>   H                    : 1.922047             4.439233             2.619953
| 45>   H                    : 1.223006             4.407376             1.191580
| 46>   H                    : 3.058283             4.518590             1.360563
| 47> *
| 48>
| 49> #Run DFT-D3 single point of the particle with dimer basis set
| 50> $new_job
| 51> %base "1-25_DFT_B"
| 52> ! wB97X-D3 def2-TZVP TIGHTSCF CHELPG PMODEL
| 53>
| 54> %scf
| 55> MaxIter 1000
| 56> end
| 57>
| 58> * xyz 0 1
| 59>   C                    : -2.881200            5.269052             1.066537
| 60>   O                    : -2.445104            4.075524             0.341486
| 61>   H                    : -2.756895            4.205874             -0.534556
| 62>   H                    : -3.832270            5.165989             1.402556
| 63>   H                    : -2.191036            5.618454             1.900053
| 64>   H                    : -2.957396            6.094008             0.292697
| 65>   C                      2.048376             4.863387             1.672935
| 66>   O                      2.054165             6.299924             1.791389
| 67>   H                      2.832459             6.575149             2.255047
| 68>   H                      1.922047             4.439233             2.619953
| 69>   H                      1.223006             4.407376             1.191580
| 70>   H                      3.058283             4.518590             1.360563
| 71> *
| 72>
| 73>                          ****END OF INPUT****
 Total Charge           Charge          ....    0
 Multiplicity           Mult            ....    1
 Number of Electrons    NEL             ....   36
Dispersion correction           -0.000881605
FINAL SINGLE POINT ENERGY      -231.451283023714
Dispersion correction           -0.000244874
FINAL SINGLE POINT ENERGY      -115.724661357386

CARTESIAN COORDINATES (ANGSTROEM)
---------------------------------
  C     -2.881200    5.269052    1.066537
  O     -2.445104    4.075524    0.341486
  H     -2.756895    4.205874   -0.534556
  H     -3.832270    5.165989    1.402556
  H     -2.191036    5.618454    1.900053
  H     -2.957396    6.094008    0.292697
  C      2.048376    4.863387    1.672935
  O      2.054165    6.299924    1.791389
  H      2.832459    6.575149    2.255047
  H      1.922047    4.439233    2.619953
  H      1.223006    4.407376    1.191580
  H      3.058283    4.518590    1.360563

 Multiplicity           Mult            ....    1
 Number of Electrons    NEL             ....   18
 Basis Dimension        Dim             ....  172

ORBITAL ENERGIES
----------------

  NO   OCC          E(Eh)            E(eV)
   0   2.0000     -19.226859      -523.1894
   1   2.0000     -10.309409      -280.5333
   2   2.0000      -1.128749       -30.7148
   3   2.0000      -0.806849       -21.9555
   4   2.0000      -0.608394       -16.5552
   5   2.0000      -0.548846       -14.9349
   6   2.0000      -0.524001       -14.2588
   7   2.0000      -0.434067       -11.8116
   8   2.0000      -0.370367       -10.0782
   9   0.0000       0.087595         2.3836
  10   0.0000       0.116925         3.1817
  11   0.0000       0.149963         4.0807
  12   0.0000       0.169249         4.6055
  13   0.0000       0.186225         5.0674

MULLIKEN ATOMIC CHARGES
-----------------------
   0 C :    0.000099
   1 O :   -0.000042
   2 H :   -0.000014
   3 H :    0.000001
   4 H :   -0.000204
   5 H :   -0.000007
   6 C :   -0.168650
   7 O :   -0.483021
   8 H :    0.314157
   9 H :    0.107162
  10 H :    0.129830
  11 H :    0.100690
Sum of atomic charges:   -0.0000000

LOEWDIN ATOMIC CHARGES
----------------------
   0 C :   -0.000121
   1 O :   -0.000073
   2 H :   -0.000012
   3 H :   -0.000001
   4 H :   -0.000114
   5 H :   -0.000003
   6 C :   -0.358509
   7 O :   -0.092457
   8 H :    0.158818
   9 H :    0.087347
  10 H :    0.103589
  11 H :    0.101537

  Mayer bond orders larger than 0.1
B(  6-C ,  7-O ) :   0.9878 B(  6-C ,  9-H ) :   0.9792 B(  6-C , 10-H ) :   0.9711
B(  6-C , 11-H ) :   0.9856 B(  7-O ,  8-H ) :   0.9004

Dispersion correction           -0.000239157
FINAL SINGLE POINT ENERGY      -115.725336064033

DIPOLE MOMENT
-------------
                                X             Y             Z
Electronic contribution:     -0.20627       1.83031      -0.08797
Nuclear contribution   :      0.67958      -2.28210       0.38170
                        -----------------------------------------
Total Dipole Moment    :      0.47332      -0.45179       0.29373
                        -----------------------------------------
Magnitude (a.u.)       :      0.71723
Magnitude (Debye)      :      1.82306

Rotational constants in cm-1:     4.562628     0.808942     0.771503
Rotational constants in MHz : 136784.132588 24251.457223 23129.078301

                             ****ORCA TERMINATED NORMALLY****
TOTAL RUN TIME: 0 days 0 hours 4 minutes 18 seconds 634 msec
