                         Program Version 4.1.2  - RELEASE  -
|  1> #Run DFT-D3 single point of the dimer
|  2> ! wB97X-D3 def2-TZVP TIGHTSCF CHELPG PMODEL PAL8
|  3>
|  4> %base "3-99_DFT_AB"
|  5>
|  6> %scf
|  7> MaxIter 1000
|  8> end
|  9>
| 10> * xyz 0 1
| 11>   C                      3.247965             -4.559031            -0.450661
| 12>   O                      3.082228             -5.100131            0.833028
| 13>   H                      3.428484             -4.516003            1.598931
| 14>   H                      2.833958             -5.230700            -1.176977
| 15>   H                      2.781872             -3.575299            -0.586808
| 16>   H                      4.333572             -4.378047            -0.637821
| 17>   C                      0.065464             -4.211763            3.544082
| 18>   O                      0.811758             -3.591508            4.520244
| 19>   H                      1.119619             -4.270361            5.134675
| 20>   H                      0.671421             -4.857393            3.010172
| 21>   H                      -0.768815            -4.826459            3.971872
| 22>   H                      -0.362003            -3.489783            2.859465
| 23> *
| 24>
| 25> #Run DFT-D3 single point of the molecule with dimer basis set
| 26> $new_job
| 27> %base "3-99_DFT_A"
| 28> ! wB97X-D3 def2-TZVP TIGHTSCF CHELPG PMODEL
| 29>
| 30> %scf
| 31> MaxIter 1000
| 32> end
| 33>
| 34> * xyz 0 1
| 35>   C                      3.247965             -4.559031            -0.450661
| 36>   O                      3.082228             -5.100131            0.833028
| 37>   H                      3.428484             -4.516003            1.598931
| 38>   H                      2.833958             -5.230700            -1.176977
| 39>   H                      2.781872             -3.575299            -0.586808
| 40>   H                      4.333572             -4.378047            -0.637821
| 41>   C                    : 0.065464             -4.211763            3.544082
| 42>   O                    : 0.811758             -3.591508            4.520244
| 43>   H                    : 1.119619             -4.270361            5.134675
| 44>   H                    : 0.671421             -4.857393            3.010172
| 45>   H                    : -0.768815            -4.826459            3.971872
| 46>   H                    : -0.362003            -3.489783            2.859465
| 47> *
| 48>
| 49> #Run DFT-D3 single point of the particle with dimer basis set
| 50> $new_job
| 51> %base "3-99_DFT_B"
| 52> ! wB97X-D3 def2-TZVP TIGHTSCF CHELPG PMODEL
| 53>
| 54> %scf
| 55> MaxIter 1000
| 56> end
| 57>
| 58> * xyz 0 1
| 59>   C                    : 3.247965             -4.559031            -0.450661
| 60>   O                    : 3.082228             -5.100131            0.833028
| 61>   H                    : 3.428484             -4.516003            1.598931
| 62>   H                    : 2.833958             -5.230700            -1.176977
| 63>   H                    : 2.781872             -3.575299            -0.586808
| 64>   H                    : 4.333572             -4.378047            -0.637821
| 65>   C                      0.065464             -4.211763            3.544082
| 66>   O                      0.811758             -3.591508            4.520244
| 67>   H                      1.119619             -4.270361            5.134675
| 68>   H                      0.671421             -4.857393            3.010172
| 69>   H                      -0.768815            -4.826459            3.971872
| 70>   H                      -0.362003            -3.489783            2.859465
| 71> *
| 72>
| 73>                          ****END OF INPUT****
 Total Charge           Charge          ....    0
 Multiplicity           Mult            ....    1
 Number of Electrons    NEL             ....   36
Dispersion correction           -0.001055935
FINAL SINGLE POINT ENERGY      -231.465921115171
Dispersion correction           -0.000258005
FINAL SINGLE POINT ENERGY      -115.731453124230

CARTESIAN COORDINATES (ANGSTROEM)
---------------------------------
  C      3.247965   -4.559031   -0.450661
  O      3.082228   -5.100131    0.833028
  H      3.428484   -4.516003    1.598931
  H      2.833958   -5.230700   -1.176977
  H      2.781872   -3.575299   -0.586808
  H      4.333572   -4.378047   -0.637821
  C      0.065464   -4.211763    3.544082
  O      0.811758   -3.591508    4.520244
  H      1.119619   -4.270361    5.134675
  H      0.671421   -4.857393    3.010172
  H     -0.768815   -4.826459    3.971872
  H     -0.362003   -3.489783    2.859465

 Multiplicity           Mult            ....    1
 Number of Electrons    NEL             ....   18
 Basis Dimension        Dim             ....  172

ORBITAL ENERGIES
----------------

  NO   OCC          E(Eh)            E(eV)
   0   2.0000     -19.228627      -523.2375
   1   2.0000     -10.304198      -280.3915
   2   2.0000      -1.146793       -31.2058
   3   2.0000      -0.796465       -21.6729
   4   2.0000      -0.618359       -16.8264
   5   2.0000      -0.548339       -14.9211
   6   2.0000      -0.534270       -14.5382
   7   2.0000      -0.431915       -11.7530
   8   2.0000      -0.370012       -10.0685
   9   0.0000       0.085250         2.3198
  10   0.0000       0.115932         3.1547
  11   0.0000       0.154600         4.2069
  12   0.0000       0.169078         4.6008
  13   0.0000       0.190847         5.1932

MULLIKEN ATOMIC CHARGES
-----------------------
   0 C :   -0.000368
   1 O :    0.000066
   2 H :    0.000286
   3 H :   -0.000010
   4 H :    0.000047
   5 H :    0.000003
   6 C :   -0.154481
   7 O :   -0.471592
   8 H :    0.315940
   9 H :    0.102236
  10 H :    0.091659
  11 H :    0.116215
Sum of atomic charges:   -0.0000000

LOEWDIN ATOMIC CHARGES
----------------------
   0 C :   -0.000163
   1 O :   -0.000583
   2 H :   -0.000367
   3 H :   -0.000005
   4 H :   -0.000007
   5 H :   -0.000003
   6 C :   -0.407324
   7 O :   -0.052626
   8 H :    0.176428
   9 H :    0.079705
  10 H :    0.097283
  11 H :    0.107663

  Mayer bond orders larger than 0.1
B(  6-C ,  7-O ) :   0.9983 B(  6-C ,  9-H ) :   0.9817 B(  6-C , 10-H ) :   0.9806
B(  6-C , 11-H ) :   0.9720 B(  7-O ,  8-H ) :   0.8968

Dispersion correction           -0.000211213
FINAL SINGLE POINT ENERGY      -115.732816435784

DIPOLE MOMENT
-------------
                                X             Y             Z
Electronic contribution:      0.99441       0.98415       1.16913
Nuclear contribution   :     -1.06634      -1.64691      -1.16627
                        -----------------------------------------
Total Dipole Moment    :     -0.07193      -0.66276       0.00285
                        -----------------------------------------
Magnitude (a.u.)       :      0.66666
Magnitude (Debye)      :      1.69451

Rotational constants in cm-1:     4.384535     0.874538     0.837251
Rotational constants in MHz : 131445.053158 26217.990810 25100.142621

                             ****ORCA TERMINATED NORMALLY****
TOTAL RUN TIME: 0 days 0 hours 3 minutes 24 seconds 137 msec
