                         Program Version 4.1.2  - RELEASE  -
|  1> #Run DFT-D3 single point of the dimer
|  2> ! wB97X-D3 def2-TZVP TIGHTSCF CHELPG PMODEL PAL8
|  3>
|  4> %base "22-146_DFT_AB"
|  5>
|  6> %scf
|  7> MaxIter 1000
|  8> end
|  9>
| 10> * xyz 0 1
| 11>   C                      4.711376             -9.401158            3.653627
| 12>   O                      4.517502             -8.654134            4.790164
| 13>   H                      4.547553             -9.274433            5.562109
| 14>   H                      4.063894             -10.339325           3.744388
| 15>   H                      4.302707             -8.863721            2.769714
| 16>   H                      5.778902             -9.594835            3.437364
| 17>   C                      1.707759             -10.274666           1.594385
| 18>   O                      1.247214             -11.277385           2.432735
| 19>   H                      0.346420             -11.514977           2.184487
| 20>   H                      0.927875             -9.906432            0.922131
| 21>   H                      2.187064             -9.447812            2.157880
| 22>   H                      2.493720             -10.724936           1.052050
| 23> *
| 24>
| 25> #Run DFT-D3 single point of the molecule with dimer basis set
| 26> $new_job
| 27> %base "22-146_DFT_A"
| 28> ! wB97X-D3 def2-TZVP TIGHTSCF CHELPG PMODEL
| 29>
| 30> %scf
| 31> MaxIter 1000
| 32> end
| 33>
| 34> * xyz 0 1
| 35>   C                      4.711376             -9.401158            3.653627
| 36>   O                      4.517502             -8.654134            4.790164
| 37>   H                      4.547553             -9.274433            5.562109
| 38>   H                      4.063894             -10.339325           3.744388
| 39>   H                      4.302707             -8.863721            2.769714
| 40>   H                      5.778902             -9.594835            3.437364
| 41>   C                    : 1.707759             -10.274666           1.594385
| 42>   O                    : 1.247214             -11.277385           2.432735
| 43>   H                    : 0.346420             -11.514977           2.184487
| 44>   H                    : 0.927875             -9.906432            0.922131
| 45>   H                    : 2.187064             -9.447812            2.157880
| 46>   H                    : 2.493720             -10.724936           1.052050
| 47> *
| 48>
| 49> #Run DFT-D3 single point of the particle with dimer basis set
| 50> $new_job
| 51> %base "22-146_DFT_B"
| 52> ! wB97X-D3 def2-TZVP TIGHTSCF CHELPG PMODEL
| 53>
| 54> %scf
| 55> MaxIter 1000
| 56> end
| 57>
| 58> * xyz 0 1
| 59>   C                    : 4.711376             -9.401158            3.653627
| 60>   O                    : 4.517502             -8.654134            4.790164
| 61>   H                    : 4.547553             -9.274433            5.562109
| 62>   H                    : 4.063894             -10.339325           3.744388
| 63>   H                    : 4.302707             -8.863721            2.769714
| 64>   H                    : 5.778902             -9.594835            3.437364
| 65>   C                      1.707759             -10.274666           1.594385
| 66>   O                      1.247214             -11.277385           2.432735
| 67>   H                      0.346420             -11.514977           2.184487
| 68>   H                      0.927875             -9.906432            0.922131
| 69>   H                      2.187064             -9.447812            2.157880
| 70>   H                      2.493720             -10.724936           1.052050
| 71> *
| 72>
| 73>                          ****END OF INPUT****
 Total Charge           Charge          ....    0
 Multiplicity           Mult            ....    1
 Number of Electrons    NEL             ....   36
Dispersion correction           -0.001629173
FINAL SINGLE POINT ENERGY      -231.464639036978
Dispersion correction           -0.000232962
FINAL SINGLE POINT ENERGY      -115.731628804442

CARTESIAN COORDINATES (ANGSTROEM)
---------------------------------
  C      4.711376   -9.401158    3.653627
  O      4.517502   -8.654134    4.790164
  H      4.547553   -9.274433    5.562109
  H      4.063894  -10.339325    3.744388
  H      4.302707   -8.863721    2.769714
  H      5.778902   -9.594835    3.437364
  C      1.707759  -10.274666    1.594385
  O      1.247214  -11.277385    2.432735
  H      0.346420  -11.514977    2.184487
  H      0.927875   -9.906432    0.922131
  H      2.187064   -9.447812    2.157880
  H      2.493720  -10.724936    1.052050

 Multiplicity           Mult            ....    1
 Number of Electrons    NEL             ....   18
 Basis Dimension        Dim             ....  172

ORBITAL ENERGIES
----------------

  NO   OCC          E(Eh)            E(eV)
   0   2.0000     -19.226566      -523.1815
   1   2.0000     -10.306740      -280.4606
   2   2.0000      -1.142547       -31.0903
   3   2.0000      -0.795124       -21.6364
   4   2.0000      -0.615735       -16.7550
   5   2.0000      -0.542345       -14.7580
   6   2.0000      -0.534626       -14.5479
   7   2.0000      -0.433181       -11.7874
   8   2.0000      -0.366562        -9.9747
   9   0.0000       0.092301         2.5116
  10   0.0000       0.116450         3.1688
  11   0.0000       0.155317         4.2264
  12   0.0000       0.181465         4.9379
  13   0.0000       0.194108         5.2819

MULLIKEN ATOMIC CHARGES
-----------------------
   0 C :    0.002972
   1 O :   -0.000391
   2 H :   -0.000038
   3 H :   -0.000784
   4 H :   -0.001224
   5 H :    0.000243
   6 C :   -0.159425
   7 O :   -0.475361
   8 H :    0.317041
   9 H :    0.107349
  10 H :    0.102218
  11 H :    0.107399
Sum of atomic charges:    0.0000000

LOEWDIN ATOMIC CHARGES
----------------------
   0 C :   -0.005837
   1 O :   -0.000013
   2 H :   -0.000005
   3 H :   -0.001604
   4 H :   -0.004973
   5 H :   -0.000026
   6 C :   -0.398811
   7 O :   -0.061203
   8 H :    0.173251
   9 H :    0.097195
  10 H :    0.108539
  11 H :    0.093488

  Mayer bond orders larger than 0.1
B(  6-C ,  7-O ) :   1.0004 B(  6-C ,  9-H ) :   0.9801 B(  6-C , 10-H ) :   0.9713
B(  6-C , 11-H ) :   0.9877 B(  7-O ,  8-H ) :   0.8978

Dispersion correction           -0.000228313
FINAL SINGLE POINT ENERGY      -115.731948704320

DIPOLE MOMENT
-------------
                                X             Y             Z
Electronic contribution:     -0.55498      -1.24592       1.11830
Nuclear contribution   :      0.14156       1.46531      -1.61466
                        -----------------------------------------
Total Dipole Moment    :     -0.41341       0.21939      -0.49637
                        -----------------------------------------
Magnitude (a.u.)       :      0.68222
Magnitude (Debye)      :      1.73406

Rotational constants in cm-1:     4.319751     0.869185     0.827414
Rotational constants in MHz : 129502.864127 26057.518678 24805.250327

                             ****ORCA TERMINATED NORMALLY****
TOTAL RUN TIME: 0 days 0 hours 0 minutes 55 seconds 656 msec
