                         Program Version 4.1.2  - RELEASE  -
|  1> #Run DFT-D3 single point of the dimer
|  2> ! wB97X-D3 def2-TZVP TIGHTSCF CHELPG PMODEL PAL8
|  3>
|  4> %base "6-65_DFT_AB"
|  5>
|  6> %scf
|  7> MaxIter 1000
|  8> end
|  9>
| 10> * xyz 0 1
| 11>   C                      -6.106169            -7.139025            5.478536
| 12>   O                      -7.250673            -6.358448            5.904261
| 13>   H                      -7.580413            -5.854131            5.158850
| 14>   H                      -5.225424            -6.537199            5.228452
| 15>   H                      -5.853161            -7.888103            6.266709
| 16>   H                      -6.381485            -7.683977            4.536477
| 17>   C                      -6.266477            -4.168455            2.455603
| 18>   O                      -7.175860            -4.854637            3.321808
| 19>   H                      -7.764477            -4.120895            3.614753
| 20>   H                      -5.463502            -3.663733            3.000096
| 21>   H                      -5.628157            -4.916968            1.894217
| 22>   H                      -6.708523            -3.465401            1.673452
| 23> *
| 24>
| 25> #Run DFT-D3 single point of the molecule with dimer basis set
| 26> $new_job
| 27> %base "6-65_DFT_A"
| 28> ! wB97X-D3 def2-TZVP TIGHTSCF CHELPG PMODEL
| 29>
| 30> %scf
| 31> MaxIter 1000
| 32> end
| 33>
| 34> * xyz 0 1
| 35>   C                      -6.106169            -7.139025            5.478536
| 36>   O                      -7.250673            -6.358448            5.904261
| 37>   H                      -7.580413            -5.854131            5.158850
| 38>   H                      -5.225424            -6.537199            5.228452
| 39>   H                      -5.853161            -7.888103            6.266709
| 40>   H                      -6.381485            -7.683977            4.536477
| 41>   C                    : -6.266477            -4.168455            2.455603
| 42>   O                    : -7.175860            -4.854637            3.321808
| 43>   H                    : -7.764477            -4.120895            3.614753
| 44>   H                    : -5.463502            -3.663733            3.000096
| 45>   H                    : -5.628157            -4.916968            1.894217
| 46>   H                    : -6.708523            -3.465401            1.673452
| 47> *
| 48>
| 49> #Run DFT-D3 single point of the particle with dimer basis set
| 50> $new_job
| 51> %base "6-65_DFT_B"
| 52> ! wB97X-D3 def2-TZVP TIGHTSCF CHELPG PMODEL
| 53>
| 54> %scf
| 55> MaxIter 1000
| 56> end
| 57>
| 58> * xyz 0 1
| 59>   C                    : -6.106169            -7.139025            5.478536
| 60>   O                    : -7.250673            -6.358448            5.904261
| 61>   H                    : -7.580413            -5.854131            5.158850
| 62>   H                    : -5.225424            -6.537199            5.228452
| 63>   H                    : -5.853161            -7.888103            6.266709
| 64>   H                    : -6.381485            -7.683977            4.536477
| 65>   C                      -6.266477            -4.168455            2.455603
| 66>   O                      -7.175860            -4.854637            3.321808
| 67>   H                      -7.764477            -4.120895            3.614753
| 68>   H                      -5.463502            -3.663733            3.000096
| 69>   H                      -5.628157            -4.916968            1.894217
| 70>   H                      -6.708523            -3.465401            1.673452
| 71> *
| 72>
| 73>                          ****END OF INPUT****
 Total Charge           Charge          ....    0
 Multiplicity           Mult            ....    1
 Number of Electrons    NEL             ....   36
Dispersion correction           -0.001885612
FINAL SINGLE POINT ENERGY      -231.469829051732
Dispersion correction           -0.000261243
FINAL SINGLE POINT ENERGY      -115.734996083695

CARTESIAN COORDINATES (ANGSTROEM)
---------------------------------
  C     -6.106169   -7.139025    5.478536
  O     -7.250673   -6.358448    5.904261
  H     -7.580413   -5.854131    5.158850
  H     -5.225424   -6.537199    5.228452
  H     -5.853161   -7.888103    6.266709
  H     -6.381485   -7.683977    4.536477
  C     -6.266477   -4.168455    2.455603
  O     -7.175860   -4.854637    3.321808
  H     -7.764477   -4.120895    3.614753
  H     -5.463502   -3.663733    3.000096
  H     -5.628157   -4.916968    1.894217
  H     -6.708523   -3.465401    1.673452

 Multiplicity           Mult            ....    1
 Number of Electrons    NEL             ....   18
 Basis Dimension        Dim             ....  172

ORBITAL ENERGIES
----------------

  NO   OCC          E(Eh)            E(eV)
   0   2.0000     -19.241287      -523.5820
   1   2.0000     -10.323265      -280.9103
   2   2.0000      -1.133774       -30.8516
   3   2.0000      -0.788615       -21.4593
   4   2.0000      -0.603821       -16.4308
   5   2.0000      -0.538624       -14.6567
   6   2.0000      -0.519830       -14.1453
   7   2.0000      -0.437410       -11.9025
   8   2.0000      -0.377377       -10.2690
   9   0.0000       0.096718         2.6318
  10   0.0000       0.126737         3.4487
  11   0.0000       0.141433         3.8486
  12   0.0000       0.185463         5.0467
  13   0.0000       0.192414         5.2358

MULLIKEN ATOMIC CHARGES
-----------------------
   0 C :    0.008546
   1 O :   -0.000395
   2 H :   -0.011221
   3 H :   -0.003238
   4 H :   -0.000124
   5 H :   -0.002955
   6 C :   -0.198703
   7 O :   -0.448608
   8 H :    0.317977
   9 H :    0.110864
  10 H :    0.115513
  11 H :    0.112345
Sum of atomic charges:   -0.0000000

LOEWDIN ATOMIC CHARGES
----------------------
   0 C :   -0.007988
   1 O :   -0.003804
   2 H :   -0.024293
   3 H :   -0.001285
   4 H :   -0.000095
   5 H :   -0.001253
   6 C :   -0.402396
   7 O :   -0.062906
   8 H :    0.189349
   9 H :    0.094405
  10 H :    0.114808
  11 H :    0.105457

  Mayer bond orders larger than 0.1
B(  6-C ,  7-O ) :   1.0055 B(  6-C ,  9-H ) :   0.9721 B(  6-C , 10-H ) :   0.9784
B(  6-C , 11-H ) :   0.9636 B(  7-O ,  8-H ) :   0.8953

Dispersion correction           -0.000271306
FINAL SINGLE POINT ENERGY      -115.730010412096

DIPOLE MOMENT
-------------
                                X             Y             Z
Electronic contribution:     -1.28142      -0.99304       1.16258
Nuclear contribution   :      1.28844       1.69609      -1.32150
                        -----------------------------------------
Total Dipole Moment    :      0.00702       0.70305      -0.15891
                        -----------------------------------------
Magnitude (a.u.)       :      0.72082
Magnitude (Debye)      :      1.83219

Rotational constants in cm-1:     4.157549     0.806183     0.772399
Rotational constants in MHz : 124640.179278 24168.761481 23155.933053

                             ****ORCA TERMINATED NORMALLY****
TOTAL RUN TIME: 0 days 0 hours 1 minutes 6 seconds 94 msec
