                         Program Version 4.1.2  - RELEASE  -
|  1> #Run DFT-D3 single point of the dimer
|  2> ! wB97X-D3 def2-TZVP TIGHTSCF CHELPG PMODEL PAL8
|  3>
|  4> %base "14-156_DFT_AB"
|  5>
|  6> %scf
|  7> MaxIter 1000
|  8> end
|  9>
| 10> * xyz 0 1
| 11>   C                      -0.024372            -3.885703            -9.135694
| 12>   O                      1.193417             -4.571755            -8.830151
| 13>   H                      1.057361             -5.472801            -8.697428
| 14>   H                      0.187566             -2.775879            -9.153679
| 15>   H                      -0.366519            -4.130893            -10.134858
| 16>   H                      -0.855381            -4.094383            -8.449808
| 17>   C                      3.912600             -3.565840            -6.417021
| 18>   O                      2.525817             -3.440427            -6.302536
| 19>   H                      2.221452             -3.410622            -7.310455
| 20>   H                      4.374043             -2.651804            -6.804052
| 21>   H                      4.332472             -3.682136            -5.406038
| 22>   H                      4.194898             -4.387226            -7.079261
| 23> *
| 24>
| 25> #Run DFT-D3 single point of the molecule with dimer basis set
| 26> $new_job
| 27> %base "14-156_DFT_A"
| 28> ! wB97X-D3 def2-TZVP TIGHTSCF CHELPG PMODEL
| 29>
| 30> %scf
| 31> MaxIter 1000
| 32> end
| 33>
| 34> * xyz 0 1
| 35>   C                      -0.024372            -3.885703            -9.135694
| 36>   O                      1.193417             -4.571755            -8.830151
| 37>   H                      1.057361             -5.472801            -8.697428
| 38>   H                      0.187566             -2.775879            -9.153679
| 39>   H                      -0.366519            -4.130893            -10.134858
| 40>   H                      -0.855381            -4.094383            -8.449808
| 41>   C                    : 3.912600             -3.565840            -6.417021
| 42>   O                    : 2.525817             -3.440427            -6.302536
| 43>   H                    : 2.221452             -3.410622            -7.310455
| 44>   H                    : 4.374043             -2.651804            -6.804052
| 45>   H                    : 4.332472             -3.682136            -5.406038
| 46>   H                    : 4.194898             -4.387226            -7.079261
| 47> *
| 48>
| 49> #Run DFT-D3 single point of the particle with dimer basis set
| 50> $new_job
| 51> %base "14-156_DFT_B"
| 52> ! wB97X-D3 def2-TZVP TIGHTSCF CHELPG PMODEL
| 53>
| 54> %scf
| 55> MaxIter 1000
| 56> end
| 57>
| 58> * xyz 0 1
| 59>   C                    : -0.024372            -3.885703            -9.135694
| 60>   O                    : 1.193417             -4.571755            -8.830151
| 61>   H                    : 1.057361             -5.472801            -8.697428
| 62>   H                    : 0.187566             -2.775879            -9.153679
| 63>   H                    : -0.366519            -4.130893            -10.134858
| 64>   H                    : -0.855381            -4.094383            -8.449808
| 65>   C                      3.912600             -3.565840            -6.417021
| 66>   O                      2.525817             -3.440427            -6.302536
| 67>   H                      2.221452             -3.410622            -7.310455
| 68>   H                      4.374043             -2.651804            -6.804052
| 69>   H                      4.332472             -3.682136            -5.406038
| 70>   H                      4.194898             -4.387226            -7.079261
| 71> *
| 72>
| 73>                          ****END OF INPUT****
 Total Charge           Charge          ....    0
 Multiplicity           Mult            ....    1
 Number of Electrons    NEL             ....   36
Dispersion correction           -0.001623039
FINAL SINGLE POINT ENERGY      -231.470498411495
Dispersion correction           -0.000261517
FINAL SINGLE POINT ENERGY      -115.734255292949

CARTESIAN COORDINATES (ANGSTROEM)
---------------------------------
  C     -0.024372   -3.885703   -9.135694
  O      1.193417   -4.571755   -8.830151
  H      1.057361   -5.472801   -8.697428
  H      0.187566   -2.775879   -9.153679
  H     -0.366519   -4.130893  -10.134858
  H     -0.855381   -4.094383   -8.449808
  C      3.912600   -3.565840   -6.417021
  O      2.525817   -3.440427   -6.302536
  H      2.221452   -3.410622   -7.310455
  H      4.374043   -2.651804   -6.804052
  H      4.332472   -3.682136   -5.406038
  H      4.194898   -4.387226   -7.079261

 Multiplicity           Mult            ....    1
 Number of Electrons    NEL             ....   18
 Basis Dimension        Dim             ....  172

ORBITAL ENERGIES
----------------

  NO   OCC          E(Eh)            E(eV)
   0   2.0000     -19.240176      -523.5518
   1   2.0000     -10.310974      -280.5759
   2   2.0000      -1.130691       -30.7677
   3   2.0000      -0.784033       -21.3346
   4   2.0000      -0.605098       -16.4656
   5   2.0000      -0.543446       -14.7879
   6   2.0000      -0.523472       -14.2444
   7   2.0000      -0.436850       -11.8873
   8   2.0000      -0.370421       -10.0797
   9   0.0000       0.067126         1.8266
  10   0.0000       0.124119         3.3774
  11   0.0000       0.151773         4.1300
  12   0.0000       0.160166         4.3583
  13   0.0000       0.197605         5.3771

MULLIKEN ATOMIC CHARGES
-----------------------
   0 C :   -0.000935
   1 O :   -0.002218
   2 H :   -0.000615
   3 H :   -0.000584
   4 H :    0.000080
   5 H :   -0.000089
   6 C :   -0.174431
   7 O :   -0.453859
   8 H :    0.313672
   9 H :    0.099169
  10 H :    0.116412
  11 H :    0.103397
Sum of atomic charges:   -0.0000000

LOEWDIN ATOMIC CHARGES
----------------------
   0 C :   -0.004214
   1 O :   -0.012270
   2 H :   -0.001372
   3 H :   -0.000798
   4 H :   -0.000059
   5 H :   -0.000119
   6 C :   -0.413980
   7 O :   -0.090205
   8 H :    0.228675
   9 H :    0.091706
  10 H :    0.109650
  11 H :    0.092987

  Mayer bond orders larger than 0.1
B(  6-C ,  7-O ) :   1.0087 B(  6-C ,  9-H ) :   0.9793 B(  6-C , 10-H ) :   0.9723
B(  6-C , 11-H ) :   0.9750 B(  7-O ,  8-H ) :   0.8930

Dispersion correction           -0.000223023
FINAL SINGLE POINT ENERGY      -115.728851043944

DIPOLE MOMENT
-------------
                                X             Y             Z
Electronic contribution:     -1.81074       0.10115       0.36115
Nuclear contribution   :      2.15585      -0.12622      -0.97736
                        -----------------------------------------
Total Dipole Moment    :      0.34512      -0.02507      -0.61622
                        -----------------------------------------
Magnitude (a.u.)       :      0.70672
Magnitude (Debye)      :      1.79635

Rotational constants in cm-1:     4.054690     0.856307     0.812375
Rotational constants in MHz : 121556.560456 25671.452423 24354.401925

                             ****ORCA TERMINATED NORMALLY****
TOTAL RUN TIME: 0 days 0 hours 1 minutes 10 seconds 88 msec
