                         Program Version 4.1.2  - RELEASE  -
|  1> #Run DFT-D3 single point of the dimer
|  2> ! wB97X-D3 def2-TZVP TIGHTSCF  CHELPG PAL8
|  3>
|  4> %base "27_charges"
|  5>
|  6> %scf
|  7> MaxIter 1000
|  8> end
|  9> %output
| 10>   Print[ P_Mayer ] 1
| 11>   Print[ P_NatPop ] 1
| 12>   Print[ P_Hirshfeld ] 1
| 13>   Print[ P_Mulliken ] 1
| 14>   Print [ P_Loewdin ] 1
| 15> end
| 16>
| 17> * xyz 0 1
| 18>   C                      -8.705540            -3.490862            7.599083
| 19>   O                      -9.881604            -3.093229            6.801390
| 20>   H                      -10.597033           -3.106224            7.429971
| 21>   H                      -8.102179            -2.610047            7.772499
| 22>   H                      -9.083153            -3.924600            8.534128
| 23>   H                      -8.070089            -4.309705            7.161127
| 24> *
| 25>
| 26>                          ****END OF INPUT****

CARTESIAN COORDINATES (ANGSTROEM)
---------------------------------
  C     -8.705540   -3.490862    7.599083
  O     -9.881604   -3.093229    6.801390
  H    -10.597033   -3.106224    7.429971
  H     -8.102179   -2.610047    7.772499
  H     -9.083153   -3.924600    8.534128
  H     -8.070089   -4.309705    7.161127

 Total Charge           Charge          ....    0
 Multiplicity           Mult            ....    1
 Number of Electrons    NEL             ....   18
 Basis Dimension        Dim             ....   86

ORBITAL ENERGIES
----------------

  NO   OCC          E(Eh)            E(eV)
   0   2.0000     -19.229045      -523.2489
   1   2.0000     -10.321777      -280.8698
   2   2.0000      -1.122352       -30.5407
   3   2.0000      -0.794735       -21.6258
   4   2.0000      -0.599329       -16.3086
   5   2.0000      -0.539578       -14.6827
   6   2.0000      -0.521170       -14.1818
   7   2.0000      -0.435064       -11.8387
   8   2.0000      -0.377144       -10.2626
   9   0.0000       0.112110         3.0507
  10   0.0000       0.149606         4.0710
  11   0.0000       0.193997         5.2789
  12   0.0000       0.205183         5.5833
  13   0.0000       0.226930         6.1751

MULLIKEN ATOMIC CHARGES
-----------------------
   0 C :   -0.181768
   1 O :   -0.475576
   2 H :    0.312352
   3 H :    0.121150
   4 H :    0.105387
   5 H :    0.118455
Sum of atomic charges:    0.0000000

LOEWDIN ATOMIC CHARGES
----------------------
   0 C :   -0.345355
   1 O :   -0.119378
   2 H :    0.160050
   3 H :    0.097380
   4 H :    0.098235
   5 H :    0.109068

  Mayer bond orders larger than 0.1
B(  0-C ,  1-O ) :   0.9999 B(  0-C ,  3-H ) :   0.9737 B(  0-C ,  4-H ) :   0.9881
B(  0-C ,  5-H ) :   0.9682 B(  1-O ,  2-H ) :   0.9065

Dispersion correction           -0.000261650
FINAL SINGLE POINT ENERGY      -115.730355881576

DIPOLE MOMENT
-------------
                                X             Y             Z
Electronic contribution:     -1.31229       0.54550      -1.14712
Nuclear contribution   :      1.35049      -0.73158       1.89976
                        -----------------------------------------
Total Dipole Moment    :      0.03820      -0.18608       0.75265
                        -----------------------------------------
Magnitude (a.u.)       :      0.77625
Magnitude (Debye)      :      1.97306

Rotational constants in cm-1:     4.224645     0.776878     0.753304
Rotational constants in MHz : 126651.658319 23290.218645 22583.484873

                             ****ORCA TERMINATED NORMALLY****
TOTAL RUN TIME: 0 days 0 hours 0 minutes 40 seconds 633 msec
