                         Program Version 4.1.2  - RELEASE  -
|  1> #Run DFT-D3 single point of the dimer
|  2> ! wB97X-D3 def2-TZVP TIGHTSCF CHELPG PMODEL PAL8
|  3>
|  4> %base "5-142_DFT_AB"
|  5>
|  6> %scf
|  7> MaxIter 1000
|  8> end
|  9>
| 10> * xyz 0 1
| 11>   C                      2.972572             -0.901774            1.372664
| 12>   O                      3.715877             -0.053173            0.503747
| 13>   H                      4.643713             -0.350892            0.272494
| 14>   H                      2.042537             -0.463022            1.683760
| 15>   H                      2.718830             -1.816522            0.938662
| 16>   H                      3.540776             -1.169969            2.319029
| 17>   C                      6.349488             1.958305             -0.293641
| 18>   O                      6.402245             1.534939             -1.668295
| 19>   H                      5.500103             1.659178             -2.082639
| 20>   H                      7.230434             2.498772             -0.038362
| 21>   H                      5.513317             2.605014             -0.130240
| 22>   H                      6.275680             1.143591             0.346185
| 23> *
| 24>
| 25> #Run DFT-D3 single point of the molecule with dimer basis set
| 26> $new_job
| 27> %base "5-142_DFT_A"
| 28> ! wB97X-D3 def2-TZVP TIGHTSCF CHELPG PMODEL
| 29>
| 30> %scf
| 31> MaxIter 1000
| 32> end
| 33>
| 34> * xyz 0 1
| 35>   C                      2.972572             -0.901774            1.372664
| 36>   O                      3.715877             -0.053173            0.503747
| 37>   H                      4.643713             -0.350892            0.272494
| 38>   H                      2.042537             -0.463022            1.683760
| 39>   H                      2.718830             -1.816522            0.938662
| 40>   H                      3.540776             -1.169969            2.319029
| 41>   C                    : 6.349488             1.958305             -0.293641
| 42>   O                    : 6.402245             1.534939             -1.668295
| 43>   H                    : 5.500103             1.659178             -2.082639
| 44>   H                    : 7.230434             2.498772             -0.038362
| 45>   H                    : 5.513317             2.605014             -0.130240
| 46>   H                    : 6.275680             1.143591             0.346185
| 47> *
| 48>
| 49> #Run DFT-D3 single point of the particle with dimer basis set
| 50> $new_job
| 51> %base "5-142_DFT_B"
| 52> ! wB97X-D3 def2-TZVP TIGHTSCF CHELPG PMODEL
| 53>
| 54> %scf
| 55> MaxIter 1000
| 56> end
| 57>
| 58> * xyz 0 1
| 59>   C                    : 2.972572             -0.901774            1.372664
| 60>   O                    : 3.715877             -0.053173            0.503747
| 61>   H                    : 4.643713             -0.350892            0.272494
| 62>   H                    : 2.042537             -0.463022            1.683760
| 63>   H                    : 2.718830             -1.816522            0.938662
| 64>   H                    : 3.540776             -1.169969            2.319029
| 65>   C                      6.349488             1.958305             -0.293641
| 66>   O                      6.402245             1.534939             -1.668295
| 67>   H                      5.500103             1.659178             -2.082639
| 68>   H                      7.230434             2.498772             -0.038362
| 69>   H                      5.513317             2.605014             -0.130240
| 70>   H                      6.275680             1.143591             0.346185
| 71> *
| 72>
| 73>                          ****END OF INPUT****
 Total Charge           Charge          ....    0
 Multiplicity           Mult            ....    1
 Number of Electrons    NEL             ....   36
Dispersion correction           -0.001630426
FINAL SINGLE POINT ENERGY      -231.463461570649
Dispersion correction           -0.000276552
FINAL SINGLE POINT ENERGY      -115.729761482880

CARTESIAN COORDINATES (ANGSTROEM)
---------------------------------
  C      2.972572   -0.901774    1.372664
  O      3.715877   -0.053173    0.503747
  H      4.643713   -0.350892    0.272494
  H      2.042537   -0.463022    1.683760
  H      2.718830   -1.816522    0.938662
  H      3.540776   -1.169969    2.319029
  C      6.349488    1.958305   -0.293641
  O      6.402245    1.534939   -1.668295
  H      5.500103    1.659178   -2.082639
  H      7.230434    2.498772   -0.038362
  H      5.513317    2.605014   -0.130240
  H      6.275680    1.143591    0.346185

 Multiplicity           Mult            ....    1
 Number of Electrons    NEL             ....   18
 Basis Dimension        Dim             ....  172

ORBITAL ENERGIES
----------------

  NO   OCC          E(Eh)            E(eV)
   0   2.0000     -19.230220      -523.2809
   1   2.0000     -10.302576      -280.3473
   2   2.0000      -1.118645       -30.4399
   3   2.0000      -0.802227       -21.8297
   4   2.0000      -0.602601       -16.3976
   5   2.0000      -0.545237       -14.8367
   6   2.0000      -0.527956       -14.3664
   7   2.0000      -0.432493       -11.7687
   8   2.0000      -0.373471       -10.1627
   9   0.0000       0.083001         2.2586
  10   0.0000       0.111178         3.0253
  11   0.0000       0.152594         4.1523
  12   0.0000       0.176994         4.8162
  13   0.0000       0.194035         5.2800

MULLIKEN ATOMIC CHARGES
-----------------------
   0 C :   -0.000451
   1 O :   -0.000301
   2 H :    0.001593
   3 H :   -0.000021
   4 H :    0.000017
   5 H :    0.000040
   6 C :   -0.171642
   7 O :   -0.491412
   8 H :    0.318351
   9 H :    0.126739
  10 H :    0.107740
  11 H :    0.109347
Sum of atomic charges:   -0.0000000

LOEWDIN ATOMIC CHARGES
----------------------
   0 C :   -0.000168
   1 O :   -0.001866
   2 H :   -0.005318
   3 H :   -0.000004
   4 H :   -0.000002
   5 H :   -0.000015
   6 C :   -0.350576
   7 O :   -0.114692
   8 H :    0.189630
   9 H :    0.100786
  10 H :    0.095054
  11 H :    0.087172

  Mayer bond orders larger than 0.1
B(  6-C ,  7-O ) :   1.0045 B(  6-C ,  9-H ) :   0.9790 B(  6-C , 10-H ) :   0.9879
B(  6-C , 11-H ) :   0.9761 B(  7-O ,  8-H ) :   0.8950

Dispersion correction           -0.000244145
FINAL SINGLE POINT ENERGY      -115.731394493705

DIPOLE MOMENT
-------------
                                X             Y             Z
Electronic contribution:      0.22313      -0.58130      -1.64135
Nuclear contribution   :     -0.81846       0.85027       1.96686
                        -----------------------------------------
Total Dipole Moment    :     -0.59533       0.26897       0.32551
                        -----------------------------------------
Magnitude (a.u.)       :      0.72988
Magnitude (Debye)      :      1.85521

Rotational constants in cm-1:     4.462845     0.813205     0.780907
Rotational constants in MHz : 133792.723314 24379.281866 23411.006381

                             ****ORCA TERMINATED NORMALLY****
TOTAL RUN TIME: 0 days 0 hours 1 minutes 1 seconds 552 msec
