                         Program Version 4.1.2  - RELEASE  -
|  1> #Run DFT-D3 single point of the dimer
|  2> ! wB97X-D3 def2-TZVP TIGHTSCF CHELPG PMODEL PAL8
|  3>
|  4> %base "15-142_DFT_AB"
|  5>
|  6> %scf
|  7> MaxIter 1000
|  8> end
|  9>
| 10> * xyz 0 1
| 11>   C                      -4.484758            8.407967             3.688813
| 12>   O                      -4.479491            9.748562             3.262175
| 13>   H                      -3.579098            10.059647            3.079137
| 14>   H                      -4.119576            7.755454             2.874660
| 15>   H                      -3.874546            8.304731             4.547465
| 16>   H                      -5.538848            8.038277             3.916587
| 17>   C                      -0.864257            9.282511             2.973942
| 18>   O                      -1.675985            10.298137            3.457449
| 19>   H                      -1.283712            11.111861            3.195173
| 20>   H                      -0.078117            8.978090             3.680979
| 21>   H                      -1.401807            8.349232             2.753786
| 22>   H                      -0.348053            9.605425             2.014177
| 23> *
| 24>
| 25> #Run DFT-D3 single point of the molecule with dimer basis set
| 26> $new_job
| 27> %base "15-142_DFT_A"
| 28> ! wB97X-D3 def2-TZVP TIGHTSCF CHELPG PMODEL
| 29>
| 30> %scf
| 31> MaxIter 1000
| 32> end
| 33>
| 34> * xyz 0 1
| 35>   C                      -4.484758            8.407967             3.688813
| 36>   O                      -4.479491            9.748562             3.262175
| 37>   H                      -3.579098            10.059647            3.079137
| 38>   H                      -4.119576            7.755454             2.874660
| 39>   H                      -3.874546            8.304731             4.547465
| 40>   H                      -5.538848            8.038277             3.916587
| 41>   C                    : -0.864257            9.282511             2.973942
| 42>   O                    : -1.675985            10.298137            3.457449
| 43>   H                    : -1.283712            11.111861            3.195173
| 44>   H                    : -0.078117            8.978090             3.680979
| 45>   H                    : -1.401807            8.349232             2.753786
| 46>   H                    : -0.348053            9.605425             2.014177
| 47> *
| 48>
| 49> #Run DFT-D3 single point of the particle with dimer basis set
| 50> $new_job
| 51> %base "15-142_DFT_B"
| 52> ! wB97X-D3 def2-TZVP TIGHTSCF CHELPG PMODEL
| 53>
| 54> %scf
| 55> MaxIter 1000
| 56> end
| 57>
| 58> * xyz 0 1
| 59>   C                    : -4.484758            8.407967             3.688813
| 60>   O                    : -4.479491            9.748562             3.262175
| 61>   H                    : -3.579098            10.059647            3.079137
| 62>   H                    : -4.119576            7.755454             2.874660
| 63>   H                    : -3.874546            8.304731             4.547465
| 64>   H                    : -5.538848            8.038277             3.916587
| 65>   C                      -0.864257            9.282511             2.973942
| 66>   O                      -1.675985            10.298137            3.457449
| 67>   H                      -1.283712            11.111861            3.195173
| 68>   H                      -0.078117            8.978090             3.680979
| 69>   H                      -1.401807            8.349232             2.753786
| 70>   H                      -0.348053            9.605425             2.014177
| 71> *
| 72>
| 73>                          ****END OF INPUT****
 Total Charge           Charge          ....    0
 Multiplicity           Mult            ....    1
 Number of Electrons    NEL             ....   36
Dispersion correction           -0.002109894
FINAL SINGLE POINT ENERGY      -231.475537573269
Dispersion correction           -0.000238525
FINAL SINGLE POINT ENERGY      -115.733891722719

CARTESIAN COORDINATES (ANGSTROEM)
---------------------------------
  C     -4.484758    8.407967    3.688813
  O     -4.479491    9.748562    3.262175
  H     -3.579098   10.059647    3.079137
  H     -4.119576    7.755454    2.874660
  H     -3.874546    8.304731    4.547465
  H     -5.538848    8.038277    3.916587
  C     -0.864257    9.282511    2.973942
  O     -1.675985   10.298137    3.457449
  H     -1.283712   11.111861    3.195173
  H     -0.078117    8.978090    3.680979
  H     -1.401807    8.349232    2.753786
  H     -0.348053    9.605425    2.014177

 Multiplicity           Mult            ....    1
 Number of Electrons    NEL             ....   18
 Basis Dimension        Dim             ....  172

ORBITAL ENERGIES
----------------

  NO   OCC          E(Eh)            E(eV)
   0   2.0000     -19.232276      -523.3368
   1   2.0000     -10.317404      -280.7508
   2   2.0000      -1.151550       -31.3353
   3   2.0000      -0.793405       -21.5897
   4   2.0000      -0.618603       -16.8330
   5   2.0000      -0.540694       -14.7130
   6   2.0000      -0.535613       -14.5748
   7   2.0000      -0.431629       -11.7452
   8   2.0000      -0.373743       -10.1701
   9   0.0000       0.097343         2.6488
  10   0.0000       0.124733         3.3942
  11   0.0000       0.152793         4.1577
  12   0.0000       0.189842         5.1659
  13   0.0000       0.197785         5.3820

MULLIKEN ATOMIC CHARGES
-----------------------
   0 C :    0.004849
   1 O :    0.000727
   2 H :   -0.013295
   3 H :   -0.000910
   4 H :   -0.001712
   5 H :   -0.000024
   6 C :   -0.167562
   7 O :   -0.455257
   8 H :    0.316448
   9 H :    0.101069
  10 H :    0.119754
  11 H :    0.095913
Sum of atomic charges:   -0.0000000

LOEWDIN ATOMIC CHARGES
----------------------
   0 C :   -0.004820
   1 O :   -0.005561
   2 H :   -0.041921
   3 H :   -0.001038
   4 H :   -0.001006
   5 H :   -0.000023
   6 C :   -0.407741
   7 O :   -0.004665
   8 H :    0.162550
   9 H :    0.094977
  10 H :    0.107325
  11 H :    0.101923

  Mayer bond orders larger than 0.1
B(  6-C ,  7-O ) :   0.9930 B(  6-C ,  9-H ) :   0.9686 B(  6-C , 10-H ) :   0.9771
B(  6-C , 11-H ) :   0.9854 B(  7-O ,  8-H ) :   0.8994

Dispersion correction           -0.000241343
FINAL SINGLE POINT ENERGY      -115.734208860007

DIPOLE MOMENT
-------------
                                X             Y             Z
Electronic contribution:     -1.24466       1.28513       0.75497
Nuclear contribution   :      1.79805      -1.14591      -1.10867
                        -----------------------------------------
Total Dipole Moment    :      0.55338       0.13922      -0.35370
                        -----------------------------------------
Magnitude (a.u.)       :      0.67135
Magnitude (Debye)      :      1.70645

Rotational constants in cm-1:     4.292230     0.850710     0.816762
Rotational constants in MHz : 128677.822273 25503.652685 24485.916844

                             ****ORCA TERMINATED NORMALLY****
TOTAL RUN TIME: 0 days 0 hours 1 minutes 7 seconds 337 msec
