                         Program Version 4.1.2  - RELEASE  -
|  1> #Run DFT-D3 single point of the dimer
|  2> ! wB97X-D3 def2-TZVP TIGHTSCF CHELPG PMODEL PAL8
|  3>
|  4> %base "7-119_DFT_AB"
|  5>
|  6> %scf
|  7> MaxIter 1000
|  8> end
|  9>
| 10> * xyz 0 1
| 11>   C                      -6.876157            -3.537889            6.430555
| 12>   O                      -7.557125            -4.068631            5.313738
| 13>   H                      -6.837903            -4.361989            4.734408
| 14>   H                      -6.067335            -2.821260            6.093197
| 15>   H                      -7.594730            -2.834349            6.993745
| 16>   H                      -6.463546            -4.327425            7.099497
| 17>   C                      -10.607702           -6.279182            4.956583
| 18>   O                      -9.962878            -5.256019            4.217466
| 19>   H                      -9.160693            -5.027956            4.776524
| 20>   H                      -10.191750           -7.315485            4.792045
| 21>   H                      -10.521289           -6.060253            6.014975
| 22>   H                      -11.670653           -6.322046            4.700460
| 23> *
| 24>
| 25> #Run DFT-D3 single point of the molecule with dimer basis set
| 26> $new_job
| 27> %base "7-119_DFT_A"
| 28> ! wB97X-D3 def2-TZVP TIGHTSCF CHELPG PMODEL
| 29>
| 30> %scf
| 31> MaxIter 1000
| 32> end
| 33>
| 34> * xyz 0 1
| 35>   C                      -6.876157            -3.537889            6.430555
| 36>   O                      -7.557125            -4.068631            5.313738
| 37>   H                      -6.837903            -4.361989            4.734408
| 38>   H                      -6.067335            -2.821260            6.093197
| 39>   H                      -7.594730            -2.834349            6.993745
| 40>   H                      -6.463546            -4.327425            7.099497
| 41>   C                    : -10.607702           -6.279182            4.956583
| 42>   O                    : -9.962878            -5.256019            4.217466
| 43>   H                    : -9.160693            -5.027956            4.776524
| 44>   H                    : -10.191750           -7.315485            4.792045
| 45>   H                    : -10.521289           -6.060253            6.014975
| 46>   H                    : -11.670653           -6.322046            4.700460
| 47> *
| 48>
| 49> #Run DFT-D3 single point of the particle with dimer basis set
| 50> $new_job
| 51> %base "7-119_DFT_B"
| 52> ! wB97X-D3 def2-TZVP TIGHTSCF CHELPG PMODEL
| 53>
| 54> %scf
| 55> MaxIter 1000
| 56> end
| 57>
| 58> * xyz 0 1
| 59>   C                    : -6.876157            -3.537889            6.430555
| 60>   O                    : -7.557125            -4.068631            5.313738
| 61>   H                    : -6.837903            -4.361989            4.734408
| 62>   H                    : -6.067335            -2.821260            6.093197
| 63>   H                    : -7.594730            -2.834349            6.993745
| 64>   H                    : -6.463546            -4.327425            7.099497
| 65>   C                      -10.607702           -6.279182            4.956583
| 66>   O                      -9.962878            -5.256019            4.217466
| 67>   H                      -9.160693            -5.027956            4.776524
| 68>   H                      -10.191750           -7.315485            4.792045
| 69>   H                      -10.521289           -6.060253            6.014975
| 70>   H                      -11.670653           -6.322046            4.700460
| 71> *
| 72>
| 73>                          ****END OF INPUT****
 Total Charge           Charge          ....    0
 Multiplicity           Mult            ....    1
 Number of Electrons    NEL             ....   36
Dispersion correction           -0.001435777
FINAL SINGLE POINT ENERGY      -231.473571397437
Dispersion correction           -0.000243711
FINAL SINGLE POINT ENERGY      -115.732537674458

CARTESIAN COORDINATES (ANGSTROEM)
---------------------------------
  C     -6.876157   -3.537889    6.430555
  O     -7.557125   -4.068631    5.313738
  H     -6.837903   -4.361989    4.734408
  H     -6.067335   -2.821260    6.093197
  H     -7.594730   -2.834349    6.993745
  H     -6.463546   -4.327425    7.099497
  C    -10.607702   -6.279182    4.956583
  O     -9.962878   -5.256019    4.217466
  H     -9.160693   -5.027956    4.776524
  H    -10.191750   -7.315485    4.792045
  H    -10.521289   -6.060253    6.014975
  H    -11.670653   -6.322046    4.700460

 Multiplicity           Mult            ....    1
 Number of Electrons    NEL             ....   18
 Basis Dimension        Dim             ....  172

ORBITAL ENERGIES
----------------

  NO   OCC          E(Eh)            E(eV)
   0   2.0000     -19.236777      -523.4593
   1   2.0000     -10.315815      -280.7076
   2   2.0000      -1.131074       -30.7781
   3   2.0000      -0.788571       -21.4581
   4   2.0000      -0.606683       -16.5087
   5   2.0000      -0.536417       -14.5967
   6   2.0000      -0.527212       -14.3462
   7   2.0000      -0.437520       -11.9055
   8   2.0000      -0.372922       -10.1477
   9   0.0000       0.067547         1.8380
  10   0.0000       0.124841         3.3971
  11   0.0000       0.146927         3.9981
  12   0.0000       0.170273         4.6334
  13   0.0000       0.191732         5.2173

MULLIKEN ATOMIC CHARGES
-----------------------
   0 C :   -0.000280
   1 O :   -0.000898
   2 H :   -0.000648
   3 H :   -0.000011
   4 H :   -0.000017
   5 H :    0.000010
   6 C :   -0.176357
   7 O :   -0.460588
   8 H :    0.311919
   9 H :    0.097012
  10 H :    0.108338
  11 H :    0.121520
Sum of atomic charges:   -0.0000000

LOEWDIN ATOMIC CHARGES
----------------------
   0 C :   -0.001772
   1 O :   -0.020765
   2 H :   -0.002216
   3 H :   -0.000049
   4 H :   -0.000084
   5 H :   -0.000043
   6 C :   -0.394502
   7 O :   -0.087437
   8 H :    0.208089
   9 H :    0.098700
  10 H :    0.093654
  11 H :    0.106424

  Mayer bond orders larger than 0.1
B(  6-C ,  7-O ) :   1.0030 B(  6-C ,  9-H ) :   0.9678 B(  6-C , 10-H ) :   0.9845
B(  6-C , 11-H ) :   0.9736 B(  7-O ,  8-H ) :   0.9008

Dispersion correction           -0.000244282
FINAL SINGLE POINT ENERGY      -115.733358294998

DIPOLE MOMENT
-------------
                                X             Y             Z
Electronic contribution:      0.69704       1.35299      -1.11537
Nuclear contribution   :     -0.47692      -1.58913       1.75460
                        -----------------------------------------
Total Dipole Moment    :      0.22012      -0.23614       0.63923
                        -----------------------------------------
Magnitude (a.u.)       :      0.71612
Magnitude (Debye)      :      1.82023

Rotational constants in cm-1:     4.159575     0.827639     0.794749
Rotational constants in MHz : 124700.924479 24811.989222 23825.984388

                             ****ORCA TERMINATED NORMALLY****
TOTAL RUN TIME: 0 days 0 hours 1 minutes 13 seconds 998 msec
