                         Program Version 4.1.2  - RELEASE  -
|  1> #Run DFT-D3 single point of the dimer
|  2> ! wB97X-D3 def2-TZVP TIGHTSCF CHELPG PMODEL PAL8
|  3>
|  4> %base "2-169_DFT_AB"
|  5>
|  6> %scf
|  7> MaxIter 1000
|  8> end
|  9>
| 10> * xyz 0 1
| 11>   C                      -5.713303            3.277059             -8.206859
| 12>   O                      -6.575882            4.002140             -9.087168
| 13>   H                      -6.399172            4.927764             -9.038590
| 14>   H                      -5.820958            3.609487             -7.198915
| 15>   H                      -5.852943            2.193454             -8.268895
| 16>   H                      -4.677271            3.379742             -8.473651
| 17>   C                      -9.224930            4.839773             -7.286287
| 18>   O                      -8.231140            4.166823             -6.498063
| 19>   H                      -8.353721            3.247106             -6.539057
| 20>   H                      -9.437909            4.274137             -8.195212
| 21>   H                      -10.117636           4.978880             -6.708360
| 22>   H                      -9.045437            5.853248             -7.636476
| 23> *
| 24>
| 25> #Run DFT-D3 single point of the molecule with dimer basis set
| 26> $new_job
| 27> %base "2-169_DFT_A"
| 28> ! wB97X-D3 def2-TZVP TIGHTSCF CHELPG PMODEL
| 29>
| 30> %scf
| 31> MaxIter 1000
| 32> end
| 33>
| 34> * xyz 0 1
| 35>   C                      -5.713303            3.277059             -8.206859
| 36>   O                      -6.575882            4.002140             -9.087168
| 37>   H                      -6.399172            4.927764             -9.038590
| 38>   H                      -5.820958            3.609487             -7.198915
| 39>   H                      -5.852943            2.193454             -8.268895
| 40>   H                      -4.677271            3.379742             -8.473651
| 41>   C                    : -9.224930            4.839773             -7.286287
| 42>   O                    : -8.231140            4.166823             -6.498063
| 43>   H                    : -8.353721            3.247106             -6.539057
| 44>   H                    : -9.437909            4.274137             -8.195212
| 45>   H                    : -10.117636           4.978880             -6.708360
| 46>   H                    : -9.045437            5.853248             -7.636476
| 47> *
| 48>
| 49> #Run DFT-D3 single point of the particle with dimer basis set
| 50> $new_job
| 51> %base "2-169_DFT_B"
| 52> ! wB97X-D3 def2-TZVP TIGHTSCF CHELPG PMODEL
| 53>
| 54> %scf
| 55> MaxIter 1000
| 56> end
| 57>
| 58> * xyz 0 1
| 59>   C                    : -5.713303            3.277059             -8.206859
| 60>   O                    : -6.575882            4.002140             -9.087168
| 61>   H                    : -6.399172            4.927764             -9.038590
| 62>   H                    : -5.820958            3.609487             -7.198915
| 63>   H                    : -5.852943            2.193454             -8.268895
| 64>   H                    : -4.677271            3.379742             -8.473651
| 65>   C                      -9.224930            4.839773             -7.286287
| 66>   O                      -8.231140            4.166823             -6.498063
| 67>   H                      -8.353721            3.247106             -6.539057
| 68>   H                      -9.437909            4.274137             -8.195212
| 69>   H                      -10.117636           4.978880             -6.708360
| 70>   H                      -9.045437            5.853248             -7.636476
| 71> *
| 72>
| 73>                          ****END OF INPUT****
 Total Charge           Charge          ....    0
 Multiplicity           Mult            ....    1
 Number of Electrons    NEL             ....   36
Dispersion correction           -0.002358649
FINAL SINGLE POINT ENERGY      -231.466518898356
Dispersion correction           -0.000247356
FINAL SINGLE POINT ENERGY      -115.734537448842

CARTESIAN COORDINATES (ANGSTROEM)
---------------------------------
  C     -5.713303    3.277059   -8.206859
  O     -6.575882    4.002140   -9.087168
  H     -6.399172    4.927764   -9.038590
  H     -5.820958    3.609487   -7.198915
  H     -5.852943    2.193454   -8.268895
  H     -4.677271    3.379742   -8.473651
  C     -9.224930    4.839773   -7.286287
  O     -8.231140    4.166823   -6.498063
  H     -8.353721    3.247106   -6.539057
  H     -9.437909    4.274137   -8.195212
  H    -10.117636    4.978880   -6.708360
  H     -9.045437    5.853248   -7.636476

 Multiplicity           Mult            ....    1
 Number of Electrons    NEL             ....   18
 Basis Dimension        Dim             ....  172

ORBITAL ENERGIES
----------------

  NO   OCC          E(Eh)            E(eV)
   0   2.0000     -19.228659      -523.2384
   1   2.0000     -10.313477      -280.6440
   2   2.0000      -1.135476       -30.8979
   3   2.0000      -0.805343       -21.9145
   4   2.0000      -0.612148       -16.6574
   5   2.0000      -0.544230       -14.8092
   6   2.0000      -0.531565       -14.4646
   7   2.0000      -0.428305       -11.6548
   8   2.0000      -0.376564       -10.2468
   9   0.0000       0.089656         2.4397
  10   0.0000       0.136008         3.7010
  11   0.0000       0.141626         3.8538
  12   0.0000       0.176996         4.8163
  13   0.0000       0.194086         5.2814

MULLIKEN ATOMIC CHARGES
-----------------------
   0 C :   -0.013013
   1 O :    0.003536
   2 H :   -0.000309
   3 H :   -0.004008
   4 H :    0.001112
   5 H :   -0.001116
   6 C :   -0.176109
   7 O :   -0.470197
   8 H :    0.315782
   9 H :    0.110124
  10 H :    0.114260
  11 H :    0.119939
Sum of atomic charges:   -0.0000000

LOEWDIN ATOMIC CHARGES
----------------------
   0 C :   -0.016023
   1 O :   -0.003705
   2 H :   -0.001221
   3 H :   -0.010357
   4 H :   -0.000506
   5 H :   -0.000271
   6 C :   -0.364706
   7 O :   -0.053517
   8 H :    0.149488
   9 H :    0.098768
  10 H :    0.094576
  11 H :    0.107475

  Mayer bond orders larger than 0.1
B(  6-C ,  7-O ) :   0.9869 B(  6-C ,  9-H ) :   0.9830 B(  6-C , 10-H ) :   0.9770
B(  6-C , 11-H ) :   0.9738 B(  7-O ,  8-H ) :   0.9012

Dispersion correction           -0.000256733
FINAL SINGLE POINT ENERGY      -115.729829529324

DIPOLE MOMENT
-------------
                                X             Y             Z
Electronic contribution:      1.37576      -0.72668       1.05386
Nuclear contribution   :     -1.89985       0.43163      -1.41699
                        -----------------------------------------
Total Dipole Moment    :     -0.52409      -0.29505      -0.36313
                        -----------------------------------------
Magnitude (a.u.)       :      0.70255
Magnitude (Debye)      :      1.78575

Rotational constants in cm-1:     4.616175     0.799289     0.775407
Rotational constants in MHz : 138389.457278 23962.086992 23246.110390

                             ****ORCA TERMINATED NORMALLY****
TOTAL RUN TIME: 0 days 0 hours 6 minutes 24 seconds 514 msec
