                         Program Version 4.1.2  - RELEASE  -
|  1> #Run DFT-D3 single point of the dimer
|  2> ! wB97X-D3 def2-TZVP TIGHTSCF CHELPG PMODEL PAL8
|  3>
|  4> %base "6-16_DFT_AB"
|  5>
|  6> %scf
|  7> MaxIter 1000
|  8> end
|  9>
| 10> * xyz 0 1
| 11>   C                      10.093888            -10.923622           -4.878112
| 12>   O                      8.854168             -11.523886           -5.213173
| 13>   H                      8.103930             -11.097083           -4.746784
| 14>   H                      10.121338            -10.612979           -3.867320
| 15>   H                      11.027255            -11.597783           -4.983063
| 16>   H                      10.219092            -10.001707           -5.424086
| 17>   C                      7.155881             -8.393305            -8.018918
| 18>   O                      6.341864             -7.327575            -7.522887
| 19>   H                      6.588646             -6.480897            -7.857293
| 20>   H                      8.161152             -8.078132            -8.027653
| 21>   H                      7.060098             -9.355730            -7.427923
| 22>   H                      6.875067             -8.735039            -9.032250
| 23> *
| 24>
| 25> #Run DFT-D3 single point of the molecule with dimer basis set
| 26> $new_job
| 27> %base "6-16_DFT_A"
| 28> ! wB97X-D3 def2-TZVP TIGHTSCF CHELPG PMODEL
| 29>
| 30> %scf
| 31> MaxIter 1000
| 32> end
| 33>
| 34> * xyz 0 1
| 35>   C                      10.093888            -10.923622           -4.878112
| 36>   O                      8.854168             -11.523886           -5.213173
| 37>   H                      8.103930             -11.097083           -4.746784
| 38>   H                      10.121338            -10.612979           -3.867320
| 39>   H                      11.027255            -11.597783           -4.983063
| 40>   H                      10.219092            -10.001707           -5.424086
| 41>   C                    : 7.155881             -8.393305            -8.018918
| 42>   O                    : 6.341864             -7.327575            -7.522887
| 43>   H                    : 6.588646             -6.480897            -7.857293
| 44>   H                    : 8.161152             -8.078132            -8.027653
| 45>   H                    : 7.060098             -9.355730            -7.427923
| 46>   H                    : 6.875067             -8.735039            -9.032250
| 47> *
| 48>
| 49> #Run DFT-D3 single point of the particle with dimer basis set
| 50> $new_job
| 51> %base "6-16_DFT_B"
| 52> ! wB97X-D3 def2-TZVP TIGHTSCF CHELPG PMODEL
| 53>
| 54> %scf
| 55> MaxIter 1000
| 56> end
| 57>
| 58> * xyz 0 1
| 59>   C                    : 10.093888            -10.923622           -4.878112
| 60>   O                    : 8.854168             -11.523886           -5.213173
| 61>   H                    : 8.103930             -11.097083           -4.746784
| 62>   H                    : 10.121338            -10.612979           -3.867320
| 63>   H                    : 11.027255            -11.597783           -4.983063
| 64>   H                    : 10.219092            -10.001707           -5.424086
| 65>   C                      7.155881             -8.393305            -8.018918
| 66>   O                      6.341864             -7.327575            -7.522887
| 67>   H                      6.588646             -6.480897            -7.857293
| 68>   H                      8.161152             -8.078132            -8.027653
| 69>   H                      7.060098             -9.355730            -7.427923
| 70>   H                      6.875067             -8.735039            -9.032250
| 71> *
| 72>
| 73>                          ****END OF INPUT****
 Total Charge           Charge          ....    0
 Multiplicity           Mult            ....    1
 Number of Electrons    NEL             ....   36
Dispersion correction           -0.001001586
FINAL SINGLE POINT ENERGY      -231.461459928234
Dispersion correction           -0.000255355
FINAL SINGLE POINT ENERGY      -115.729157068580

CARTESIAN COORDINATES (ANGSTROEM)
---------------------------------
  C     10.093888  -10.923622   -4.878112
  O      8.854168  -11.523886   -5.213173
  H      8.103930  -11.097083   -4.746784
  H     10.121338  -10.612979   -3.867320
  H     11.027255  -11.597783   -4.983063
  H     10.219092  -10.001707   -5.424086
  C      7.155881   -8.393305   -8.018918
  O      6.341864   -7.327575   -7.522887
  H      6.588646   -6.480897   -7.857293
  H      8.161152   -8.078132   -8.027653
  H      7.060098   -9.355730   -7.427923
  H      6.875067   -8.735039   -9.032250

 Multiplicity           Mult            ....    1
 Number of Electrons    NEL             ....   18
 Basis Dimension        Dim             ....  172

ORBITAL ENERGIES
----------------

  NO   OCC          E(Eh)            E(eV)
   0   2.0000     -19.226842      -523.1890
   1   2.0000     -10.316982      -280.7394
   2   2.0000      -1.131275       -30.7836
   3   2.0000      -0.799886       -21.7660
   4   2.0000      -0.612580       -16.6691
   5   2.0000      -0.544888       -14.8272
   6   2.0000      -0.521497       -14.1907
   7   2.0000      -0.426830       -11.6146
   8   2.0000      -0.373403       -10.1608
   9   0.0000       0.084157         2.2900
  10   0.0000       0.119239         3.2447
  11   0.0000       0.143580         3.9070
  12   0.0000       0.163567         4.4509
  13   0.0000       0.193945         5.2775

MULLIKEN ATOMIC CHARGES
-----------------------
   0 C :    0.000057
   1 O :    0.000017
   2 H :   -0.000067
   3 H :   -0.000018
   4 H :   -0.000002
   5 H :   -0.000253
   6 C :   -0.155874
   7 O :   -0.487950
   8 H :    0.315980
   9 H :    0.111628
  10 H :    0.120396
  11 H :    0.096086
Sum of atomic charges:    0.0000000

LOEWDIN ATOMIC CHARGES
----------------------
   0 C :   -0.000174
   1 O :   -0.000176
   2 H :   -0.000340
   3 H :   -0.000002
   4 H :   -0.000001
   5 H :   -0.000149
   6 C :   -0.371404
   7 O :   -0.083032
   8 H :    0.155466
   9 H :    0.087633
  10 H :    0.117022
  11 H :    0.095156

  Mayer bond orders larger than 0.1
B(  6-C ,  7-O ) :   0.9948 B(  6-C ,  9-H ) :   0.9838 B(  6-C , 10-H ) :   0.9711
B(  6-C , 11-H ) :   0.9722 B(  7-O ,  8-H ) :   0.8975

Dispersion correction           -0.000263570
FINAL SINGLE POINT ENERGY      -115.731157563612

DIPOLE MOMENT
-------------
                                X             Y             Z
Electronic contribution:     -1.04857       1.34439       0.72059
Nuclear contribution   :      1.56962      -1.23216      -1.14663
                        -----------------------------------------
Total Dipole Moment    :      0.52104       0.11223      -0.42604
                        -----------------------------------------
Magnitude (a.u.)       :      0.68234
Magnitude (Debye)      :      1.73437

Rotational constants in cm-1:     4.462238     0.804046     0.776618
Rotational constants in MHz : 133774.533598 24104.704965 23282.426269

                             ****ORCA TERMINATED NORMALLY****
TOTAL RUN TIME: 0 days 0 hours 0 minutes 54 seconds 988 msec
