                         Program Version 4.1.2  - RELEASE  -
|  1> #Run DFT-D3 single point of the dimer
|  2> ! wB97X-D3 def2-TZVP TIGHTSCF CHELPG PMODEL PAL8
|  3>
|  4> %base "19-70_DFT_AB"
|  5>
|  6> %scf
|  7> MaxIter 1000
|  8> end
|  9>
| 10> * xyz 0 1
| 11>   C                      -0.575067            -10.156360           7.923037
| 12>   O                      0.034573             -8.867391            8.103202
| 13>   H                      0.063083             -8.534555            7.191090
| 14>   H                      -0.260916            -10.777409           8.756213
| 15>   H                      -1.647497            -10.080484           7.981376
| 16>   H                      -0.388357            -10.646817           7.019382
| 17>   C                      0.463578             -8.435352            4.585591
| 18>   O                      -0.166651            -7.334462            5.118559
| 19>   H                      -1.046295            -7.331275            4.800293
| 20>   H                      1.138323             -8.842697            5.377777
| 21>   H                      -0.148511            -9.206932            4.271902
| 22>   H                      1.138313             -8.130747            3.739208
| 23> *
| 24>
| 25> #Run DFT-D3 single point of the molecule with dimer basis set
| 26> $new_job
| 27> %base "19-70_DFT_A"
| 28> ! wB97X-D3 def2-TZVP TIGHTSCF CHELPG PMODEL
| 29>
| 30> %scf
| 31> MaxIter 1000
| 32> end
| 33>
| 34> * xyz 0 1
| 35>   C                      -0.575067            -10.156360           7.923037
| 36>   O                      0.034573             -8.867391            8.103202
| 37>   H                      0.063083             -8.534555            7.191090
| 38>   H                      -0.260916            -10.777409           8.756213
| 39>   H                      -1.647497            -10.080484           7.981376
| 40>   H                      -0.388357            -10.646817           7.019382
| 41>   C                    : 0.463578             -8.435352            4.585591
| 42>   O                    : -0.166651            -7.334462            5.118559
| 43>   H                    : -1.046295            -7.331275            4.800293
| 44>   H                    : 1.138323             -8.842697            5.377777
| 45>   H                    : -0.148511            -9.206932            4.271902
| 46>   H                    : 1.138313             -8.130747            3.739208
| 47> *
| 48>
| 49> #Run DFT-D3 single point of the particle with dimer basis set
| 50> $new_job
| 51> %base "19-70_DFT_B"
| 52> ! wB97X-D3 def2-TZVP TIGHTSCF CHELPG PMODEL
| 53>
| 54> %scf
| 55> MaxIter 1000
| 56> end
| 57>
| 58> * xyz 0 1
| 59>   C                    : -0.575067            -10.156360           7.923037
| 60>   O                    : 0.034573             -8.867391            8.103202
| 61>   H                    : 0.063083             -8.534555            7.191090
| 62>   H                    : -0.260916            -10.777409           8.756213
| 63>   H                    : -1.647497            -10.080484           7.981376
| 64>   H                    : -0.388357            -10.646817           7.019382
| 65>   C                      0.463578             -8.435352            4.585591
| 66>   O                      -0.166651            -7.334462            5.118559
| 67>   H                      -1.046295            -7.331275            4.800293
| 68>   H                      1.138323             -8.842697            5.377777
| 69>   H                      -0.148511            -9.206932            4.271902
| 70>   H                      1.138313             -8.130747            3.739208
| 71> *
| 72>
| 73>                          ****END OF INPUT****
 Total Charge           Charge          ....    0
 Multiplicity           Mult            ....    1
 Number of Electrons    NEL             ....   36
Dispersion correction           -0.002012453
FINAL SINGLE POINT ENERGY      -231.467875730273
Dispersion correction           -0.000234221
FINAL SINGLE POINT ENERGY      -115.732626270476

CARTESIAN COORDINATES (ANGSTROEM)
---------------------------------
  C     -0.575067  -10.156360    7.923037
  O      0.034573   -8.867391    8.103202
  H      0.063083   -8.534555    7.191090
  H     -0.260916  -10.777409    8.756213
  H     -1.647497  -10.080484    7.981376
  H     -0.388357  -10.646817    7.019382
  C      0.463578   -8.435352    4.585591
  O     -0.166651   -7.334462    5.118559
  H     -1.046295   -7.331275    4.800293
  H      1.138323   -8.842697    5.377777
  H     -0.148511   -9.206932    4.271902
  H      1.138313   -8.130747    3.739208

 Multiplicity           Mult            ....    1
 Number of Electrons    NEL             ....   18
 Basis Dimension        Dim             ....  172

ORBITAL ENERGIES
----------------

  NO   OCC          E(Eh)            E(eV)
   0   2.0000     -19.229171      -523.2523
   1   2.0000     -10.307805      -280.4896
   2   2.0000      -1.154697       -31.4209
   3   2.0000      -0.797238       -21.6939
   4   2.0000      -0.628816       -17.1109
   5   2.0000      -0.540950       -14.7200
   6   2.0000      -0.529481       -14.4079
   7   2.0000      -0.439238       -11.9523
   8   2.0000      -0.369737       -10.0611
   9   0.0000       0.089631         2.4390
  10   0.0000       0.126836         3.4514
  11   0.0000       0.156943         4.2706
  12   0.0000       0.174068         4.7366
  13   0.0000       0.199102         5.4178

MULLIKEN ATOMIC CHARGES
-----------------------
   0 C :   -0.001153
   1 O :   -0.001356
   2 H :    0.003067
   3 H :    0.000044
   4 H :    0.000027
   5 H :   -0.001714
   6 C :   -0.178411
   7 O :   -0.458819
   8 H :    0.311070
   9 H :    0.109115
  10 H :    0.116149
  11 H :    0.101980
Sum of atomic charges:    0.0000000

LOEWDIN ATOMIC CHARGES
----------------------
   0 C :   -0.002484
   1 O :   -0.001600
   2 H :   -0.015239
   3 H :   -0.000017
   4 H :   -0.000037
   5 H :   -0.001273
   6 C :   -0.408480
   7 O :   -0.025024
   8 H :    0.157124
   9 H :    0.113015
  10 H :    0.082223
  11 H :    0.101792

  Mayer bond orders larger than 0.1
B(  6-C ,  7-O ) :   1.0007 B(  6-C ,  9-H ) :   0.9839 B(  6-C , 10-H ) :   0.9784
B(  6-C , 11-H ) :   0.9747 B(  7-O ,  8-H ) :   0.9051

Dispersion correction           -0.000230589
FINAL SINGLE POINT ENERGY      -115.731415498825

DIPOLE MOMENT
-------------
                                X             Y             Z
Electronic contribution:     -0.91936       1.44544       0.71817
Nuclear contribution   :      0.54307      -1.86635      -1.12027
                        -----------------------------------------
Total Dipole Moment    :     -0.37629      -0.42091      -0.40211
                        -----------------------------------------
Magnitude (a.u.)       :      0.69314
Magnitude (Debye)      :      1.76183

Rotational constants in cm-1:     4.370145     0.868008     0.840717
Rotational constants in MHz : 131013.639020 26022.223373 25204.052367

                             ****ORCA TERMINATED NORMALLY****
TOTAL RUN TIME: 0 days 0 hours 2 minutes 23 seconds 552 msec
