                         Program Version 4.1.2  - RELEASE  -
|  1> #Run DFT-D3 single point of the dimer
|  2> ! wB97X-D3 def2-TZVP TIGHTSCF CHELPG PMODEL PAL8
|  3>
|  4> %base "18-194_DFT_AB"
|  5>
|  6> %scf
|  7> MaxIter 1000
|  8> end
|  9>
| 10> * xyz 0 1
| 11>   C                      -3.298790            -3.261726            -5.806009
| 12>   O                      -2.323678            -3.800694            -6.630534
| 13>   H                      -2.343861            -3.387255            -7.476994
| 14>   H                      -2.987311            -2.325919            -5.315744
| 15>   H                      -4.237736            -3.025110            -6.254356
| 16>   H                      -3.616633            -3.976953            -5.027807
| 17>   C                      0.218613             -3.774525            -3.429401
| 18>   O                      -0.607822            -3.042870            -4.238015
| 19>   H                      -0.933965            -3.609689            -4.932141
| 20>   H                      0.524269             -3.125596            -2.622507
| 21>   H                      -0.271415            -4.676162            -3.031674
| 22>   H                      1.146558             -4.186064            -3.897141
| 23> *
| 24>
| 25> #Run DFT-D3 single point of the molecule with dimer basis set
| 26> $new_job
| 27> %base "18-194_DFT_A"
| 28> ! wB97X-D3 def2-TZVP TIGHTSCF CHELPG PMODEL
| 29>
| 30> %scf
| 31> MaxIter 1000
| 32> end
| 33>
| 34> * xyz 0 1
| 35>   C                      -3.298790            -3.261726            -5.806009
| 36>   O                      -2.323678            -3.800694            -6.630534
| 37>   H                      -2.343861            -3.387255            -7.476994
| 38>   H                      -2.987311            -2.325919            -5.315744
| 39>   H                      -4.237736            -3.025110            -6.254356
| 40>   H                      -3.616633            -3.976953            -5.027807
| 41>   C                    : 0.218613             -3.774525            -3.429401
| 42>   O                    : -0.607822            -3.042870            -4.238015
| 43>   H                    : -0.933965            -3.609689            -4.932141
| 44>   H                    : 0.524269             -3.125596            -2.622507
| 45>   H                    : -0.271415            -4.676162            -3.031674
| 46>   H                    : 1.146558             -4.186064            -3.897141
| 47> *
| 48>
| 49> #Run DFT-D3 single point of the particle with dimer basis set
| 50> $new_job
| 51> %base "18-194_DFT_B"
| 52> ! wB97X-D3 def2-TZVP TIGHTSCF CHELPG PMODEL
| 53>
| 54> %scf
| 55> MaxIter 1000
| 56> end
| 57>
| 58> * xyz 0 1
| 59>   C                    : -3.298790            -3.261726            -5.806009
| 60>   O                    : -2.323678            -3.800694            -6.630534
| 61>   H                    : -2.343861            -3.387255            -7.476994
| 62>   H                    : -2.987311            -2.325919            -5.315744
| 63>   H                    : -4.237736            -3.025110            -6.254356
| 64>   H                    : -3.616633            -3.976953            -5.027807
| 65>   C                      0.218613             -3.774525            -3.429401
| 66>   O                      -0.607822            -3.042870            -4.238015
| 67>   H                      -0.933965            -3.609689            -4.932141
| 68>   H                      0.524269             -3.125596            -2.622507
| 69>   H                      -0.271415            -4.676162            -3.031674
| 70>   H                      1.146558             -4.186064            -3.897141
| 71> *
| 72>
| 73>                          ****END OF INPUT****
 Total Charge           Charge          ....    0
 Multiplicity           Mult            ....    1
 Number of Electrons    NEL             ....   36
Dispersion correction           -0.001766832
FINAL SINGLE POINT ENERGY      -231.475461916495
Dispersion correction           -0.000249632
FINAL SINGLE POINT ENERGY      -115.733895134573

CARTESIAN COORDINATES (ANGSTROEM)
---------------------------------
  C     -3.298790   -3.261726   -5.806009
  O     -2.323678   -3.800694   -6.630534
  H     -2.343861   -3.387255   -7.476994
  H     -2.987311   -2.325919   -5.315744
  H     -4.237736   -3.025110   -6.254356
  H     -3.616633   -3.976953   -5.027807
  C      0.218613   -3.774525   -3.429401
  O     -0.607822   -3.042870   -4.238015
  H     -0.933965   -3.609689   -4.932141
  H      0.524269   -3.125596   -2.622507
  H     -0.271415   -4.676162   -3.031674
  H      1.146558   -4.186064   -3.897141

 Multiplicity           Mult            ....    1
 Number of Electrons    NEL             ....   18
 Basis Dimension        Dim             ....  172

ORBITAL ENERGIES
----------------

  NO   OCC          E(Eh)            E(eV)
   0   2.0000     -19.233648      -523.3742
   1   2.0000     -10.310350      -280.5589
   2   2.0000      -1.154460       -31.4145
   3   2.0000      -0.795006       -21.6332
   4   2.0000      -0.625709       -17.0264
   5   2.0000      -0.540182       -14.6991
   6   2.0000      -0.533039       -14.5047
   7   2.0000      -0.436723       -11.8838
   8   2.0000      -0.370964       -10.0944
   9   0.0000       0.078745         2.1428
  10   0.0000       0.132056         3.5934
  11   0.0000       0.156757         4.2656
  12   0.0000       0.167527         4.5586
  13   0.0000       0.196157         5.3377

MULLIKEN ATOMIC CHARGES
-----------------------
   0 C :   -0.008176
   1 O :    0.001033
   2 H :   -0.000011
   3 H :   -0.001687
   4 H :   -0.000811
   5 H :    0.000016
   6 C :   -0.158961
   7 O :   -0.442869
   8 H :    0.312260
   9 H :    0.119421
  10 H :    0.090697
  11 H :    0.089088
Sum of atomic charges:    0.0000000

LOEWDIN ATOMIC CHARGES
----------------------
   0 C :   -0.015726
   1 O :   -0.008271
   2 H :   -0.000459
   3 H :   -0.004979
   4 H :   -0.000198
   5 H :   -0.001304
   6 C :   -0.423209
   7 O :   -0.017352
   8 H :    0.177562
   9 H :    0.107515
  10 H :    0.092422
  11 H :    0.093998

  Mayer bond orders larger than 0.1
B(  6-C ,  7-O ) :   1.0132 B(  6-C ,  9-H ) :   0.9761 B(  6-C , 10-H ) :   0.9769
B(  6-C , 11-H ) :   0.9717 B(  7-O ,  8-H ) :   0.8997

Dispersion correction           -0.000231797
FINAL SINGLE POINT ENERGY      -115.735500399049

DIPOLE MOMENT
-------------
                                X             Y             Z
Electronic contribution:     -1.11037       1.15878      -1.01690
Nuclear contribution   :      1.20719      -1.77489       0.88143
                        -----------------------------------------
Total Dipole Moment    :      0.09682      -0.61610      -0.13547
                        -----------------------------------------
Magnitude (a.u.)       :      0.63820
Magnitude (Debye)      :      1.62219

Rotational constants in cm-1:     4.342464     0.873907     0.836093
Rotational constants in MHz : 130183.783328 26199.075379 25065.425069

                             ****ORCA TERMINATED NORMALLY****
TOTAL RUN TIME: 0 days 0 hours 1 minutes 4 seconds 564 msec
