                         Program Version 4.1.2  - RELEASE  -
|  1> #Run DFT-D3 single point of the dimer
|  2> ! wB97X-D3 def2-TZVP TIGHTSCF CHELPG PMODEL PAL8
|  3>
|  4> %base "9-132_DFT_AB"
|  5>
|  6> %scf
|  7> MaxIter 1000
|  8> end
|  9>
| 10> * xyz 0 1
| 11>   C                      3.579629             8.937106             8.769352
| 12>   O                      4.024011             9.179831             7.436745
| 13>   H                      4.437202             8.392285             7.075693
| 14>   H                      3.770762             9.820385             9.402602
| 15>   H                      2.595479             8.630090             8.898085
| 16>   H                      4.210503             8.153010             9.170169
| 17>   C                      4.823407             6.457633             5.336285
| 18>   O                      5.234657             6.704060             6.722181
| 19>   H                      5.750520             5.894324             6.932486
| 20>   H                      4.385265             5.492615             5.242397
| 21>   H                      4.031046             7.194528             5.045944
| 22>   H                      5.549164             6.567344             4.508106
| 23> *
| 24>
| 25> #Run DFT-D3 single point of the molecule with dimer basis set
| 26> $new_job
| 27> %base "9-132_DFT_A"
| 28> ! wB97X-D3 def2-TZVP TIGHTSCF CHELPG PMODEL
| 29>
| 30> %scf
| 31> MaxIter 1000
| 32> end
| 33>
| 34> * xyz 0 1
| 35>   C                      3.579629             8.937106             8.769352
| 36>   O                      4.024011             9.179831             7.436745
| 37>   H                      4.437202             8.392285             7.075693
| 38>   H                      3.770762             9.820385             9.402602
| 39>   H                      2.595479             8.630090             8.898085
| 40>   H                      4.210503             8.153010             9.170169
| 41>   C                    : 4.823407             6.457633             5.336285
| 42>   O                    : 5.234657             6.704060             6.722181
| 43>   H                    : 5.750520             5.894324             6.932486
| 44>   H                    : 4.385265             5.492615             5.242397
| 45>   H                    : 4.031046             7.194528             5.045944
| 46>   H                    : 5.549164             6.567344             4.508106
| 47> *
| 48>
| 49> #Run DFT-D3 single point of the particle with dimer basis set
| 50> $new_job
| 51> %base "9-132_DFT_B"
| 52> ! wB97X-D3 def2-TZVP TIGHTSCF CHELPG PMODEL
| 53>
| 54> %scf
| 55> MaxIter 1000
| 56> end
| 57>
| 58> * xyz 0 1
| 59>   C                    : 3.579629             8.937106             8.769352
| 60>   O                    : 4.024011             9.179831             7.436745
| 61>   H                    : 4.437202             8.392285             7.075693
| 62>   H                    : 3.770762             9.820385             9.402602
| 63>   H                    : 2.595479             8.630090             8.898085
| 64>   H                    : 4.210503             8.153010             9.170169
| 65>   C                      4.823407             6.457633             5.336285
| 66>   O                      5.234657             6.704060             6.722181
| 67>   H                      5.750520             5.894324             6.932486
| 68>   H                      4.385265             5.492615             5.242397
| 69>   H                      4.031046             7.194528             5.045944
| 70>   H                      5.549164             6.567344             4.508106
| 71> *
| 72>
| 73>                          ****END OF INPUT****
 Total Charge           Charge          ....    0
 Multiplicity           Mult            ....    1
 Number of Electrons    NEL             ....   36
Dispersion correction           -0.001825149
FINAL SINGLE POINT ENERGY      -231.469405781043
Dispersion correction           -0.000244850
FINAL SINGLE POINT ENERGY      -115.732109627777

CARTESIAN COORDINATES (ANGSTROEM)
---------------------------------
  C      3.579629    8.937106    8.769352
  O      4.024011    9.179831    7.436745
  H      4.437202    8.392285    7.075693
  H      3.770762    9.820385    9.402602
  H      2.595479    8.630090    8.898085
  H      4.210503    8.153010    9.170169
  C      4.823407    6.457633    5.336285
  O      5.234657    6.704060    6.722181
  H      5.750520    5.894324    6.932486
  H      4.385265    5.492615    5.242397
  H      4.031046    7.194528    5.045944
  H      5.549164    6.567344    4.508106

 Multiplicity           Mult            ....    1
 Number of Electrons    NEL             ....   18
 Basis Dimension        Dim             ....  172

ORBITAL ENERGIES
----------------

  NO   OCC          E(Eh)            E(eV)
   0   2.0000     -19.239877      -523.5437
   1   2.0000     -10.318507      -280.7809
   2   2.0000      -1.122955       -30.5572
   3   2.0000      -0.796308       -21.6686
   4   2.0000      -0.601437       -16.3659
   5   2.0000      -0.538293       -14.6477
   6   2.0000      -0.514154       -13.9908
   7   2.0000      -0.443099       -12.0573
   8   2.0000      -0.379662       -10.3311
   9   0.0000       0.099727         2.7137
  10   0.0000       0.124199         3.3796
  11   0.0000       0.143624         3.9082
  12   0.0000       0.181853         4.9485
  13   0.0000       0.206531         5.6200

MULLIKEN ATOMIC CHARGES
-----------------------
   0 C :    0.003031
   1 O :    0.001121
   2 H :   -0.007652
   3 H :   -0.000274
   4 H :   -0.000328
   5 H :   -0.004202
   6 C :   -0.194744
   7 O :   -0.451599
   8 H :    0.309252
   9 H :    0.117136
  10 H :    0.121753
  11 H :    0.106505
Sum of atomic charges:   -0.0000000

LOEWDIN ATOMIC CHARGES
----------------------
   0 C :   -0.004708
   1 O :   -0.004252
   2 H :   -0.036388
   3 H :   -0.000047
   4 H :   -0.000088
   5 H :   -0.002540
   6 C :   -0.358796
   7 O :   -0.077927
   8 H :    0.180296
   9 H :    0.090686
  10 H :    0.116042
  11 H :    0.097720

  Mayer bond orders larger than 0.1
B(  6-C ,  7-O ) :   1.0026 B(  6-C ,  9-H ) :   0.9766 B(  6-C , 10-H ) :   0.9810
B(  6-C , 11-H ) :   0.9612 B(  7-O ,  8-H ) :   0.9003

Dispersion correction           -0.000276387
FINAL SINGLE POINT ENERGY      -115.730141781569

DIPOLE MOMENT
-------------
                                X             Y             Z
Electronic contribution:      0.54984       0.40768       1.83108
Nuclear contribution   :     -0.42135      -1.01870      -2.27202
                        -----------------------------------------
Total Dipole Moment    :      0.12849      -0.61102      -0.44094
                        -----------------------------------------
Magnitude (a.u.)       :      0.76438
Magnitude (Debye)      :      1.94290

Rotational constants in cm-1:     4.330959     0.777930     0.747572
Rotational constants in MHz : 129838.897893 23321.769323 22411.630437

                             ****ORCA TERMINATED NORMALLY****
TOTAL RUN TIME: 0 days 0 hours 0 minutes 45 seconds 530 msec
