                         Program Version 4.1.2  - RELEASE  -
|  1> #Run DFT geometry optimization
|  2> ! wB97X-D3 def2-TZVP TIGHTSCF Grid5 FinalGrid6 Opt CHELPG PAL4
|  3>
|  4> %base "10_geo_opt"
|  5> %geom MaxIter 500
|  6> end
|  7>
|  8> %geom
|  9>   Constraints
| 10>     { A 5 0 4 C }
| 11>   end
| 12> end
| 13>
| 14>
| 15> * xyz 0 1
| 16>   C                    3.011308             -1.180897            0.598492
| 17>   O                    4.394673             -1.128050            0.874308
| 18>   H                    4.772196             -0.379022            0.412493
| 19>   H                    2.806434             -1.318965            -0.469350
| 20>   H                    2.608658             -2.037398            1.138250
| 21>   H                    2.482159             -0.287184            0.948638
| 22> *
| 23>
| 24>                          ****END OF INPUT****
 Total Charge           Charge          ....    0
 Multiplicity           Mult            ....    1
 Number of Electrons    NEL             ....   18
Dispersion correction           -0.000239836
FINAL SINGLE POINT ENERGY      -115.738045089931
Dispersion correction            ... done
                    ***********************HURRAY********************

CARTESIAN COORDINATES (ANGSTROEM)
---------------------------------
  C      3.011505   -1.180951    0.598303
  O      4.394522   -1.128105    0.874334
  H      4.771965   -0.378945    0.412702
  H      2.806182   -1.319045   -0.469287
  H      2.608785   -2.037455    1.138238
  H      2.482469   -0.287015    0.948542

 Multiplicity           Mult            ....    1
 Number of Electrons    NEL             ....   18
 Basis Dimension        Dim             ....   86

ORBITAL ENERGIES
----------------

  NO   OCC          E(Eh)            E(eV)
   0   2.0000     -19.228199      -523.2259
   1   2.0000     -10.315090      -280.6879
   2   2.0000      -1.136936       -30.9376
   3   2.0000      -0.795395       -21.6438
   4   2.0000      -0.611585       -16.6421
   5   2.0000      -0.541936       -14.7468
   6   2.0000      -0.526353       -14.3228
   7   2.0000      -0.433616       -11.7993
   8   2.0000      -0.373732       -10.1698
   9   0.0000       0.116706         3.1757
  10   0.0000       0.156552         4.2600
  11   0.0000       0.202654         5.5145
  12   0.0000       0.205188         5.5835
  13   0.0000       0.226314         6.1583

MULLIKEN ATOMIC CHARGES
-----------------------
   0 C :   -0.151066
   1 O :   -0.477460
   2 H :    0.313117
   3 H :    0.098778
   4 H :    0.118099
   5 H :    0.098531
Sum of atomic charges:    0.0000000

LOEWDIN ATOMIC CHARGES
----------------------
   0 C :   -0.385622
   1 O :   -0.075743
   2 H :    0.165880
   3 H :    0.093419
   4 H :    0.108669
   5 H :    0.093398

  Mayer bond orders larger than 0.1
B(  0-C ,  1-O ) :   0.9990 B(  0-C ,  3-H ) :   0.9755 B(  0-C ,  4-H ) :   0.9749
B(  0-C ,  5-H ) :   0.9755 B(  1-O ,  2-H ) :   0.9001

Dispersion correction           -0.000239726
FINAL SINGLE POINT ENERGY      -115.738045382600

DIPOLE MOMENT
-------------
                                X             Y             Z
Electronic contribution:      1.76059      -0.02850       0.41590
Nuclear contribution   :     -2.07026       0.47623      -0.81273
                        -----------------------------------------
Total Dipole Moment    :     -0.30967       0.44773      -0.39682
                        -----------------------------------------
Magnitude (a.u.)       :      0.67367
Magnitude (Debye)      :      1.71233

Rotational constants in cm-1:     4.296719     0.833572     0.804995
Rotational constants in MHz : 128812.381636 24989.853535 24133.130178

                             ****ORCA TERMINATED NORMALLY****
TOTAL RUN TIME: 0 days 0 hours 0 minutes 35 seconds 393 msec
