                         Program Version 4.1.2  - RELEASE  -
|  1> #Run DFT-D3 single point of the dimer
|  2> ! wB97X-D3 def2-TZVP TIGHTSCF CHELPG PMODEL PAL8
|  3>
|  4> %base "22-182_DFT_AB"
|  5>
|  6> %scf
|  7> MaxIter 1000
|  8> end
|  9>
| 10> * xyz 0 1
| 11>   C                      -9.665503            -0.198202            1.765964
| 12>   O                      -8.653392            0.652441             1.222049
| 13>   H                      -7.938481            0.685364             1.859713
| 14>   H                      -10.419255           -0.264382            0.990156
| 15>   H                      -9.288481            -1.229895            1.780120
| 16>   H                      -10.088731           0.192472             2.753794
| 17>   C                      -9.900357            2.853123             -1.111949
| 18>   O                      -8.766684            3.144909             -0.341812
| 19>   H                      -8.696717            2.494082             0.361125
| 20>   H                      -9.710659            2.398470             -2.115626
| 21>   H                      -10.564443           2.097338             -0.666892
| 22>   H                      -10.546540           3.699203             -1.270643
| 23> *
| 24>
| 25> #Run DFT-D3 single point of the molecule with dimer basis set
| 26> $new_job
| 27> %base "22-182_DFT_A"
| 28> ! wB97X-D3 def2-TZVP TIGHTSCF CHELPG PMODEL
| 29>
| 30> %scf
| 31> MaxIter 1000
| 32> end
| 33>
| 34> * xyz 0 1
| 35>   C                      -9.665503            -0.198202            1.765964
| 36>   O                      -8.653392            0.652441             1.222049
| 37>   H                      -7.938481            0.685364             1.859713
| 38>   H                      -10.419255           -0.264382            0.990156
| 39>   H                      -9.288481            -1.229895            1.780120
| 40>   H                      -10.088731           0.192472             2.753794
| 41>   C                    : -9.900357            2.853123             -1.111949
| 42>   O                    : -8.766684            3.144909             -0.341812
| 43>   H                    : -8.696717            2.494082             0.361125
| 44>   H                    : -9.710659            2.398470             -2.115626
| 45>   H                    : -10.564443           2.097338             -0.666892
| 46>   H                    : -10.546540           3.699203             -1.270643
| 47> *
| 48>
| 49> #Run DFT-D3 single point of the particle with dimer basis set
| 50> $new_job
| 51> %base "22-182_DFT_B"
| 52> ! wB97X-D3 def2-TZVP TIGHTSCF CHELPG PMODEL
| 53>
| 54> %scf
| 55> MaxIter 1000
| 56> end
| 57>
| 58> * xyz 0 1
| 59>   C                    : -9.665503            -0.198202            1.765964
| 60>   O                    : -8.653392            0.652441             1.222049
| 61>   H                    : -7.938481            0.685364             1.859713
| 62>   H                    : -10.419255           -0.264382            0.990156
| 63>   H                    : -9.288481            -1.229895            1.780120
| 64>   H                    : -10.088731           0.192472             2.753794
| 65>   C                      -9.900357            2.853123             -1.111949
| 66>   O                      -8.766684            3.144909             -0.341812
| 67>   H                      -8.696717            2.494082             0.361125
| 68>   H                      -9.710659            2.398470             -2.115626
| 69>   H                      -10.564443           2.097338             -0.666892
| 70>   H                      -10.546540           3.699203             -1.270643
| 71> *
| 72>
| 73>                          ****END OF INPUT****
 Total Charge           Charge          ....    0
 Multiplicity           Mult            ....    1
 Number of Electrons    NEL             ....   36
Dispersion correction           -0.001871735
FINAL SINGLE POINT ENERGY      -231.474694900460
Dispersion correction           -0.000248140
FINAL SINGLE POINT ENERGY      -115.733475015836

CARTESIAN COORDINATES (ANGSTROEM)
---------------------------------
  C     -9.665503   -0.198202    1.765964
  O     -8.653392    0.652441    1.222049
  H     -7.938481    0.685364    1.859713
  H    -10.419255   -0.264382    0.990156
  H     -9.288481   -1.229895    1.780120
  H    -10.088731    0.192472    2.753794
  C     -9.900357    2.853123   -1.111949
  O     -8.766684    3.144909   -0.341812
  H     -8.696717    2.494082    0.361125
  H     -9.710659    2.398470   -2.115626
  H    -10.564443    2.097338   -0.666892
  H    -10.546540    3.699203   -1.270643

 Multiplicity           Mult            ....    1
 Number of Electrons    NEL             ....   18
 Basis Dimension        Dim             ....  172

ORBITAL ENERGIES
----------------

  NO   OCC          E(Eh)            E(eV)
   0   2.0000     -19.235184      -523.4160
   1   2.0000     -10.313945      -280.6567
   2   2.0000      -1.142000       -31.0754
   3   2.0000      -0.797386       -21.6980
   4   2.0000      -0.619836       -16.8666
   5   2.0000      -0.538618       -14.6566
   6   2.0000      -0.528119       -14.3708
   7   2.0000      -0.431078       -11.7302
   8   2.0000      -0.375930       -10.2296
   9   0.0000       0.067244         1.8298
  10   0.0000       0.134499         3.6599
  11   0.0000       0.138719         3.7747
  12   0.0000       0.174174         4.7395
  13   0.0000       0.188117         5.1189

MULLIKEN ATOMIC CHARGES
-----------------------
   0 C :   -0.001113
   1 O :   -0.004269
   2 H :   -0.000551
   3 H :   -0.000089
   4 H :    0.000003
   5 H :    0.000056
   6 C :   -0.176772
   7 O :   -0.463219
   8 H :    0.320801
   9 H :    0.100600
  10 H :    0.105862
  11 H :    0.118692
Sum of atomic charges:    0.0000000

LOEWDIN ATOMIC CHARGES
----------------------
   0 C :   -0.002490
   1 O :   -0.016150
   2 H :   -0.001586
   3 H :   -0.001041
   4 H :   -0.000043
   5 H :   -0.000038
   6 C :   -0.401960
   7 O :   -0.053676
   8 H :    0.178910
   9 H :    0.101088
  10 H :    0.098521
  11 H :    0.098466

  Mayer bond orders larger than 0.1
B(  6-C ,  7-O ) :   1.0058 B(  6-C ,  9-H ) :   0.9703 B(  6-C , 10-H ) :   0.9822
B(  6-C , 11-H ) :   0.9769 B(  7-O ,  8-H ) :   0.9029

Dispersion correction           -0.000263408
FINAL SINGLE POINT ENERGY      -115.733154951573

DIPOLE MOMENT
-------------
                                X             Y             Z
Electronic contribution:      1.63629       0.60020       0.99843
Nuclear contribution   :     -2.04777      -1.13752      -0.81790
                        -----------------------------------------
Total Dipole Moment    :     -0.41147      -0.53731       0.18053
                        -----------------------------------------
Magnitude (a.u.)       :      0.70043
Magnitude (Debye)      :      1.78036

Rotational constants in cm-1:     4.469201     0.825005     0.799093
Rotational constants in MHz : 133983.261519 24733.030876 23956.218226

                             ****ORCA TERMINATED NORMALLY****
TOTAL RUN TIME: 0 days 0 hours 1 minutes 7 seconds 485 msec
