                         Program Version 4.1.2  - RELEASE  -
|  1> #Run DFT-D3 single point of the dimer
|  2> ! wB97X-D3 def2-TZVP TIGHTSCF CHELPG PMODEL PAL8
|  3>
|  4> %base "10-167_DFT_AB"
|  5>
|  6> %scf
|  7> MaxIter 1000
|  8> end
|  9>
| 10> * xyz 0 1
| 11>   C                      -5.550638            -1.771051            -1.060697
| 12>   O                      -4.211625            -1.399807            -0.899603
| 13>   H                      -4.270984            -0.495730            -0.560299
| 14>   H                      -6.043490            -1.981702            -0.062435
| 15>   H                      -6.039602            -0.992687            -1.678579
| 16>   H                      -5.596667            -2.756360            -1.464270
| 17>   C                      -3.499681            2.664126             -0.479664
| 18>   O                      -3.595087            1.307318             -0.928213
| 19>   H                      -3.280521            1.186951             -1.856671
| 20>   H                      -3.576374            2.811412             0.626187
| 21>   H                      -2.640131            3.106856             -0.822651
| 22>   H                      -4.172829            3.293708             -1.081631
| 23> *
| 24>
| 25> #Run DFT-D3 single point of the molecule with dimer basis set
| 26> $new_job
| 27> %base "10-167_DFT_A"
| 28> ! wB97X-D3 def2-TZVP TIGHTSCF CHELPG PMODEL
| 29>
| 30> %scf
| 31> MaxIter 1000
| 32> end
| 33>
| 34> * xyz 0 1
| 35>   C                      -5.550638            -1.771051            -1.060697
| 36>   O                      -4.211625            -1.399807            -0.899603
| 37>   H                      -4.270984            -0.495730            -0.560299
| 38>   H                      -6.043490            -1.981702            -0.062435
| 39>   H                      -6.039602            -0.992687            -1.678579
| 40>   H                      -5.596667            -2.756360            -1.464270
| 41>   C                    : -3.499681            2.664126             -0.479664
| 42>   O                    : -3.595087            1.307318             -0.928213
| 43>   H                    : -3.280521            1.186951             -1.856671
| 44>   H                    : -3.576374            2.811412             0.626187
| 45>   H                    : -2.640131            3.106856             -0.822651
| 46>   H                    : -4.172829            3.293708             -1.081631
| 47> *
| 48>
| 49> #Run DFT-D3 single point of the particle with dimer basis set
| 50> $new_job
| 51> %base "10-167_DFT_B"
| 52> ! wB97X-D3 def2-TZVP TIGHTSCF CHELPG PMODEL
| 53>
| 54> %scf
| 55> MaxIter 1000
| 56> end
| 57>
| 58> * xyz 0 1
| 59>   C                    : -5.550638            -1.771051            -1.060697
| 60>   O                    : -4.211625            -1.399807            -0.899603
| 61>   H                    : -4.270984            -0.495730            -0.560299
| 62>   H                    : -6.043490            -1.981702            -0.062435
| 63>   H                    : -6.039602            -0.992687            -1.678579
| 64>   H                    : -5.596667            -2.756360            -1.464270
| 65>   C                      -3.499681            2.664126             -0.479664
| 66>   O                      -3.595087            1.307318             -0.928213
| 67>   H                      -3.280521            1.186951             -1.856671
| 68>   H                      -3.576374            2.811412             0.626187
| 69>   H                      -2.640131            3.106856             -0.822651
| 70>   H                      -4.172829            3.293708             -1.081631
| 71> *
| 72>
| 73>                          ****END OF INPUT****
 Total Charge           Charge          ....    0
 Multiplicity           Mult            ....    1
 Number of Electrons    NEL             ....   36
Dispersion correction           -0.001473670
FINAL SINGLE POINT ENERGY      -231.462270019869
Dispersion correction           -0.000219690
FINAL SINGLE POINT ENERGY      -115.731324581805

CARTESIAN COORDINATES (ANGSTROEM)
---------------------------------
  C     -5.550638   -1.771051   -1.060697
  O     -4.211625   -1.399807   -0.899603
  H     -4.270984   -0.495730   -0.560299
  H     -6.043490   -1.981702   -0.062435
  H     -6.039602   -0.992687   -1.678579
  H     -5.596667   -2.756360   -1.464270
  C     -3.499681    2.664126   -0.479664
  O     -3.595087    1.307318   -0.928213
  H     -3.280521    1.186951   -1.856671
  H     -3.576374    2.811412    0.626187
  H     -2.640131    3.106856   -0.822651
  H     -4.172829    3.293708   -1.081631

 Multiplicity           Mult            ....    1
 Number of Electrons    NEL             ....   18
 Basis Dimension        Dim             ....  172

ORBITAL ENERGIES
----------------

  NO   OCC          E(Eh)            E(eV)
   0   2.0000     -19.230482      -523.2880
   1   2.0000     -10.311875      -280.6004
   2   2.0000      -1.122500       -30.5448
   3   2.0000      -0.801767       -21.8172
   4   2.0000      -0.614833       -16.7305
   5   2.0000      -0.536681       -14.6038
   6   2.0000      -0.521206       -14.1827
   7   2.0000      -0.434539       -11.8244
   8   2.0000      -0.366713        -9.9788
   9   0.0000       0.097023         2.6401
  10   0.0000       0.121857         3.3159
  11   0.0000       0.148866         4.0509
  12   0.0000       0.192820         5.2469
  13   0.0000       0.203488         5.5372

MULLIKEN ATOMIC CHARGES
-----------------------
   0 C :    0.001735
   1 O :    0.001080
   2 H :   -0.012607
   3 H :   -0.000220
   4 H :   -0.002470
   5 H :   -0.000195
   6 C :   -0.153352
   7 O :   -0.482508
   8 H :    0.318855
   9 H :    0.129883
  10 H :    0.107868
  11 H :    0.091929
Sum of atomic charges:   -0.0000000

LOEWDIN ATOMIC CHARGES
----------------------
   0 C :   -0.002529
   1 O :   -0.007674
   2 H :   -0.039910
   3 H :   -0.000025
   4 H :   -0.001063
   5 H :   -0.000040
   6 C :   -0.367705
   7 O :   -0.064777
   8 H :    0.185753
   9 H :    0.117840
  10 H :    0.081540
  11 H :    0.098591

  Mayer bond orders larger than 0.1
B(  6-C ,  7-O ) :   0.9864 B(  6-C ,  9-H ) :   0.9703 B(  6-C , 10-H ) :   0.9782
B(  6-C , 11-H ) :   0.9786 B(  7-O ,  8-H ) :   0.8866

Dispersion correction           -0.000247853
FINAL SINGLE POINT ENERGY      -115.723242480559

DIPOLE MOMENT
-------------
                                X             Y             Z
Electronic contribution:     -0.15040      -1.79384      -0.26576
Nuclear contribution   :      0.44762       2.32118      -0.15963
                        -----------------------------------------
Total Dipole Moment    :      0.29722       0.52735      -0.42539
                        -----------------------------------------
Magnitude (a.u.)       :      0.73986
Magnitude (Debye)      :      1.88058

Rotational constants in cm-1:     4.447648     0.814514     0.768468
Rotational constants in MHz : 133337.130857 24418.500607 23038.079783

                             ****ORCA TERMINATED NORMALLY****
TOTAL RUN TIME: 0 days 0 hours 1 minutes 3 seconds 786 msec
