                         Program Version 4.1.2  - RELEASE  -
|  1> #Run DFT-D3 single point of the dimer
|  2> ! wB97X-D3 def2-TZVP TIGHTSCF  CHELPG PAL8
|  3>
|  4> %base "136_charges"
|  5>
|  6> %scf
|  7> MaxIter 1000
|  8> end
|  9> %output
| 10>   Print[ P_Mayer ] 1
| 11>   Print[ P_NatPop ] 1
| 12>   Print[ P_Hirshfeld ] 1
| 13>   Print[ P_Mulliken ] 1
| 14>   Print [ P_Loewdin ] 1
| 15> end
| 16>
| 17> * xyz 0 1
| 18>   C                      11.570943            1.338819             -9.715413
| 19>   O                      11.571002            2.557728             -10.509987
| 20>   H                      12.360266            2.550844             -11.080997
| 21>   H                      10.635606            1.300332             -9.064699
| 22>   H                      11.598324            0.446032             -10.312189
| 23>   H                      12.452207            1.194146             -9.113946
| 24> *
| 25>
| 26>                          ****END OF INPUT****

CARTESIAN COORDINATES (ANGSTROEM)
---------------------------------
  C     11.570943    1.338819   -9.715413
  O     11.571002    2.557728  -10.509987
  H     12.360266    2.550844  -11.080997
  H     10.635606    1.300332   -9.064699
  H     11.598324    0.446032  -10.312189
  H     12.452207    1.194146   -9.113946

 Total Charge           Charge          ....    0
 Multiplicity           Mult            ....    1
 Number of Electrons    NEL             ....   18
 Basis Dimension        Dim             ....   86

ORBITAL ENERGIES
----------------

  NO   OCC          E(Eh)            E(eV)
   0   2.0000     -19.233350      -523.3661
   1   2.0000     -10.317635      -280.7571
   2   2.0000      -1.121751       -30.5244
   3   2.0000      -0.797394       -21.6982
   4   2.0000      -0.608820       -16.5668
   5   2.0000      -0.529234       -14.4012
   6   2.0000      -0.518119       -14.0987
   7   2.0000      -0.440760       -11.9937
   8   2.0000      -0.374179       -10.1819
   9   0.0000       0.113942         3.1005
  10   0.0000       0.148626         4.0443
  11   0.0000       0.195143         5.3101
  12   0.0000       0.208201         5.6654
  13   0.0000       0.225731         6.1424

MULLIKEN ATOMIC CHARGES
-----------------------
   0 C :   -0.175037
   1 O :   -0.479692
   2 H :    0.313661
   3 H :    0.125432
   4 H :    0.106421
   5 H :    0.109215
Sum of atomic charges:    0.0000000

LOEWDIN ATOMIC CHARGES
----------------------
   0 C :   -0.363684
   1 O :   -0.110919
   2 H :    0.173422
   3 H :    0.120335
   4 H :    0.090009
   5 H :    0.090836

  Mayer bond orders larger than 0.1
B(  0-C ,  1-O ) :   0.9959 B(  0-C ,  3-H ) :   0.9728 B(  0-C ,  4-H ) :   0.9744
B(  0-C ,  5-H ) :   0.9711 B(  1-O ,  2-H ) :   0.8979

Dispersion correction           -0.000268170
FINAL SINGLE POINT ENERGY      -115.731518591885

DIPOLE MOMENT
-------------
                                X             Y             Z
Electronic contribution:     -0.11388       1.63326      -0.93805
Nuclear contribution   :      0.62498      -2.16340       0.90087
                        -----------------------------------------
Total Dipole Moment    :      0.51111      -0.53013      -0.03719
                        -----------------------------------------
Magnitude (a.u.)       :      0.73733
Magnitude (Debye)      :      1.87415

Rotational constants in cm-1:     4.327446     0.791546     0.751032
Rotational constants in MHz : 129733.562971 23729.960360 22515.379106

                             ****ORCA TERMINATED NORMALLY****
TOTAL RUN TIME: 0 days 0 hours 0 minutes 40 seconds 792 msec
