                         Program Version 4.1.2  - RELEASE  -
|  1> #Run DFT geometry optimization
|  2> ! wB97X-D3 def2-TZVP TIGHTSCF Grid5 FinalGrid6 Opt CHELPG PAL4
|  3>
|  4> %base "3_geo_opt"
|  5> %geom MaxIter 500
|  6> end
|  7>
|  8> %geom
|  9>   Constraints
| 10>     { A 5 0 4 C }
| 11>   end
| 12> end
| 13>
| 14>
| 15> * xyz 0 1
| 16>   C                    3.011308             -1.180897            0.598492
| 17>   O                    4.394673             -1.128050            0.874308
| 18>   H                    4.772196             -0.379022            0.412493
| 19>   H                    2.806434             -1.318965            -0.469350
| 20>   H                    2.612824             -2.041407            1.134955
| 21>   H                    2.485799             -0.283419            0.944466
| 22> *
| 23>
| 24>                          ****END OF INPUT****
 Total Charge           Charge          ....    0
 Multiplicity           Mult            ....    1
 Number of Electrons    NEL             ....   18
Dispersion correction           -0.000239041
FINAL SINGLE POINT ENERGY      -115.738050211927
Dispersion correction            ... done
                    ***********************HURRAY********************

CARTESIAN COORDINATES (ANGSTROEM)
---------------------------------
  C      3.011288   -1.180920    0.598627
  O      4.394755   -1.127998    0.874265
  H      4.772259   -0.379007    0.412397
  H      2.806547   -1.318943   -0.469316
  H      2.612651   -2.041402    1.134911
  H      2.485733   -0.283490    0.944480

 Multiplicity           Mult            ....    1
 Number of Electrons    NEL             ....   18
 Basis Dimension        Dim             ....   86

ORBITAL ENERGIES
----------------

  NO   OCC          E(Eh)            E(eV)
   0   2.0000     -19.228037      -523.2215
   1   2.0000     -10.315116      -280.6886
   2   2.0000      -1.136762       -30.9329
   3   2.0000      -0.795325       -21.6419
   4   2.0000      -0.611606       -16.6426
   5   2.0000      -0.541712       -14.7407
   6   2.0000      -0.526323       -14.3220
   7   2.0000      -0.433862       -11.8060
   8   2.0000      -0.373552       -10.1649
   9   0.0000       0.116618         3.1733
  10   0.0000       0.156726         4.2647
  11   0.0000       0.202547         5.5116
  12   0.0000       0.205086         5.5807
  13   0.0000       0.226396         6.1605

MULLIKEN ATOMIC CHARGES
-----------------------
   0 C :   -0.150767
   1 O :   -0.477703
   2 H :    0.312973
   3 H :    0.098562
   4 H :    0.118275
   5 H :    0.098661
Sum of atomic charges:   -0.0000000

LOEWDIN ATOMIC CHARGES
----------------------
   0 C :   -0.385020
   1 O :   -0.076201
   2 H :    0.165744
   3 H :    0.093388
   4 H :    0.108695
   5 H :    0.093394

  Mayer bond orders larger than 0.1
B(  0-C ,  1-O ) :   0.9985 B(  0-C ,  3-H ) :   0.9755 B(  0-C ,  4-H ) :   0.9749
B(  0-C ,  5-H ) :   0.9755 B(  1-O ,  2-H ) :   0.9002

Dispersion correction           -0.000239071
FINAL SINGLE POINT ENERGY      -115.738050270766

DIPOLE MOMENT
-------------
                                X             Y             Z
Electronic contribution:      1.75419      -0.02816       0.42143
Nuclear contribution   :     -2.06401       0.47567      -0.81938
                        -----------------------------------------
Total Dipole Moment    :     -0.30982       0.44751      -0.39796
                        -----------------------------------------
Magnitude (a.u.)       :      0.67426
Magnitude (Debye)      :      1.71383

Rotational constants in cm-1:     4.291497     0.833924     0.804902
Rotational constants in MHz : 128655.847744 25000.413634 24130.360661

                             ****ORCA TERMINATED NORMALLY****
TOTAL RUN TIME: 0 days 0 hours 0 minutes 35 seconds 401 msec
