                         Program Version 4.1.2  - RELEASE  -
|  1> #Run DFT-D3 single point of the dimer
|  2> ! wB97X-D3 def2-TZVP TIGHTSCF CHELPG PMODEL PAL8
|  3>
|  4> %base "2-19_DFT_AB"
|  5>
|  6> %scf
|  7> MaxIter 1000
|  8> end
|  9>
| 10> * xyz 0 1
| 11>   C                      3.461109             3.222378             4.105244
| 12>   O                      3.157580             2.071432             3.453058
| 13>   H                      2.370845             1.638740             3.819682
| 14>   H                      3.982423             3.051816             5.032330
| 15>   H                      4.203252             3.873688             3.594400
| 16>   H                      2.649209             3.897304             4.300673
| 17>   C                      0.388477             4.100360             7.695616
| 18>   O                      -0.947411            4.692757             7.944071
| 19>   H                      -1.091817            5.388982             7.292805
| 20>   H                      1.164795             4.910124             7.802517
| 21>   H                      0.723529             3.246645             8.329768
| 22>   H                      0.383064             3.620852             6.668489
| 23> *
| 24>
| 25> #Run DFT-D3 single point of the molecule with dimer basis set
| 26> $new_job
| 27> %base "2-19_DFT_A"
| 28> ! wB97X-D3 def2-TZVP TIGHTSCF CHELPG PMODEL
| 29>
| 30> %scf
| 31> MaxIter 1000
| 32> end
| 33>
| 34> * xyz 0 1
| 35>   C                      3.461109             3.222378             4.105244
| 36>   O                      3.157580             2.071432             3.453058
| 37>   H                      2.370845             1.638740             3.819682
| 38>   H                      3.982423             3.051816             5.032330
| 39>   H                      4.203252             3.873688             3.594400
| 40>   H                      2.649209             3.897304             4.300673
| 41>   C                    : 0.388477             4.100360             7.695616
| 42>   O                    : -0.947411            4.692757             7.944071
| 43>   H                    : -1.091817            5.388982             7.292805
| 44>   H                    : 1.164795             4.910124             7.802517
| 45>   H                    : 0.723529             3.246645             8.329768
| 46>   H                    : 0.383064             3.620852             6.668489
| 47> *
| 48>
| 49> #Run DFT-D3 single point of the particle with dimer basis set
| 50> $new_job
| 51> %base "2-19_DFT_B"
| 52> ! wB97X-D3 def2-TZVP TIGHTSCF CHELPG PMODEL
| 53>
| 54> %scf
| 55> MaxIter 1000
| 56> end
| 57>
| 58> * xyz 0 1
| 59>   C                    : 3.461109             3.222378             4.105244
| 60>   O                    : 3.157580             2.071432             3.453058
| 61>   H                    : 2.370845             1.638740             3.819682
| 62>   H                    : 3.982423             3.051816             5.032330
| 63>   H                    : 4.203252             3.873688             3.594400
| 64>   H                    : 2.649209             3.897304             4.300673
| 65>   C                      0.388477             4.100360             7.695616
| 66>   O                      -0.947411            4.692757             7.944071
| 67>   H                      -1.091817            5.388982             7.292805
| 68>   H                      1.164795             4.910124             7.802517
| 69>   H                      0.723529             3.246645             8.329768
| 70>   H                      0.383064             3.620852             6.668489
| 71> *
| 72>
| 73>                          ****END OF INPUT****
 Total Charge           Charge          ....    0
 Multiplicity           Mult            ....    1
 Number of Electrons    NEL             ....   36
Dispersion correction           -0.000963574
FINAL SINGLE POINT ENERGY      -231.457790828835
Dispersion correction           -0.000243364
FINAL SINGLE POINT ENERGY      -115.730891034999

CARTESIAN COORDINATES (ANGSTROEM)
---------------------------------
  C      3.461109    3.222378    4.105244
  O      3.157580    2.071432    3.453058
  H      2.370845    1.638740    3.819682
  H      3.982423    3.051816    5.032330
  H      4.203252    3.873688    3.594400
  H      2.649209    3.897304    4.300673
  C      0.388477    4.100360    7.695616
  O     -0.947411    4.692757    7.944071
  H     -1.091817    5.388982    7.292805
  H      1.164795    4.910124    7.802517
  H      0.723529    3.246645    8.329768
  H      0.383064    3.620852    6.668489

 Multiplicity           Mult            ....    1
 Number of Electrons    NEL             ....   18
 Basis Dimension        Dim             ....  172

ORBITAL ENERGIES
----------------

  NO   OCC          E(Eh)            E(eV)
   0   2.0000     -19.230764      -523.2957
   1   2.0000     -10.330571      -281.1091
   2   2.0000      -1.116105       -30.3708
   3   2.0000      -0.791874       -21.5480
   4   2.0000      -0.592265       -16.1164
   5   2.0000      -0.537386       -14.6230
   6   2.0000      -0.521639       -14.1945
   7   2.0000      -0.426446       -11.6042
   8   2.0000      -0.375465       -10.2169
   9   0.0000       0.079048         2.1510
  10   0.0000       0.114851         3.1252
  11   0.0000       0.141688         3.8555
  12   0.0000       0.155932         4.2431
  13   0.0000       0.188580         5.1315

MULLIKEN ATOMIC CHARGES
-----------------------
   0 C :    0.000374
   1 O :    0.000020
   2 H :   -0.000072
   3 H :   -0.000046
   4 H :   -0.000036
   5 H :   -0.000861
   6 C :   -0.185376
   7 O :   -0.485056
   8 H :    0.317013
   9 H :    0.112525
  10 H :    0.130535
  11 H :    0.110978
Sum of atomic charges:    0.0000000

LOEWDIN ATOMIC CHARGES
----------------------
   0 C :   -0.000489
   1 O :   -0.000006
   2 H :   -0.000055
   3 H :   -0.000037
   4 H :   -0.000005
   5 H :   -0.000569
   6 C :   -0.354743
   7 O :   -0.130572
   8 H :    0.166913
   9 H :    0.102792
  10 H :    0.112640
  11 H :    0.104130

  Mayer bond orders larger than 0.1
B(  6-C ,  7-O ) :   0.9867 B(  6-C ,  9-H ) :   0.9749 B(  6-C , 10-H ) :   0.9664
B(  6-C , 11-H ) :   0.9762 B(  7-O ,  8-H ) :   0.8974

Dispersion correction           -0.000286752
FINAL SINGLE POINT ENERGY      -115.726657605672

DIPOLE MOMENT
-------------
                                X             Y             Z
Electronic contribution:     -1.69972       0.64059       0.52081
Nuclear contribution   :      2.18644      -0.47846      -1.02836
                        -----------------------------------------
Total Dipole Moment    :      0.48671       0.16212      -0.50754
                        -----------------------------------------
Magnitude (a.u.)       :      0.72165
Magnitude (Debye)      :      1.83429

Rotational constants in cm-1:     4.180220     0.752482     0.737266
Rotational constants in MHz : 125319.854220 22558.831856 22102.672609

                             ****ORCA TERMINATED NORMALLY****
TOTAL RUN TIME: 0 days 0 hours 5 minutes 28 seconds 384 msec
