                         Program Version 4.1.2  - RELEASE  -
|  1> #Run DFT-D3 single point of the dimer
|  2> ! wB97X-D3 def2-TZVP TIGHTSCF CHELPG PMODEL PAL8
|  3>
|  4> %base "4-49_DFT_AB"
|  5>
|  6> %scf
|  7> MaxIter 1000
|  8> end
|  9>
| 10> * xyz 0 1
| 11>   C                      4.599833             1.923888             6.602593
| 12>   O                      3.786116             2.729609             7.484004
| 13>   H                      3.607876             3.440949             6.897519
| 14>   H                      5.455821             2.534420             6.223668
| 15>   H                      5.103900             1.124986             7.097621
| 16>   H                      4.070648             1.512387             5.743250
| 17>   C                      7.470692             6.028601             6.508345
| 18>   O                      7.339370             6.917307             7.588808
| 19>   H                      7.231223             7.717244             7.138052
| 20>   H                      7.922001             5.088984             6.804653
| 21>   H                      6.594084             5.881988             5.978503
| 22>   H                      8.218591             6.480001             5.812974
| 23> *
| 24>
| 25> #Run DFT-D3 single point of the molecule with dimer basis set
| 26> $new_job
| 27> %base "4-49_DFT_A"
| 28> ! wB97X-D3 def2-TZVP TIGHTSCF CHELPG PMODEL
| 29>
| 30> %scf
| 31> MaxIter 1000
| 32> end
| 33>
| 34> * xyz 0 1
| 35>   C                      4.599833             1.923888             6.602593
| 36>   O                      3.786116             2.729609             7.484004
| 37>   H                      3.607876             3.440949             6.897519
| 38>   H                      5.455821             2.534420             6.223668
| 39>   H                      5.103900             1.124986             7.097621
| 40>   H                      4.070648             1.512387             5.743250
| 41>   C                    : 7.470692             6.028601             6.508345
| 42>   O                    : 7.339370             6.917307             7.588808
| 43>   H                    : 7.231223             7.717244             7.138052
| 44>   H                    : 7.922001             5.088984             6.804653
| 45>   H                    : 6.594084             5.881988             5.978503
| 46>   H                    : 8.218591             6.480001             5.812974
| 47> *
| 48>
| 49> #Run DFT-D3 single point of the particle with dimer basis set
| 50> $new_job
| 51> %base "4-49_DFT_B"
| 52> ! wB97X-D3 def2-TZVP TIGHTSCF CHELPG PMODEL
| 53>
| 54> %scf
| 55> MaxIter 1000
| 56> end
| 57>
| 58> * xyz 0 1
| 59>   C                    : 4.599833             1.923888             6.602593
| 60>   O                    : 3.786116             2.729609             7.484004
| 61>   H                    : 3.607876             3.440949             6.897519
| 62>   H                    : 5.455821             2.534420             6.223668
| 63>   H                    : 5.103900             1.124986             7.097621
| 64>   H                    : 4.070648             1.512387             5.743250
| 65>   C                      7.470692             6.028601             6.508345
| 66>   O                      7.339370             6.917307             7.588808
| 67>   H                      7.231223             7.717244             7.138052
| 68>   H                      7.922001             5.088984             6.804653
| 69>   H                      6.594084             5.881988             5.978503
| 70>   H                      8.218591             6.480001             5.812974
| 71> *
| 72>
| 73>                          ****END OF INPUT****
 Total Charge           Charge          ....    0
 Multiplicity           Mult            ....    1
 Number of Electrons    NEL             ....   36
Dispersion correction           -0.000829876
FINAL SINGLE POINT ENERGY      -231.460620547216
Dispersion correction           -0.000234917
FINAL SINGLE POINT ENERGY      -115.731294012342

CARTESIAN COORDINATES (ANGSTROEM)
---------------------------------
  C      4.599833    1.923888    6.602593
  O      3.786116    2.729609    7.484004
  H      3.607876    3.440949    6.897519
  H      5.455821    2.534420    6.223668
  H      5.103900    1.124986    7.097621
  H      4.070648    1.512387    5.743250
  C      7.470692    6.028601    6.508345
  O      7.339370    6.917307    7.588808
  H      7.231223    7.717244    7.138052
  H      7.922001    5.088984    6.804653
  H      6.594084    5.881988    5.978503
  H      8.218591    6.480001    5.812974

 Multiplicity           Mult            ....    1
 Number of Electrons    NEL             ....   18
 Basis Dimension        Dim             ....  172

ORBITAL ENERGIES
----------------

  NO   OCC          E(Eh)            E(eV)
   0   2.0000     -19.227320      -523.2020
   1   2.0000     -10.307622      -280.4846
   2   2.0000      -1.151431       -31.3320
   3   2.0000      -0.798691       -21.7335
   4   2.0000      -0.616151       -16.7663
   5   2.0000      -0.552689       -15.0394
   6   2.0000      -0.530114       -14.4251
   7   2.0000      -0.439091       -11.9483
   8   2.0000      -0.375353       -10.2139
   9   0.0000       0.085084         2.3152
  10   0.0000       0.117905         3.2083
  11   0.0000       0.154545         4.2054
  12   0.0000       0.163740         4.4556
  13   0.0000       0.195566         5.3216

MULLIKEN ATOMIC CHARGES
-----------------------
   0 C :    0.000185
   1 O :   -0.000007
   2 H :    0.000012
   3 H :   -0.000359
   4 H :   -0.000017
   5 H :   -0.000006
   6 C :   -0.177413
   7 O :   -0.453545
   8 H :    0.308220
   9 H :    0.116524
  10 H :    0.109649
  11 H :    0.096756
Sum of atomic charges:    0.0000000

LOEWDIN ATOMIC CHARGES
----------------------
   0 C :   -0.000099
   1 O :   -0.000004
   2 H :   -0.000035
   3 H :   -0.000287
   4 H :   -0.000002
   5 H :   -0.000001
   6 C :   -0.384592
   7 O :   -0.052878
   8 H :    0.150267
   9 H :    0.106078
  10 H :    0.080819
  11 H :    0.100733

  Mayer bond orders larger than 0.1
B(  6-C ,  7-O ) :   0.9973 B(  6-C ,  9-H ) :   0.9742 B(  6-C , 10-H ) :   0.9695
B(  6-C , 11-H ) :   0.9927 B(  7-O ,  8-H ) :   0.9115

Dispersion correction           -0.000201177
FINAL SINGLE POINT ENERGY      -115.729385768729

DIPOLE MOMENT
-------------
                                X             Y             Z
Electronic contribution:     -0.33008       0.94785       1.55927
Nuclear contribution   :      0.31323      -0.79489      -2.26178
                        -----------------------------------------
Total Dipole Moment    :     -0.01684       0.15296      -0.70252
                        -----------------------------------------
Magnitude (a.u.)       :      0.71918
Magnitude (Debye)      :      1.82800

Rotational constants in cm-1:     4.396634     0.854316     0.823141
Rotational constants in MHz : 131807.771273 25611.741875 24677.136872

                             ****ORCA TERMINATED NORMALLY****
TOTAL RUN TIME: 0 days 0 hours 1 minutes 24 seconds 845 msec
