                         Program Version 4.1.2  - RELEASE  -
|  1> #Run DFT-D3 single point of the dimer
|  2> ! wB97X-D3 def2-TZVP TIGHTSCF CHELPG PMODEL PAL8
|  3>
|  4> %base "10-60_DFT_AB"
|  5>
|  6> %scf
|  7> MaxIter 1000
|  8> end
|  9>
| 10> * xyz 0 1
| 11>   C                      6.480167             4.850157             8.017725
| 12>   O                      6.846940             3.890680             7.044795
| 13>   H                      7.195709             4.304133             6.297054
| 14>   H                      7.306813             5.169564             8.669647
| 15>   H                      6.202793             5.826223             7.485602
| 16>   H                      5.554086             4.491351             8.572135
| 17>   C                      10.035032            1.912797             7.566019
| 18>   O                      10.625617            0.884139             8.383062
| 19>   H                      11.344601            1.395550             8.871001
| 20>   H                      9.740242             2.853017             8.070987
| 21>   H                      10.666540            2.061341             6.621544
| 22>   H                      9.065129             1.550886             7.220289
| 23> *
| 24>
| 25> #Run DFT-D3 single point of the molecule with dimer basis set
| 26> $new_job
| 27> %base "10-60_DFT_A"
| 28> ! wB97X-D3 def2-TZVP TIGHTSCF CHELPG PMODEL
| 29>
| 30> %scf
| 31> MaxIter 1000
| 32> end
| 33>
| 34> * xyz 0 1
| 35>   C                      6.480167             4.850157             8.017725
| 36>   O                      6.846940             3.890680             7.044795
| 37>   H                      7.195709             4.304133             6.297054
| 38>   H                      7.306813             5.169564             8.669647
| 39>   H                      6.202793             5.826223             7.485602
| 40>   H                      5.554086             4.491351             8.572135
| 41>   C                    : 10.035032            1.912797             7.566019
| 42>   O                    : 10.625617            0.884139             8.383062
| 43>   H                    : 11.344601            1.395550             8.871001
| 44>   H                    : 9.740242             2.853017             8.070987
| 45>   H                    : 10.666540            2.061341             6.621544
| 46>   H                    : 9.065129             1.550886             7.220289
| 47> *
| 48>
| 49> #Run DFT-D3 single point of the particle with dimer basis set
| 50> $new_job
| 51> %base "10-60_DFT_B"
| 52> ! wB97X-D3 def2-TZVP TIGHTSCF CHELPG PMODEL
| 53>
| 54> %scf
| 55> MaxIter 1000
| 56> end
| 57>
| 58> * xyz 0 1
| 59>   C                    : 6.480167             4.850157             8.017725
| 60>   O                    : 6.846940             3.890680             7.044795
| 61>   H                    : 7.195709             4.304133             6.297054
| 62>   H                    : 7.306813             5.169564             8.669647
| 63>   H                    : 6.202793             5.826223             7.485602
| 64>   H                    : 5.554086             4.491351             8.572135
| 65>   C                      10.035032            1.912797             7.566019
| 66>   O                      10.625617            0.884139             8.383062
| 67>   H                      11.344601            1.395550             8.871001
| 68>   H                      9.740242             2.853017             8.070987
| 69>   H                      10.666540            2.061341             6.621544
| 70>   H                      9.065129             1.550886             7.220289
| 71> *
| 72>
| 73>                          ****END OF INPUT****
 Total Charge           Charge          ....    0
 Multiplicity           Mult            ....    1
 Number of Electrons    NEL             ....   36
Dispersion correction           -0.001342078
FINAL SINGLE POINT ENERGY      -231.461334632115
Dispersion correction           -0.000255562
FINAL SINGLE POINT ENERGY      -115.730775966357

CARTESIAN COORDINATES (ANGSTROEM)
---------------------------------
  C      6.480167    4.850157    8.017725
  O      6.846940    3.890680    7.044795
  H      7.195709    4.304133    6.297054
  H      7.306813    5.169564    8.669647
  H      6.202793    5.826223    7.485602
  H      5.554086    4.491351    8.572135
  C     10.035032    1.912797    7.566019
  O     10.625617    0.884139    8.383062
  H     11.344601    1.395550    8.871001
  H      9.740242    2.853017    8.070987
  H     10.666540    2.061341    6.621544
  H      9.065129    1.550886    7.220289

 Multiplicity           Mult            ....    1
 Number of Electrons    NEL             ....   18
 Basis Dimension        Dim             ....  172

ORBITAL ENERGIES
----------------

  NO   OCC          E(Eh)            E(eV)
   0   2.0000     -19.238910      -523.5174
   1   2.0000     -10.320879      -280.8454
   2   2.0000      -1.124471       -30.5984
   3   2.0000      -0.787475       -21.4283
   4   2.0000      -0.596648       -16.2356
   5   2.0000      -0.540227       -14.7003
   6   2.0000      -0.517128       -14.0718
   7   2.0000      -0.435647       -11.8546
   8   2.0000      -0.376285       -10.2392
   9   0.0000       0.079163         2.1541
  10   0.0000       0.111215         3.0263
  11   0.0000       0.141716         3.8563
  12   0.0000       0.168074         4.5735
  13   0.0000       0.180221         4.9041

MULLIKEN ATOMIC CHARGES
-----------------------
   0 C :   -0.000234
   1 O :   -0.000240
   2 H :    0.000034
   3 H :   -0.000186
   4 H :    0.000005
   5 H :    0.000017
   6 C :   -0.180773
   7 O :   -0.462735
   8 H :    0.315830
   9 H :    0.109908
  10 H :    0.103620
  11 H :    0.114753
Sum of atomic charges:   -0.0000000

LOEWDIN ATOMIC CHARGES
----------------------
   0 C :   -0.000619
   1 O :   -0.000800
   2 H :   -0.000233
   3 H :   -0.000273
   4 H :   -0.000004
   5 H :   -0.000007
   6 C :   -0.391629
   7 O :   -0.112536
   8 H :    0.196670
   9 H :    0.098489
  10 H :    0.105750
  11 H :    0.105191

  Mayer bond orders larger than 0.1
B(  6-C ,  7-O ) :   1.0100 B(  6-C ,  9-H ) :   0.9669 B(  6-C , 10-H ) :   0.9722
B(  6-C , 11-H ) :   0.9760 B(  7-O ,  8-H ) :   0.8976

Dispersion correction           -0.000266440
FINAL SINGLE POINT ENERGY      -115.729326786759

DIPOLE MOMENT
-------------
                                X             Y             Z
Electronic contribution:      0.71109      -1.39554       1.08659
Nuclear contribution   :     -0.54785       2.09166      -1.09889
                        -----------------------------------------
Total Dipole Moment    :      0.16324       0.69612      -0.01231
                        -----------------------------------------
Magnitude (a.u.)       :      0.71511
Magnitude (Debye)      :      1.81766

Rotational constants in cm-1:     4.070854     0.797588     0.779214
Rotational constants in MHz : 122041.119420 23911.087400 23360.255348

                             ****ORCA TERMINATED NORMALLY****
TOTAL RUN TIME: 0 days 0 hours 1 minutes 5 seconds 747 msec
