                         Program Version 4.1.2  - RELEASE  -
|  1> #Run DFT-D3 single point of the dimer
|  2> ! wB97X-D3 def2-TZVP TIGHTSCF  CHELPG PAL8
|  3>
|  4> %base "65_charges"
|  5>
|  6> %scf
|  7> MaxIter 1000
|  8> end
|  9> %output
| 10>   Print[ P_Mayer ] 1
| 11>   Print[ P_NatPop ] 1
| 12>   Print[ P_Hirshfeld ] 1
| 13>   Print[ P_Mulliken ] 1
| 14>   Print [ P_Loewdin ] 1
| 15> end
| 16>
| 17> * xyz 0 1
| 18>   C                      -5.784589            4.450162             -9.959059
| 19>   O                      -4.460350            4.729790             -10.126337
| 20>   H                      -4.393100            5.655053             -10.400431
| 21>   H                      -6.103911            4.842514             -9.069139
| 22>   H                      -6.290612            4.907657             -10.788675
| 23>   H                      -5.924625            3.393748             -10.070137
| 24> *
| 25>
| 26>                          ****END OF INPUT****

CARTESIAN COORDINATES (ANGSTROEM)
---------------------------------
  C     -5.784589    4.450162   -9.959059
  O     -4.460350    4.729790  -10.126337
  H     -4.393100    5.655053  -10.400431
  H     -6.103911    4.842514   -9.069139
  H     -6.290612    4.907657  -10.788675
  H     -5.924625    3.393748  -10.070137

 Total Charge           Charge          ....    0
 Multiplicity           Mult            ....    1
 Number of Electrons    NEL             ....   18
 Basis Dimension        Dim             ....   86

ORBITAL ENERGIES
----------------

  NO   OCC          E(Eh)            E(eV)
   0   2.0000     -19.222990      -523.0842
   1   2.0000     -10.294654      -280.1318
   2   2.0000      -1.149379       -31.2762
   3   2.0000      -0.797208       -21.6931
   4   2.0000      -0.617686       -16.8081
   5   2.0000      -0.565338       -15.3836
   6   2.0000      -0.532884       -14.5005
   7   2.0000      -0.425807       -11.5868
   8   2.0000      -0.369549       -10.0559
   9   0.0000       0.113946         3.1006
  10   0.0000       0.166587         4.5331
  11   0.0000       0.204318         5.5598
  12   0.0000       0.214801         5.8450
  13   0.0000       0.229875         6.2552

MULLIKEN ATOMIC CHARGES
-----------------------
   0 C :   -0.133111
   1 O :   -0.475934
   2 H :    0.314266
   3 H :    0.095190
   4 H :    0.088929
   5 H :    0.110661
Sum of atomic charges:   -0.0000000

LOEWDIN ATOMIC CHARGES
----------------------
   0 C :   -0.404403
   1 O :   -0.049002
   2 H :    0.176550
   3 H :    0.078587
   4 H :    0.093023
   5 H :    0.105245

  Mayer bond orders larger than 0.1
B(  0-C ,  1-O ) :   0.9974 B(  0-C ,  3-H ) :   0.9806 B(  0-C ,  4-H ) :   0.9977
B(  0-C ,  5-H ) :   0.9728 B(  1-O ,  2-H ) :   0.8993

Dispersion correction           -0.000182384
FINAL SINGLE POINT ENERGY      -115.727636882428

DIPOLE MOMENT
-------------
                                X             Y             Z
Electronic contribution:      1.65652       0.18377      -0.03302
Nuclear contribution   :     -2.12226       0.29639      -0.09119
                        -----------------------------------------
Total Dipole Moment    :     -0.46574       0.48016      -0.12420
                        -----------------------------------------
Magnitude (a.u.)       :      0.68037
Magnitude (Debye)      :      1.72936

Rotational constants in cm-1:     4.398865     0.904968     0.870883
Rotational constants in MHz : 131874.664516 27130.264335 26108.411236

                             ****ORCA TERMINATED NORMALLY****
TOTAL RUN TIME: 0 days 0 hours 0 minutes 42 seconds 290 msec
