                         Program Version 4.1.2  - RELEASE  -
|  1> #Run DFT-D3 single point of the dimer
|  2> ! wB97X-D3 def2-TZVP TIGHTSCF CHELPG PMODEL PAL8
|  3>
|  4> %base "12-145_DFT_AB"
|  5>
|  6> %scf
|  7> MaxIter 1000
|  8> end
|  9>
| 10> * xyz 0 1
| 11>   C                      0.089987             -3.422612            -0.634549
| 12>   O                      0.445780             -4.147892            -1.754119
| 13>   H                      0.889978             -3.509935            -2.357126
| 14>   H                      -1.004363            -3.350308            -0.387464
| 15>   H                      0.526002             -3.938563            0.227510
| 16>   H                      0.405570             -2.373225            -0.646882
| 17>   C                      0.026086             -7.467812            -1.319933
| 18>   O                      -0.456187            -6.835393            -2.459542
| 19>   H                      -0.266209            -5.931733            -2.328146
| 20>   H                      -0.388058            -8.408634            -1.009427
| 21>   H                      1.091274             -7.603341            -1.404229
| 22>   H                      -0.205895            -6.768424            -0.509574
| 23> *
| 24>
| 25> #Run DFT-D3 single point of the molecule with dimer basis set
| 26> $new_job
| 27> %base "12-145_DFT_A"
| 28> ! wB97X-D3 def2-TZVP TIGHTSCF CHELPG PMODEL
| 29>
| 30> %scf
| 31> MaxIter 1000
| 32> end
| 33>
| 34> * xyz 0 1
| 35>   C                      0.089987             -3.422612            -0.634549
| 36>   O                      0.445780             -4.147892            -1.754119
| 37>   H                      0.889978             -3.509935            -2.357126
| 38>   H                      -1.004363            -3.350308            -0.387464
| 39>   H                      0.526002             -3.938563            0.227510
| 40>   H                      0.405570             -2.373225            -0.646882
| 41>   C                    : 0.026086             -7.467812            -1.319933
| 42>   O                    : -0.456187            -6.835393            -2.459542
| 43>   H                    : -0.266209            -5.931733            -2.328146
| 44>   H                    : -0.388058            -8.408634            -1.009427
| 45>   H                    : 1.091274             -7.603341            -1.404229
| 46>   H                    : -0.205895            -6.768424            -0.509574
| 47> *
| 48>
| 49> #Run DFT-D3 single point of the particle with dimer basis set
| 50> $new_job
| 51> %base "12-145_DFT_B"
| 52> ! wB97X-D3 def2-TZVP TIGHTSCF CHELPG PMODEL
| 53>
| 54> %scf
| 55> MaxIter 1000
| 56> end
| 57>
| 58> * xyz 0 1
| 59>   C                    : 0.089987             -3.422612            -0.634549
| 60>   O                    : 0.445780             -4.147892            -1.754119
| 61>   H                    : 0.889978             -3.509935            -2.357126
| 62>   H                    : -1.004363            -3.350308            -0.387464
| 63>   H                    : 0.526002             -3.938563            0.227510
| 64>   H                    : 0.405570             -2.373225            -0.646882
| 65>   C                      0.026086             -7.467812            -1.319933
| 66>   O                      -0.456187            -6.835393            -2.459542
| 67>   H                      -0.266209            -5.931733            -2.328146
| 68>   H                      -0.388058            -8.408634            -1.009427
| 69>   H                      1.091274             -7.603341            -1.404229
| 70>   H                      -0.205895            -6.768424            -0.509574
| 71> *
| 72>
| 73>                          ****END OF INPUT****
 Total Charge           Charge          ....    0
 Multiplicity           Mult            ....    1
 Number of Electrons    NEL             ....   36
Dispersion correction           -0.001926918
FINAL SINGLE POINT ENERGY      -231.468521432787
Dispersion correction           -0.000248658
FINAL SINGLE POINT ENERGY      -115.731360935248

CARTESIAN COORDINATES (ANGSTROEM)
---------------------------------
  C      0.089987   -3.422612   -0.634549
  O      0.445780   -4.147892   -1.754119
  H      0.889978   -3.509935   -2.357126
  H     -1.004363   -3.350308   -0.387464
  H      0.526002   -3.938563    0.227510
  H      0.405570   -2.373225   -0.646882
  C      0.026086   -7.467812   -1.319933
  O     -0.456187   -6.835393   -2.459542
  H     -0.266209   -5.931733   -2.328146
  H     -0.388058   -8.408634   -1.009427
  H      1.091274   -7.603341   -1.404229
  H     -0.205895   -6.768424   -0.509574

 Multiplicity           Mult            ....    1
 Number of Electrons    NEL             ....   18
 Basis Dimension        Dim             ....  172

ORBITAL ENERGIES
----------------

  NO   OCC          E(Eh)            E(eV)
   0   2.0000     -19.226706      -523.1853
   1   2.0000     -10.308163      -280.4994
   2   2.0000      -1.152058       -31.3491
   3   2.0000      -0.797978       -21.7141
   4   2.0000      -0.616359       -16.7720
   5   2.0000      -0.551392       -15.0041
   6   2.0000      -0.542004       -14.7487
   7   2.0000      -0.427493       -11.6327
   8   2.0000      -0.372875       -10.1464
   9   0.0000       0.067793         1.8447
  10   0.0000       0.137662         3.7460
  11   0.0000       0.144337         3.9276
  12   0.0000       0.166499         4.5307
  13   0.0000       0.193526         5.2661

MULLIKEN ATOMIC CHARGES
-----------------------
   0 C :   -0.000501
   1 O :   -0.004030
   2 H :   -0.000410
   3 H :   -0.000034
   4 H :   -0.000711
   5 H :    0.000024
   6 C :   -0.162511
   7 O :   -0.459815
   8 H :    0.313668
   9 H :    0.117209
  10 H :    0.101403
  11 H :    0.095707
Sum of atomic charges:   -0.0000000

LOEWDIN ATOMIC CHARGES
----------------------
   0 C :   -0.003329
   1 O :   -0.016323
   2 H :   -0.000919
   3 H :   -0.000129
   4 H :   -0.000705
   5 H :   -0.000045
   6 C :   -0.394135
   7 O :   -0.039185
   8 H :    0.161477
   9 H :    0.101444
  10 H :    0.092614
  11 H :    0.099235

  Mayer bond orders larger than 0.1
B(  6-C ,  7-O ) :   0.9869 B(  6-C ,  9-H ) :   0.9701 B(  6-C , 10-H ) :   0.9792
B(  6-C , 11-H ) :   0.9971 B(  7-O ,  8-H ) :   0.9149

Dispersion correction           -0.000206695
FINAL SINGLE POINT ENERGY      -115.728665200789

DIPOLE MOMENT
-------------
                                X             Y             Z
Electronic contribution:     -0.71144       0.55109      -1.61798
Nuclear contribution   :      1.00401      -0.23025       2.15018
                        -----------------------------------------
Total Dipole Moment    :      0.29257       0.32084       0.53220
                        -----------------------------------------
Magnitude (a.u.)       :      0.68685
Magnitude (Debye)      :      1.74584

Rotational constants in cm-1:     4.461503     0.859248     0.833333
Rotational constants in MHz : 133752.484446 25759.621440 24982.683326

                             ****ORCA TERMINATED NORMALLY****
TOTAL RUN TIME: 0 days 0 hours 1 minutes 16 seconds 252 msec
