                         Program Version 4.1.2  - RELEASE  -
|  1> #Run DFT-D3 single point of the dimer
|  2> ! wB97X-D3 def2-TZVP TIGHTSCF CHELPG PMODEL PAL8
|  3>
|  4> %base "12-103_DFT_AB"
|  5>
|  6> %scf
|  7> MaxIter 1000
|  8> end
|  9>
| 10> * xyz 0 1
| 11>   C                      7.069487             6.948817             1.348319
| 12>   O                      6.833436             7.462442             0.067141
| 13>   H                      6.469724             6.786522             -0.512093
| 14>   H                      6.543788             6.020128             1.325691
| 15>   H                      8.106300             6.629288             1.569079
| 16>   H                      6.689718             7.616708             2.082214
| 17>   C                      8.878527             2.589100             1.430638
| 18>   O                      8.758311             2.417038             2.792968
| 19>   H                      8.306362             1.577243             2.950855
| 20>   H                      9.159782             1.641444             0.939002
| 21>   H                      8.037784             3.001873             0.954655
| 22>   H                      9.620857             3.345827             1.223302
| 23> *
| 24>
| 25> #Run DFT-D3 single point of the molecule with dimer basis set
| 26> $new_job
| 27> %base "12-103_DFT_A"
| 28> ! wB97X-D3 def2-TZVP TIGHTSCF CHELPG PMODEL
| 29>
| 30> %scf
| 31> MaxIter 1000
| 32> end
| 33>
| 34> * xyz 0 1
| 35>   C                      7.069487             6.948817             1.348319
| 36>   O                      6.833436             7.462442             0.067141
| 37>   H                      6.469724             6.786522             -0.512093
| 38>   H                      6.543788             6.020128             1.325691
| 39>   H                      8.106300             6.629288             1.569079
| 40>   H                      6.689718             7.616708             2.082214
| 41>   C                    : 8.878527             2.589100             1.430638
| 42>   O                    : 8.758311             2.417038             2.792968
| 43>   H                    : 8.306362             1.577243             2.950855
| 44>   H                    : 9.159782             1.641444             0.939002
| 45>   H                    : 8.037784             3.001873             0.954655
| 46>   H                    : 9.620857             3.345827             1.223302
| 47> *
| 48>
| 49> #Run DFT-D3 single point of the particle with dimer basis set
| 50> $new_job
| 51> %base "12-103_DFT_B"
| 52> ! wB97X-D3 def2-TZVP TIGHTSCF CHELPG PMODEL
| 53>
| 54> %scf
| 55> MaxIter 1000
| 56> end
| 57>
| 58> * xyz 0 1
| 59>   C                    : 7.069487             6.948817             1.348319
| 60>   O                    : 6.833436             7.462442             0.067141
| 61>   H                    : 6.469724             6.786522             -0.512093
| 62>   H                    : 6.543788             6.020128             1.325691
| 63>   H                    : 8.106300             6.629288             1.569079
| 64>   H                    : 6.689718             7.616708             2.082214
| 65>   C                      8.878527             2.589100             1.430638
| 66>   O                      8.758311             2.417038             2.792968
| 67>   H                      8.306362             1.577243             2.950855
| 68>   H                      9.159782             1.641444             0.939002
| 69>   H                      8.037784             3.001873             0.954655
| 70>   H                      9.620857             3.345827             1.223302
| 71> *
| 72>
| 73>                          ****END OF INPUT****
 Total Charge           Charge          ....    0
 Multiplicity           Mult            ....    1
 Number of Electrons    NEL             ....   36
Dispersion correction           -0.000958084
FINAL SINGLE POINT ENERGY      -231.462584728074
Dispersion correction           -0.000230809
FINAL SINGLE POINT ENERGY      -115.728950500578

CARTESIAN COORDINATES (ANGSTROEM)
---------------------------------
  C      7.069487    6.948817    1.348319
  O      6.833436    7.462442    0.067141
  H      6.469724    6.786522   -0.512093
  H      6.543788    6.020128    1.325691
  H      8.106300    6.629288    1.569079
  H      6.689718    7.616708    2.082214
  C      8.878527    2.589100    1.430638
  O      8.758311    2.417038    2.792968
  H      8.306362    1.577243    2.950855
  H      9.159782    1.641444    0.939002
  H      8.037784    3.001873    0.954655
  H      9.620857    3.345827    1.223302

 Multiplicity           Mult            ....    1
 Number of Electrons    NEL             ....   18
 Basis Dimension        Dim             ....  172

ORBITAL ENERGIES
----------------

  NO   OCC          E(Eh)            E(eV)
   0   2.0000     -19.230438      -523.2868
   1   2.0000     -10.303777      -280.3800
   2   2.0000      -1.146074       -31.1862
   3   2.0000      -0.798340       -21.7239
   4   2.0000      -0.617128       -16.7929
   5   2.0000      -0.551055       -14.9950
   6   2.0000      -0.531051       -14.4506
   7   2.0000      -0.430396       -11.7117
   8   2.0000      -0.371875       -10.1192
   9   0.0000       0.087087         2.3698
  10   0.0000       0.116760         3.1772
  11   0.0000       0.156608         4.2615
  12   0.0000       0.165863         4.5134
  13   0.0000       0.189088         5.1453

MULLIKEN ATOMIC CHARGES
-----------------------
   0 C :   -0.000172
   1 O :    0.000022
   2 H :   -0.000020
   3 H :    0.000365
   4 H :    0.000018
   5 H :    0.000014
   6 C :   -0.155358
   7 O :   -0.468986
   8 H :    0.317005
   9 H :    0.096607
  10 H :    0.098558
  11 H :    0.111947
Sum of atomic charges:    0.0000000

LOEWDIN ATOMIC CHARGES
----------------------
   0 C :   -0.000205
   1 O :   -0.000005
   2 H :   -0.000015
   3 H :   -0.000187
   4 H :   -0.000082
   5 H :   -0.000002
   6 C :   -0.410723
   7 O :   -0.052481
   8 H :    0.176681
   9 H :    0.097303
  10 H :    0.083613
  11 H :    0.106101

  Mayer bond orders larger than 0.1
B(  6-C ,  7-O ) :   1.0097 B(  6-C ,  9-H ) :   0.9875 B(  6-C , 10-H ) :   0.9715
B(  6-C , 11-H ) :   0.9770 B(  7-O ,  8-H ) :   0.8971

Dispersion correction           -0.000225957
FINAL SINGLE POINT ENERGY      -115.733088490041

DIPOLE MOMENT
-------------
                                X             Y             Z
Electronic contribution:     -0.14616      -0.12748       1.84305
Nuclear contribution   :     -0.09474      -0.32641      -2.25962
                        -----------------------------------------
Total Dipole Moment    :     -0.24090      -0.45389      -0.41657
                        -----------------------------------------
Magnitude (a.u.)       :      0.66150
Magnitude (Debye)      :      1.68139

Rotational constants in cm-1:     4.443858     0.869568     0.830172
Rotational constants in MHz : 133223.523385 26068.979612 24887.926232

                             ****ORCA TERMINATED NORMALLY****
TOTAL RUN TIME: 0 days 0 hours 0 minutes 56 seconds 618 msec
