                         Program Version 4.1.2  - RELEASE  -
|  1> #Run DFT-D3 single point of the dimer
|  2> ! wB97X-D3 def2-TZVP TIGHTSCF CHELPG PMODEL PAL8
|  3>
|  4> %base "16-119_DFT_AB"
|  5>
|  6> %scf
|  7> MaxIter 1000
|  8> end
|  9>
| 10> * xyz 0 1
| 11>   C                      9.332024             -7.825781            -3.804788
| 12>   O                      8.953421             -7.722838            -5.139420
| 13>   H                      8.371526             -8.481379            -5.322820
| 14>   H                      10.157458            -8.605935            -3.657025
| 15>   H                      9.700460             -6.873416            -3.434979
| 16>   H                      8.503247             -8.036935            -3.181149
| 17>   C                      10.496270            -4.482297            -5.145719
| 18>   O                      10.291918            -3.160111            -5.530751
| 19>   H                      9.844380             -2.723742            -4.778603
| 20>   H                      9.577831             -4.958504            -4.866205
| 21>   H                      10.846851            -5.008521            -6.001477
| 22>   H                      11.192603            -4.632664            -4.323175
| 23> *
| 24>
| 25> #Run DFT-D3 single point of the molecule with dimer basis set
| 26> $new_job
| 27> %base "16-119_DFT_A"
| 28> ! wB97X-D3 def2-TZVP TIGHTSCF CHELPG PMODEL
| 29>
| 30> %scf
| 31> MaxIter 1000
| 32> end
| 33>
| 34> * xyz 0 1
| 35>   C                      9.332024             -7.825781            -3.804788
| 36>   O                      8.953421             -7.722838            -5.139420
| 37>   H                      8.371526             -8.481379            -5.322820
| 38>   H                      10.157458            -8.605935            -3.657025
| 39>   H                      9.700460             -6.873416            -3.434979
| 40>   H                      8.503247             -8.036935            -3.181149
| 41>   C                    : 10.496270            -4.482297            -5.145719
| 42>   O                    : 10.291918            -3.160111            -5.530751
| 43>   H                    : 9.844380             -2.723742            -4.778603
| 44>   H                    : 9.577831             -4.958504            -4.866205
| 45>   H                    : 10.846851            -5.008521            -6.001477
| 46>   H                    : 11.192603            -4.632664            -4.323175
| 47> *
| 48>
| 49> #Run DFT-D3 single point of the particle with dimer basis set
| 50> $new_job
| 51> %base "16-119_DFT_B"
| 52> ! wB97X-D3 def2-TZVP TIGHTSCF CHELPG PMODEL
| 53>
| 54> %scf
| 55> MaxIter 1000
| 56> end
| 57>
| 58> * xyz 0 1
| 59>   C                    : 9.332024             -7.825781            -3.804788
| 60>   O                    : 8.953421             -7.722838            -5.139420
| 61>   H                    : 8.371526             -8.481379            -5.322820
| 62>   H                    : 10.157458            -8.605935            -3.657025
| 63>   H                    : 9.700460             -6.873416            -3.434979
| 64>   H                    : 8.503247             -8.036935            -3.181149
| 65>   C                      10.496270            -4.482297            -5.145719
| 66>   O                      10.291918            -3.160111            -5.530751
| 67>   H                      9.844380             -2.723742            -4.778603
| 68>   H                      9.577831             -4.958504            -4.866205
| 69>   H                      10.846851            -5.008521            -6.001477
| 70>   H                      11.192603            -4.632664            -4.323175
| 71> *
| 72>
| 73>                          ****END OF INPUT****
 Total Charge           Charge          ....    0
 Multiplicity           Mult            ....    1
 Number of Electrons    NEL             ....   36
Dispersion correction           -0.001674360
FINAL SINGLE POINT ENERGY      -231.470527467122
Dispersion correction           -0.000232792
FINAL SINGLE POINT ENERGY      -115.733987131260

CARTESIAN COORDINATES (ANGSTROEM)
---------------------------------
  C      9.332024   -7.825781   -3.804788
  O      8.953421   -7.722838   -5.139420
  H      8.371526   -8.481379   -5.322820
  H     10.157458   -8.605935   -3.657025
  H      9.700460   -6.873416   -3.434979
  H      8.503247   -8.036935   -3.181149
  C     10.496270   -4.482297   -5.145719
  O     10.291918   -3.160111   -5.530751
  H      9.844380   -2.723742   -4.778603
  H      9.577831   -4.958504   -4.866205
  H     10.846851   -5.008521   -6.001477
  H     11.192603   -4.632664   -4.323175

 Multiplicity           Mult            ....    1
 Number of Electrons    NEL             ....   18
 Basis Dimension        Dim             ....  172

ORBITAL ENERGIES
----------------

  NO   OCC          E(Eh)            E(eV)
   0   2.0000     -19.232660      -523.3473
   1   2.0000     -10.303605      -280.3753
   2   2.0000      -1.141148       -31.0522
   3   2.0000      -0.797189       -21.6926
   4   2.0000      -0.615624       -16.7520
   5   2.0000      -0.544438       -14.8149
   6   2.0000      -0.529672       -14.4131
   7   2.0000      -0.436637       -11.8815
   8   2.0000      -0.373490       -10.1632
   9   0.0000       0.082915         2.2562
  10   0.0000       0.115389         3.1399
  11   0.0000       0.156700         4.2640
  12   0.0000       0.164598         4.4789
  13   0.0000       0.188385         5.1262

MULLIKEN ATOMIC CHARGES
-----------------------
   0 C :    0.002018
   1 O :   -0.000349
   2 H :   -0.000065
   3 H :   -0.000152
   4 H :   -0.005027
   5 H :   -0.000061
   6 C :   -0.150954
   7 O :   -0.469346
   8 H :    0.315091
   9 H :    0.098317
  10 H :    0.115811
  11 H :    0.094716
Sum of atomic charges:    0.0000000

LOEWDIN ATOMIC CHARGES
----------------------
   0 C :   -0.004942
   1 O :   -0.001841
   2 H :   -0.000094
   3 H :   -0.000039
   4 H :   -0.004395
   5 H :   -0.000054
   6 C :   -0.398244
   7 O :   -0.063623
   8 H :    0.181789
   9 H :    0.093339
  10 H :    0.105073
  11 H :    0.093033

  Mayer bond orders larger than 0.1
B(  6-C ,  7-O ) :   1.0075 B(  6-C ,  9-H ) :   0.9841 B(  6-C , 10-H ) :   0.9729
B(  6-C , 11-H ) :   0.9702 B(  7-O ,  8-H ) :   0.8978

Dispersion correction           -0.000224743
FINAL SINGLE POINT ENERGY      -115.735397272626

DIPOLE MOMENT
-------------
                                X             Y             Z
Electronic contribution:     -0.16475       1.73504      -0.62364
Nuclear contribution   :     -0.04762      -1.97118       1.22140
                        -----------------------------------------
Total Dipole Moment    :     -0.21237      -0.23614       0.59776
                        -----------------------------------------
Magnitude (a.u.)       :      0.67689
Magnitude (Debye)      :      1.72051

Rotational constants in cm-1:     4.402780     0.856397     0.823561
Rotational constants in MHz : 131992.029545 25674.141437 24689.727778

                             ****ORCA TERMINATED NORMALLY****
TOTAL RUN TIME: 0 days 0 hours 0 minutes 53 seconds 88 msec
