                         Program Version 4.1.2  - RELEASE  -
|  1> #Run DFT-D3 single point of the dimer
|  2> ! wB97X-D3 def2-TZVP TIGHTSCF CHELPG PMODEL PAL8
|  3>
|  4> %base "7-1_DFT_AB"
|  5>
|  6> %scf
|  7> MaxIter 1000
|  8> end
|  9>
| 10> * xyz 0 1
| 11>   C                      0.107441             2.741054             -3.055841
| 12>   O                      0.093632             2.479985             -1.676650
| 13>   H                      -0.116713            3.352322             -1.369150
| 14>   H                      0.781831             3.560905             -3.329535
| 15>   H                      0.429337             1.873700             -3.602147
| 16>   H                      -0.921354            2.900499             -3.482296
| 17>   C                      0.729532             5.280987             0.792221
| 18>   O                      0.011848             4.968392             -0.373084
| 19>   H                      -0.194236            5.859441             -0.599549
| 20>   H                      1.347677             4.466694             1.117791
| 21>   H                      1.488634             6.100130             0.576506
| 22>   H                      -0.035568            5.478909             1.575330
| 23> *
| 24>
| 25> #Run DFT-D3 single point of the molecule with dimer basis set
| 26> $new_job
| 27> %base "7-1_DFT_A"
| 28> ! wB97X-D3 def2-TZVP TIGHTSCF CHELPG PMODEL
| 29>
| 30> %scf
| 31> MaxIter 1000
| 32> end
| 33>
| 34> * xyz 0 1
| 35>   C                      0.107441             2.741054             -3.055841
| 36>   O                      0.093632             2.479985             -1.676650
| 37>   H                      -0.116713            3.352322             -1.369150
| 38>   H                      0.781831             3.560905             -3.329535
| 39>   H                      0.429337             1.873700             -3.602147
| 40>   H                      -0.921354            2.900499             -3.482296
| 41>   C                    : 0.729532             5.280987             0.792221
| 42>   O                    : 0.011848             4.968392             -0.373084
| 43>   H                    : -0.194236            5.859441             -0.599549
| 44>   H                    : 1.347677             4.466694             1.117791
| 45>   H                    : 1.488634             6.100130             0.576506
| 46>   H                    : -0.035568            5.478909             1.575330
| 47> *
| 48>
| 49> #Run DFT-D3 single point of the particle with dimer basis set
| 50> $new_job
| 51> %base "7-1_DFT_B"
| 52> ! wB97X-D3 def2-TZVP TIGHTSCF CHELPG PMODEL
| 53>
| 54> %scf
| 55> MaxIter 1000
| 56> end
| 57>
| 58> * xyz 0 1
| 59>   C                    : 0.107441             2.741054             -3.055841
| 60>   O                    : 0.093632             2.479985             -1.676650
| 61>   H                    : -0.116713            3.352322             -1.369150
| 62>   H                    : 0.781831             3.560905             -3.329535
| 63>   H                    : 0.429337             1.873700             -3.602147
| 64>   H                    : -0.921354            2.900499             -3.482296
| 65>   C                      0.729532             5.280987             0.792221
| 66>   O                      0.011848             4.968392             -0.373084
| 67>   H                      -0.194236            5.859441             -0.599549
| 68>   H                      1.347677             4.466694             1.117791
| 69>   H                      1.488634             6.100130             0.576506
| 70>   H                      -0.035568            5.478909             1.575330
| 71> *
| 72>
| 73>                          ****END OF INPUT****
 Total Charge           Charge          ....    0
 Multiplicity           Mult            ....    1
 Number of Electrons    NEL             ....   36
Dispersion correction           -0.001584404
FINAL SINGLE POINT ENERGY      -231.467588844648
Dispersion correction           -0.000223019
FINAL SINGLE POINT ENERGY      -115.732914817245

CARTESIAN COORDINATES (ANGSTROEM)
---------------------------------
  C      0.107441    2.741054   -3.055841
  O      0.093632    2.479985   -1.676650
  H     -0.116713    3.352322   -1.369150
  H      0.781831    3.560905   -3.329535
  H      0.429337    1.873700   -3.602147
  H     -0.921354    2.900499   -3.482296
  C      0.729532    5.280987    0.792221
  O      0.011848    4.968392   -0.373084
  H     -0.194236    5.859441   -0.599549
  H      1.347677    4.466694    1.117791
  H      1.488634    6.100130    0.576506
  H     -0.035568    5.478909    1.575330

 Multiplicity           Mult            ....    1
 Number of Electrons    NEL             ....   18
 Basis Dimension        Dim             ....  172

ORBITAL ENERGIES
----------------

  NO   OCC          E(Eh)            E(eV)
   0   2.0000     -19.230846      -523.2979
   1   2.0000     -10.317671      -280.7581
   2   2.0000      -1.152792       -31.3691
   3   2.0000      -0.788142       -21.4464
   4   2.0000      -0.607112       -16.5204
   5   2.0000      -0.555984       -15.1291
   6   2.0000      -0.528469       -14.3804
   7   2.0000      -0.437179       -11.8962
   8   2.0000      -0.375244       -10.2109
   9   0.0000       0.100489         2.7344
  10   0.0000       0.122297         3.3279
  11   0.0000       0.159214         4.3324
  12   0.0000       0.186315         5.0699
  13   0.0000       0.196779         5.3546

MULLIKEN ATOMIC CHARGES
-----------------------
   0 C :    0.002792
   1 O :    0.001283
   2 H :   -0.013621
   3 H :   -0.003146
   4 H :   -0.000220
   5 H :   -0.000425
   6 C :   -0.183716
   7 O :   -0.438772
   8 H :    0.310382
   9 H :    0.120788
  10 H :    0.100001
  11 H :    0.104655
Sum of atomic charges:    0.0000000

LOEWDIN ATOMIC CHARGES
----------------------
   0 C :   -0.004149
   1 O :   -0.005788
   2 H :   -0.043608
   3 H :   -0.001271
   4 H :   -0.000050
   5 H :   -0.000077
   6 C :   -0.400332
   7 O :   -0.018601
   8 H :    0.165638
   9 H :    0.100981
  10 H :    0.104871
  11 H :    0.102387

  Mayer bond orders larger than 0.1
B(  6-C ,  7-O ) :   0.9836 B(  6-C ,  9-H ) :   0.9762 B(  6-C , 10-H ) :   0.9756
B(  6-C , 11-H ) :   0.9767 B(  7-O ,  8-H ) :   0.9051

Dispersion correction           -0.000201953
FINAL SINGLE POINT ENERGY      -115.727354263442

DIPOLE MOMENT
-------------
                                X             Y             Z
Electronic contribution:     -0.92256      -0.59160      -1.46690
Nuclear contribution   :      1.08404       1.22375       1.76604
                        -----------------------------------------
Total Dipole Moment    :      0.16148       0.63215       0.29914
                        -----------------------------------------
Magnitude (a.u.)       :      0.71776
Magnitude (Debye)      :      1.82440

Rotational constants in cm-1:     4.096037     0.852355     0.833939
Rotational constants in MHz : 122796.107654 25552.973605 25000.873229

                             ****ORCA TERMINATED NORMALLY****
TOTAL RUN TIME: 0 days 0 hours 1 minutes 13 seconds 677 msec
