                         Program Version 4.1.2  - RELEASE  -
|  1> #Run DFT-D3 single point of the dimer
|  2> ! wB97X-D3 def2-TZVP TIGHTSCF CHELPG PMODEL PAL8
|  3>
|  4> %base "7-94_DFT_AB"
|  5>
|  6> %scf
|  7> MaxIter 1000
|  8> end
|  9>
| 10> * xyz 0 1
| 11>   C                      -4.531715            -3.327488            3.855180
| 12>   O                      -5.285925            -4.508734            4.030222
| 13>   H                      -4.623814            -5.225967            3.998889
| 14>   H                      -4.056107            -3.085744            4.805620
| 15>   H                      -3.844368            -3.437728            3.013197
| 16>   H                      -5.163979            -2.483007            3.642173
| 17>   C                      -6.546638            -8.521955            5.114871
| 18>   O                      -7.399952            -9.493348            4.657832
| 19>   H                      -8.075278            -9.706095            5.357748
| 20>   H                      -7.118130            -7.541197            4.996308
| 21>   H                      -6.100771            -8.747694            6.103445
| 22>   H                      -5.678386            -8.451725            4.465441
| 23> *
| 24>
| 25> #Run DFT-D3 single point of the molecule with dimer basis set
| 26> $new_job
| 27> %base "7-94_DFT_A"
| 28> ! wB97X-D3 def2-TZVP TIGHTSCF CHELPG PMODEL
| 29>
| 30> %scf
| 31> MaxIter 1000
| 32> end
| 33>
| 34> * xyz 0 1
| 35>   C                      -4.531715            -3.327488            3.855180
| 36>   O                      -5.285925            -4.508734            4.030222
| 37>   H                      -4.623814            -5.225967            3.998889
| 38>   H                      -4.056107            -3.085744            4.805620
| 39>   H                      -3.844368            -3.437728            3.013197
| 40>   H                      -5.163979            -2.483007            3.642173
| 41>   C                    : -6.546638            -8.521955            5.114871
| 42>   O                    : -7.399952            -9.493348            4.657832
| 43>   H                    : -8.075278            -9.706095            5.357748
| 44>   H                    : -7.118130            -7.541197            4.996308
| 45>   H                    : -6.100771            -8.747694            6.103445
| 46>   H                    : -5.678386            -8.451725            4.465441
| 47> *
| 48>
| 49> #Run DFT-D3 single point of the particle with dimer basis set
| 50> $new_job
| 51> %base "7-94_DFT_B"
| 52> ! wB97X-D3 def2-TZVP TIGHTSCF CHELPG PMODEL
| 53>
| 54> %scf
| 55> MaxIter 1000
| 56> end
| 57>
| 58> * xyz 0 1
| 59>   C                    : -4.531715            -3.327488            3.855180
| 60>   O                    : -5.285925            -4.508734            4.030222
| 61>   H                    : -4.623814            -5.225967            3.998889
| 62>   H                    : -4.056107            -3.085744            4.805620
| 63>   H                    : -3.844368            -3.437728            3.013197
| 64>   H                    : -5.163979            -2.483007            3.642173
| 65>   C                      -6.546638            -8.521955            5.114871
| 66>   O                      -7.399952            -9.493348            4.657832
| 67>   H                      -8.075278            -9.706095            5.357748
| 68>   H                      -7.118130            -7.541197            4.996308
| 69>   H                      -6.100771            -8.747694            6.103445
| 70>   H                      -5.678386            -8.451725            4.465441
| 71> *
| 72>
| 73>                          ****END OF INPUT****
 Total Charge           Charge          ....    0
 Multiplicity           Mult            ....    1
 Number of Electrons    NEL             ....   36
Dispersion correction           -0.000853510
FINAL SINGLE POINT ENERGY      -231.464707350924
Dispersion correction           -0.000221102
FINAL SINGLE POINT ENERGY      -115.734615138724

CARTESIAN COORDINATES (ANGSTROEM)
---------------------------------
  C     -4.531715   -3.327488    3.855180
  O     -5.285925   -4.508734    4.030222
  H     -4.623814   -5.225967    3.998889
  H     -4.056107   -3.085744    4.805620
  H     -3.844368   -3.437728    3.013197
  H     -5.163979   -2.483007    3.642173
  C     -6.546638   -8.521955    5.114871
  O     -7.399952   -9.493348    4.657832
  H     -8.075278   -9.706095    5.357748
  H     -7.118130   -7.541197    4.996308
  H     -6.100771   -8.747694    6.103445
  H     -5.678386   -8.451725    4.465441

 Multiplicity           Mult            ....    1
 Number of Electrons    NEL             ....   18
 Basis Dimension        Dim             ....  172

ORBITAL ENERGIES
----------------

  NO   OCC          E(Eh)            E(eV)
   0   2.0000     -19.230567      -523.2903
   1   2.0000     -10.314121      -280.6615
   2   2.0000      -1.142457       -31.0878
   3   2.0000      -0.787350       -21.4249
   4   2.0000      -0.608040       -16.5456
   5   2.0000      -0.550884       -14.9903
   6   2.0000      -0.531207       -14.4549
   7   2.0000      -0.420240       -11.4353
   8   2.0000      -0.368685       -10.0324
   9   0.0000       0.086285         2.3479
  10   0.0000       0.111700         3.0395
  11   0.0000       0.137789         3.7494
  12   0.0000       0.184304         5.0152
  13   0.0000       0.188469         5.1285

MULLIKEN ATOMIC CHARGES
-----------------------
   0 C :   -0.000023
   1 O :   -0.000017
   2 H :   -0.000226
   3 H :    0.000000
   4 H :   -0.000000
   5 H :    0.000004
   6 C :   -0.152607
   7 O :   -0.470216
   8 H :    0.319904
   9 H :    0.094088
  10 H :    0.095913
  11 H :    0.113180
Sum of atomic charges:    0.0000000

LOEWDIN ATOMIC CHARGES
----------------------
   0 C :   -0.000020
   1 O :   -0.000237
   2 H :   -0.000348
   3 H :   -0.000001
   4 H :   -0.000001
   5 H :   -0.000000
   6 C :   -0.429472
   7 O :   -0.065628
   8 H :    0.192182
   9 H :    0.103421
  10 H :    0.095598
  11 H :    0.104505

  Mayer bond orders larger than 0.1
B(  6-C ,  7-O ) :   1.0065 B(  6-C ,  9-H ) :   0.9853 B(  6-C , 10-H ) :   0.9731
B(  6-C , 11-H ) :   0.9696 B(  7-O ,  8-H ) :   0.8894

Dispersion correction           -0.000233290
FINAL SINGLE POINT ENERGY      -115.729658240777

DIPOLE MOMENT
-------------
                                X             Y             Z
Electronic contribution:     -1.03010      -1.32609      -0.64128
Nuclear contribution   :      0.94834       1.51881       1.23288
                        -----------------------------------------
Total Dipole Moment    :     -0.08176       0.19272       0.59160
                        -----------------------------------------
Magnitude (a.u.)       :      0.62755
Magnitude (Debye)      :      1.59510

Rotational constants in cm-1:     4.116668     0.861920     0.846017
Rotational constants in MHz : 123414.596595 25839.721510 25362.953747

                             ****ORCA TERMINATED NORMALLY****
TOTAL RUN TIME: 0 days 0 hours 0 minutes 52 seconds 85 msec
