                         Program Version 4.1.2  - RELEASE  -
|  1> #Run DFT-D3 single point of the dimer
|  2> ! wB97X-D3 def2-TZVP TIGHTSCF CHELPG PMODEL PAL8
|  3>
|  4> %base "16-184_DFT_AB"
|  5>
|  6> %scf
|  7> MaxIter 1000
|  8> end
|  9>
| 10> * xyz 0 1
| 11>   C                      -4.560682            -4.329770            1.110956
| 12>   O                      -3.928309            -5.024112            2.117217
| 13>   H                      -3.662203            -5.864956            1.700131
| 14>   H                      -5.471232            -4.871591            0.797603
| 15>   H                      -4.921328            -3.343781            1.562688
| 16>   H                      -3.888416            -4.178399            0.273072
| 17>   C                      -0.641262            -3.997556            3.460501
| 18>   O                      -1.289227            -3.611036            2.241810
| 19>   H                      -2.235809            -3.829308            2.249596
| 20>   H                      -0.552726            -5.112312            3.504210
| 21>   H                      0.331831             -3.481780            3.610580
| 22>   H                      -1.286851            -3.741639            4.301010
| 23> *
| 24>
| 25> #Run DFT-D3 single point of the molecule with dimer basis set
| 26> $new_job
| 27> %base "16-184_DFT_A"
| 28> ! wB97X-D3 def2-TZVP TIGHTSCF CHELPG PMODEL
| 29>
| 30> %scf
| 31> MaxIter 1000
| 32> end
| 33>
| 34> * xyz 0 1
| 35>   C                      -4.560682            -4.329770            1.110956
| 36>   O                      -3.928309            -5.024112            2.117217
| 37>   H                      -3.662203            -5.864956            1.700131
| 38>   H                      -5.471232            -4.871591            0.797603
| 39>   H                      -4.921328            -3.343781            1.562688
| 40>   H                      -3.888416            -4.178399            0.273072
| 41>   C                    : -0.641262            -3.997556            3.460501
| 42>   O                    : -1.289227            -3.611036            2.241810
| 43>   H                    : -2.235809            -3.829308            2.249596
| 44>   H                    : -0.552726            -5.112312            3.504210
| 45>   H                    : 0.331831             -3.481780            3.610580
| 46>   H                    : -1.286851            -3.741639            4.301010
| 47> *
| 48>
| 49> #Run DFT-D3 single point of the particle with dimer basis set
| 50> $new_job
| 51> %base "16-184_DFT_B"
| 52> ! wB97X-D3 def2-TZVP TIGHTSCF CHELPG PMODEL
| 53>
| 54> %scf
| 55> MaxIter 1000
| 56> end
| 57>
| 58> * xyz 0 1
| 59>   C                    : -4.560682            -4.329770            1.110956
| 60>   O                    : -3.928309            -5.024112            2.117217
| 61>   H                    : -3.662203            -5.864956            1.700131
| 62>   H                    : -5.471232            -4.871591            0.797603
| 63>   H                    : -4.921328            -3.343781            1.562688
| 64>   H                    : -3.888416            -4.178399            0.273072
| 65>   C                      -0.641262            -3.997556            3.460501
| 66>   O                      -1.289227            -3.611036            2.241810
| 67>   H                      -2.235809            -3.829308            2.249596
| 68>   H                      -0.552726            -5.112312            3.504210
| 69>   H                      0.331831             -3.481780            3.610580
| 70>   H                      -1.286851            -3.741639            4.301010
| 71> *
| 72>
| 73>                          ****END OF INPUT****
 Total Charge           Charge          ....    0
 Multiplicity           Mult            ....    1
 Number of Electrons    NEL             ....   36
Dispersion correction           -0.001751479
FINAL SINGLE POINT ENERGY      -231.474713759660
Dispersion correction           -0.000209110
FINAL SINGLE POINT ENERGY      -115.733489831030

CARTESIAN COORDINATES (ANGSTROEM)
---------------------------------
  C     -4.560682   -4.329770    1.110956
  O     -3.928309   -5.024112    2.117217
  H     -3.662203   -5.864956    1.700131
  H     -5.471232   -4.871591    0.797603
  H     -4.921328   -3.343781    1.562688
  H     -3.888416   -4.178399    0.273072
  C     -0.641262   -3.997556    3.460501
  O     -1.289227   -3.611036    2.241810
  H     -2.235809   -3.829308    2.249596
  H     -0.552726   -5.112312    3.504210
  H      0.331831   -3.481780    3.610580
  H     -1.286851   -3.741639    4.301010

 Multiplicity           Mult            ....    1
 Number of Electrons    NEL             ....   18
 Basis Dimension        Dim             ....  172

ORBITAL ENERGIES
----------------

  NO   OCC          E(Eh)            E(eV)
   0   2.0000     -19.228970      -523.2469
   1   2.0000     -10.319876      -280.8181
   2   2.0000      -1.125496       -30.6263
   3   2.0000      -0.793393       -21.5893
   4   2.0000      -0.607044       -16.5185
   5   2.0000      -0.536556       -14.6004
   6   2.0000      -0.526094       -14.3157
   7   2.0000      -0.429694       -11.6926
   8   2.0000      -0.370964       -10.0944
   9   0.0000       0.071186         1.9371
  10   0.0000       0.130404         3.5485
  11   0.0000       0.153805         4.1852
  12   0.0000       0.162730         4.4281
  13   0.0000       0.191497         5.2109

MULLIKEN ATOMIC CHARGES
-----------------------
   0 C :    0.001493
   1 O :   -0.004425
   2 H :   -0.001027
   3 H :    0.000156
   4 H :   -0.000530
   5 H :   -0.001246
   6 C :   -0.164916
   7 O :   -0.482661
   8 H :    0.314637
   9 H :    0.103384
  10 H :    0.127007
  11 H :    0.108129
Sum of atomic charges:   -0.0000000

LOEWDIN ATOMIC CHARGES
----------------------
   0 C :   -0.007275
   1 O :   -0.013593
   2 H :   -0.001813
   3 H :   -0.000091
   4 H :   -0.000545
   5 H :   -0.001060
   6 C :   -0.372604
   7 O :   -0.090521
   8 H :    0.180685
   9 H :    0.099366
  10 H :    0.112970
  11 H :    0.094481

  Mayer bond orders larger than 0.1
B(  6-C ,  7-O ) :   0.9861 B(  6-C ,  9-H ) :   0.9728 B(  6-C , 10-H ) :   0.9684
B(  6-C , 11-H ) :   0.9830 B(  7-O ,  8-H ) :   0.9012

Dispersion correction           -0.000253696
FINAL SINGLE POINT ENERGY      -115.733858193042

DIPOLE MOMENT
-------------
                                X             Y             Z
Electronic contribution:     -0.58112       0.58516      -1.59894
Nuclear contribution   :      0.24337      -0.86468       2.12977
                        -----------------------------------------
Total Dipole Moment    :     -0.33774      -0.27952       0.53084
                        -----------------------------------------
Magnitude (a.u.)       :      0.68847
Magnitude (Debye)      :      1.74994

Rotational constants in cm-1:     4.225944     0.808136     0.777212
Rotational constants in MHz : 126690.618114 24227.306634 23300.230098

                             ****ORCA TERMINATED NORMALLY****
TOTAL RUN TIME: 0 days 0 hours 1 minutes 9 seconds 555 msec
