                         Program Version 4.1.2  - RELEASE  -
|  1> #Run DFT-D3 single point of the dimer
|  2> ! wB97X-D3 def2-TZVP TIGHTSCF CHELPG PMODEL PAL8
|  3>
|  4> %base "19-187_DFT_AB"
|  5>
|  6> %scf
|  7> MaxIter 1000
|  8> end
|  9>
| 10> * xyz 0 1
| 11>   C                      3.771082             -0.084111            -5.364219
| 12>   O                      2.789198             0.944553             -5.009210
| 13>   H                      2.732328             1.510619             -5.748746
| 14>   H                      4.269562             -0.378328            -4.423374
| 15>   H                      3.274497             -0.961496            -5.774441
| 16>   H                      4.520300             0.267564             -5.941169
| 17>   C                      1.211080             2.293635             -1.615326
| 18>   O                      0.870289             1.421447             -2.675203
| 19>   H                      1.495951             1.552776             -3.423949
| 20>   H                      0.333753             2.632209             -1.111763
| 21>   H                      1.834200             1.754973             -0.892795
| 22>   H                      1.666833             3.187290             -1.963159
| 23> *
| 24>
| 25> #Run DFT-D3 single point of the molecule with dimer basis set
| 26> $new_job
| 27> %base "19-187_DFT_A"
| 28> ! wB97X-D3 def2-TZVP TIGHTSCF CHELPG PMODEL
| 29>
| 30> %scf
| 31> MaxIter 1000
| 32> end
| 33>
| 34> * xyz 0 1
| 35>   C                      3.771082             -0.084111            -5.364219
| 36>   O                      2.789198             0.944553             -5.009210
| 37>   H                      2.732328             1.510619             -5.748746
| 38>   H                      4.269562             -0.378328            -4.423374
| 39>   H                      3.274497             -0.961496            -5.774441
| 40>   H                      4.520300             0.267564             -5.941169
| 41>   C                    : 1.211080             2.293635             -1.615326
| 42>   O                    : 0.870289             1.421447             -2.675203
| 43>   H                    : 1.495951             1.552776             -3.423949
| 44>   H                    : 0.333753             2.632209             -1.111763
| 45>   H                    : 1.834200             1.754973             -0.892795
| 46>   H                    : 1.666833             3.187290             -1.963159
| 47> *
| 48>
| 49> #Run DFT-D3 single point of the particle with dimer basis set
| 50> $new_job
| 51> %base "19-187_DFT_B"
| 52> ! wB97X-D3 def2-TZVP TIGHTSCF CHELPG PMODEL
| 53>
| 54> %scf
| 55> MaxIter 1000
| 56> end
| 57>
| 58> * xyz 0 1
| 59>   C                    : 3.771082             -0.084111            -5.364219
| 60>   O                    : 2.789198             0.944553             -5.009210
| 61>   H                    : 2.732328             1.510619             -5.748746
| 62>   H                    : 4.269562             -0.378328            -4.423374
| 63>   H                    : 3.274497             -0.961496            -5.774441
| 64>   H                    : 4.520300             0.267564             -5.941169
| 65>   C                      1.211080             2.293635             -1.615326
| 66>   O                      0.870289             1.421447             -2.675203
| 67>   H                      1.495951             1.552776             -3.423949
| 68>   H                      0.333753             2.632209             -1.111763
| 69>   H                      1.834200             1.754973             -0.892795
| 70>   H                      1.666833             3.187290             -1.963159
| 71> *
| 72>
| 73>                          ****END OF INPUT****
 Total Charge           Charge          ....    0
 Multiplicity           Mult            ....    1
 Number of Electrons    NEL             ....   36
Dispersion correction           -0.001334530
FINAL SINGLE POINT ENERGY      -231.469717168383
Dispersion correction           -0.000247342
FINAL SINGLE POINT ENERGY      -115.729028404913

CARTESIAN COORDINATES (ANGSTROEM)
---------------------------------
  C      3.771082   -0.084111   -5.364219
  O      2.789198    0.944553   -5.009210
  H      2.732328    1.510619   -5.748746
  H      4.269562   -0.378328   -4.423374
  H      3.274497   -0.961496   -5.774441
  H      4.520300    0.267564   -5.941169
  C      1.211080    2.293635   -1.615326
  O      0.870289    1.421447   -2.675203
  H      1.495951    1.552776   -3.423949
  H      0.333753    2.632209   -1.111763
  H      1.834200    1.754973   -0.892795
  H      1.666833    3.187290   -1.963159

 Multiplicity           Mult            ....    1
 Number of Electrons    NEL             ....   18
 Basis Dimension        Dim             ....  172

ORBITAL ENERGIES
----------------

  NO   OCC          E(Eh)            E(eV)
   0   2.0000     -19.229658      -523.2656
   1   2.0000     -10.306135      -280.4442
   2   2.0000      -1.129369       -30.7317
   3   2.0000      -0.798404       -21.7257
   4   2.0000      -0.608778       -16.5657
   5   2.0000      -0.545524       -14.8445
   6   2.0000      -0.528311       -14.3761
   7   2.0000      -0.430418       -11.7123
   8   2.0000      -0.372592       -10.1388
   9   0.0000       0.072641         1.9767
  10   0.0000       0.124747         3.3945
  11   0.0000       0.151951         4.1348
  12   0.0000       0.173444         4.7196
  13   0.0000       0.199073         5.4171

MULLIKEN ATOMIC CHARGES
-----------------------
   0 C :   -0.001204
   1 O :   -0.001108
   2 H :   -0.000255
   3 H :   -0.000113
   4 H :    0.000131
   5 H :   -0.000008
   6 C :   -0.150420
   7 O :   -0.480129
   8 H :    0.313485
   9 H :    0.113585
  10 H :    0.101842
  11 H :    0.104196
Sum of atomic charges:    0.0000000

LOEWDIN ATOMIC CHARGES
----------------------
   0 C :   -0.001324
   1 O :   -0.012691
   2 H :   -0.001148
   3 H :   -0.000156
   4 H :   -0.000029
   5 H :   -0.000035
   6 C :   -0.376968
   7 O :   -0.084642
   8 H :    0.188098
   9 H :    0.100335
  10 H :    0.098022
  11 H :    0.090539

  Mayer bond orders larger than 0.1
B(  6-C ,  7-O ) :   1.0020 B(  6-C ,  9-H ) :   0.9755 B(  6-C , 10-H ) :   0.9776
B(  6-C , 11-H ) :   0.9831 B(  7-O ,  8-H ) :   0.9001

Dispersion correction           -0.000240818
FINAL SINGLE POINT ENERGY      -115.734130648734

DIPOLE MOMENT
-------------
                                X             Y             Z
Electronic contribution:     -0.51891      -1.12013      -1.26704
Nuclear contribution   :      1.03474       1.58906       1.21555
                        -----------------------------------------
Total Dipole Moment    :      0.51582       0.46894      -0.05149
                        -----------------------------------------
Magnitude (a.u.)       :      0.69902
Magnitude (Debye)      :      1.77676

Rotational constants in cm-1:     4.387092     0.829137     0.805896
Rotational constants in MHz : 131521.707419 24856.888789 24160.150602

                             ****ORCA TERMINATED NORMALLY****
TOTAL RUN TIME: 0 days 0 hours 1 minutes 36 seconds 792 msec
