                         Program Version 4.1.2  - RELEASE  -
|  1> #Run DFT-D3 single point of the dimer
|  2> ! wB97X-D3 def2-TZVP TIGHTSCF CHELPG PMODEL PAL8
|  3>
|  4> %base "19-113_DFT_AB"
|  5>
|  6> %scf
|  7> MaxIter 1000
|  8> end
|  9>
| 10> * xyz 0 1
| 11>   C                      6.485865             6.830318             0.457606
| 12>   O                      6.958456             6.355031             -0.794069
| 13>   H                      7.907226             6.370384             -0.741623
| 14>   H                      6.882538             7.854793             0.749982
| 15>   H                      5.409756             6.912721             0.368214
| 16>   H                      6.865832             6.186334             1.267891
| 17>   C                      3.450819             6.673279             -1.723132
| 18>   O                      4.383026             7.705525             -1.912753
| 19>   H                      5.261560             7.404493             -1.709815
| 20>   H                      3.639488             5.964944             -0.949126
| 21>   H                      2.464917             7.050423             -1.501497
| 22>   H                      3.294769             6.043042             -2.592645
| 23> *
| 24>
| 25> #Run DFT-D3 single point of the molecule with dimer basis set
| 26> $new_job
| 27> %base "19-113_DFT_A"
| 28> ! wB97X-D3 def2-TZVP TIGHTSCF CHELPG PMODEL
| 29>
| 30> %scf
| 31> MaxIter 1000
| 32> end
| 33>
| 34> * xyz 0 1
| 35>   C                      6.485865             6.830318             0.457606
| 36>   O                      6.958456             6.355031             -0.794069
| 37>   H                      7.907226             6.370384             -0.741623
| 38>   H                      6.882538             7.854793             0.749982
| 39>   H                      5.409756             6.912721             0.368214
| 40>   H                      6.865832             6.186334             1.267891
| 41>   C                    : 3.450819             6.673279             -1.723132
| 42>   O                    : 4.383026             7.705525             -1.912753
| 43>   H                    : 5.261560             7.404493             -1.709815
| 44>   H                    : 3.639488             5.964944             -0.949126
| 45>   H                    : 2.464917             7.050423             -1.501497
| 46>   H                    : 3.294769             6.043042             -2.592645
| 47> *
| 48>
| 49> #Run DFT-D3 single point of the particle with dimer basis set
| 50> $new_job
| 51> %base "19-113_DFT_B"
| 52> ! wB97X-D3 def2-TZVP TIGHTSCF CHELPG PMODEL
| 53>
| 54> %scf
| 55> MaxIter 1000
| 56> end
| 57>
| 58> * xyz 0 1
| 59>   C                    : 6.485865             6.830318             0.457606
| 60>   O                    : 6.958456             6.355031             -0.794069
| 61>   H                    : 7.907226             6.370384             -0.741623
| 62>   H                    : 6.882538             7.854793             0.749982
| 63>   H                    : 5.409756             6.912721             0.368214
| 64>   H                    : 6.865832             6.186334             1.267891
| 65>   C                      3.450819             6.673279             -1.723132
| 66>   O                      4.383026             7.705525             -1.912753
| 67>   H                      5.261560             7.404493             -1.709815
| 68>   H                      3.639488             5.964944             -0.949126
| 69>   H                      2.464917             7.050423             -1.501497
| 70>   H                      3.294769             6.043042             -2.592645
| 71> *
| 72>
| 73>                          ****END OF INPUT****
 Total Charge           Charge          ....    0
 Multiplicity           Mult            ....    1
 Number of Electrons    NEL             ....   36
Dispersion correction           -0.002044672
FINAL SINGLE POINT ENERGY      -231.474441433665
Dispersion correction           -0.000238402
FINAL SINGLE POINT ENERGY      -115.734426290014

CARTESIAN COORDINATES (ANGSTROEM)
---------------------------------
  C      6.485865    6.830318    0.457606
  O      6.958456    6.355031   -0.794069
  H      7.907226    6.370384   -0.741623
  H      6.882538    7.854793    0.749982
  H      5.409756    6.912721    0.368214
  H      6.865832    6.186334    1.267891
  C      3.450819    6.673279   -1.723132
  O      4.383026    7.705525   -1.912753
  H      5.261560    7.404493   -1.709815
  H      3.639488    5.964944   -0.949126
  H      2.464917    7.050423   -1.501497
  H      3.294769    6.043042   -2.592645

 Multiplicity           Mult            ....    1
 Number of Electrons    NEL             ....   18
 Basis Dimension        Dim             ....  172

ORBITAL ENERGIES
----------------

  NO   OCC          E(Eh)            E(eV)
   0   2.0000     -19.234329      -523.3927
   1   2.0000     -10.306620      -280.4574
   2   2.0000      -1.141585       -31.0641
   3   2.0000      -0.805101       -21.9079
   4   2.0000      -0.622836       -16.9482
   5   2.0000      -0.536447       -14.5975
   6   2.0000      -0.531356       -14.4589
   7   2.0000      -0.435862       -11.8604
   8   2.0000      -0.375536       -10.2188
   9   0.0000       0.072839         1.9820
  10   0.0000       0.141121         3.8401
  11   0.0000       0.147707         4.0193
  12   0.0000       0.167362         4.5542
  13   0.0000       0.189273         5.1504

MULLIKEN ATOMIC CHARGES
-----------------------
   0 C :   -0.008587
   1 O :   -0.001295
   2 H :   -0.000183
   3 H :    0.000687
   4 H :   -0.001243
   5 H :   -0.000466
   6 C :   -0.171273
   7 O :   -0.462946
   8 H :    0.317185
   9 H :    0.107266
  10 H :    0.115874
  11 H :    0.104981
Sum of atomic charges:    0.0000000

LOEWDIN ATOMIC CHARGES
----------------------
   0 C :   -0.013198
   1 O :   -0.008716
   2 H :   -0.000415
   3 H :   -0.000340
   4 H :   -0.007933
   5 H :   -0.000164
   6 C :   -0.389372
   7 O :   -0.042261
   8 H :    0.170314
   9 H :    0.092443
  10 H :    0.105180
  11 H :    0.094463

  Mayer bond orders larger than 0.1
B(  6-C ,  7-O ) :   0.9994 B(  6-C ,  9-H ) :   0.9744 B(  6-C , 10-H ) :   0.9769
B(  6-C , 11-H ) :   0.9822 B(  7-O ,  8-H ) :   0.9043

Dispersion correction           -0.000259978
FINAL SINGLE POINT ENERGY      -115.733880065154

DIPOLE MOMENT
-------------
                                X             Y             Z
Electronic contribution:      1.22372       1.50667      -0.24773
Nuclear contribution   :     -1.03702      -2.11525       0.46820
                        -----------------------------------------
Total Dipole Moment    :      0.18669      -0.60858       0.22047
                        -----------------------------------------
Magnitude (a.u.)       :      0.67367
Magnitude (Debye)      :      1.71234

Rotational constants in cm-1:     4.673395     0.826306     0.797776
Rotational constants in MHz : 140104.860638 24772.024650 23916.714014

                             ****ORCA TERMINATED NORMALLY****
TOTAL RUN TIME: 0 days 0 hours 0 minutes 53 seconds 694 msec
