                         Program Version 4.1.2  - RELEASE  -
|  1> #Run DFT-D3 single point of the dimer
|  2> ! wB97X-D3 def2-TZVP TIGHTSCF CHELPG PMODEL PAL8
|  3>
|  4> %base "3-169_DFT_AB"
|  5>
|  6> %scf
|  7> MaxIter 1000
|  8> end
|  9>
| 10> * xyz 0 1
| 11>   C                      -5.088783            -9.536046            9.311641
| 12>   O                      -5.169613            -10.257828           10.555872
| 13>   H                      -5.059206            -9.633268            11.275877
| 14>   H                      -4.578815            -10.188779           8.621450
| 15>   H                      -6.097560            -9.299392            8.898117
| 16>   H                      -4.579162            -8.571571            9.383033
| 17>   C                      -10.433020           -9.521310            9.916638
| 18>   O                      -10.014247           -10.786016           10.308878
| 19>   H                      -9.190040            -10.809580           10.737779
| 20>   H                      -10.645557           -8.926583            10.836332
| 21>   H                      -9.612519            -9.095424            9.324647
| 22>   H                      -11.441362           -9.610451            9.434602
| 23> *
| 24>
| 25> #Run DFT-D3 single point of the molecule with dimer basis set
| 26> $new_job
| 27> %base "3-169_DFT_A"
| 28> ! wB97X-D3 def2-TZVP TIGHTSCF CHELPG PMODEL
| 29>
| 30> %scf
| 31> MaxIter 1000
| 32> end
| 33>
| 34> * xyz 0 1
| 35>   C                      -5.088783            -9.536046            9.311641
| 36>   O                      -5.169613            -10.257828           10.555872
| 37>   H                      -5.059206            -9.633268            11.275877
| 38>   H                      -4.578815            -10.188779           8.621450
| 39>   H                      -6.097560            -9.299392            8.898117
| 40>   H                      -4.579162            -8.571571            9.383033
| 41>   C                    : -10.433020           -9.521310            9.916638
| 42>   O                    : -10.014247           -10.786016           10.308878
| 43>   H                    : -9.190040            -10.809580           10.737779
| 44>   H                    : -10.645557           -8.926583            10.836332
| 45>   H                    : -9.612519            -9.095424            9.324647
| 46>   H                    : -11.441362           -9.610451            9.434602
| 47> *
| 48>
| 49> #Run DFT-D3 single point of the particle with dimer basis set
| 50> $new_job
| 51> %base "3-169_DFT_B"
| 52> ! wB97X-D3 def2-TZVP TIGHTSCF CHELPG PMODEL
| 53>
| 54> %scf
| 55> MaxIter 1000
| 56> end
| 57>
| 58> * xyz 0 1
| 59>   C                    : -5.088783            -9.536046            9.311641
| 60>   O                    : -5.169613            -10.257828           10.555872
| 61>   H                    : -5.059206            -9.633268            11.275877
| 62>   H                    : -4.578815            -10.188779           8.621450
| 63>   H                    : -6.097560            -9.299392            8.898117
| 64>   H                    : -4.579162            -8.571571            9.383033
| 65>   C                      -10.433020           -9.521310            9.916638
| 66>   O                      -10.014247           -10.786016           10.308878
| 67>   H                      -9.190040            -10.809580           10.737779
| 68>   H                      -10.645557           -8.926583            10.836332
| 69>   H                      -9.612519            -9.095424            9.324647
| 70>   H                      -11.441362           -9.610451            9.434602
| 71> *
| 72>
| 73>                          ****END OF INPUT****
 Total Charge           Charge          ....    0
 Multiplicity           Mult            ....    1
 Number of Electrons    NEL             ....   36
Dispersion correction           -0.000850924
FINAL SINGLE POINT ENERGY      -231.466450034903
Dispersion correction           -0.000263026
FINAL SINGLE POINT ENERGY      -115.735247191773

CARTESIAN COORDINATES (ANGSTROEM)
---------------------------------
  C     -5.088783   -9.536046    9.311641
  O     -5.169613  -10.257828   10.555872
  H     -5.059206   -9.633268   11.275877
  H     -4.578815  -10.188779    8.621450
  H     -6.097560   -9.299392    8.898117
  H     -4.579162   -8.571571    9.383033
  C    -10.433020   -9.521310    9.916638
  O    -10.014247  -10.786016   10.308878
  H     -9.190040  -10.809580   10.737779
  H    -10.645557   -8.926583   10.836332
  H     -9.612519   -9.095424    9.324647
  H    -11.441362   -9.610451    9.434602

 Multiplicity           Mult            ....    1
 Number of Electrons    NEL             ....   18
 Basis Dimension        Dim             ....  172

ORBITAL ENERGIES
----------------

  NO   OCC          E(Eh)            E(eV)
   0   2.0000     -19.219650      -522.9933
   1   2.0000     -10.316667      -280.7308
   2   2.0000      -1.144025       -31.1305
   3   2.0000      -0.795353       -21.6426
   4   2.0000      -0.613067       -16.6824
   5   2.0000      -0.553661       -15.0659
   6   2.0000      -0.526302       -14.3214
   7   2.0000      -0.420584       -11.4447
   8   2.0000      -0.367657       -10.0045
   9   0.0000       0.075818         2.0631
  10   0.0000       0.120243         3.2720
  11   0.0000       0.150043         4.0829
  12   0.0000       0.165964         4.5161
  13   0.0000       0.183226         4.9858

MULLIKEN ATOMIC CHARGES
-----------------------
   0 C :   -0.000110
   1 O :    0.000010
   2 H :   -0.000003
   3 H :    0.000003
   4 H :    0.000052
   5 H :    0.000007
   6 C :   -0.149138
   7 O :   -0.480633
   8 H :    0.311512
   9 H :    0.094460
  10 H :    0.103511
  11 H :    0.120330
Sum of atomic charges:   -0.0000000

LOEWDIN ATOMIC CHARGES
----------------------
   0 C :   -0.000090
   1 O :   -0.000026
   2 H :   -0.000011
   3 H :   -0.000000
   4 H :   -0.000110
   5 H :   -0.000002
   6 C :   -0.401142
   7 O :   -0.053618
   8 H :    0.146120
   9 H :    0.096159
  10 H :    0.096607
  11 H :    0.116114

  Mayer bond orders larger than 0.1
B(  6-C ,  7-O ) :   0.9877 B(  6-C ,  9-H ) :   0.9797 B(  6-C , 10-H ) :   0.9810
B(  6-C , 11-H ) :   0.9676 B(  7-O ,  8-H ) :   0.9010

Dispersion correction           -0.000224945
FINAL SINGLE POINT ENERGY      -115.730216816274

DIPOLE MOMENT
-------------
                                X             Y             Z
Electronic contribution:      0.46557      -1.59216       0.32338
Nuclear contribution   :     -0.09094       2.06796      -0.18551
                        -----------------------------------------
Total Dipole Moment    :      0.37463       0.47580       0.13786
                        -----------------------------------------
Magnitude (a.u.)       :      0.62108
Magnitude (Debye)      :      1.57866

Rotational constants in cm-1:     4.191501     0.859633     0.829049
Rotational constants in MHz : 125658.041673 25771.155901 24854.271563

                             ****ORCA TERMINATED NORMALLY****
TOTAL RUN TIME: 0 days 0 hours 5 minutes 28 seconds 463 msec
