                         Program Version 4.1.2  - RELEASE  -
|  1> #Run DFT-D3 single point of the dimer
|  2> ! wB97X-D3 def2-TZVP TIGHTSCF CHELPG PMODEL PAL8
|  3>
|  4> %base "11-80_DFT_AB"
|  5>
|  6> %scf
|  7> MaxIter 1000
|  8> end
|  9>
| 10> * xyz 0 1
| 11>   C                      8.208089             3.975349             -1.861267
| 12>   O                      7.813825             2.619600             -2.292651
| 13>   H                      7.000944             2.319256             -1.900115
| 14>   H                      8.304451             4.108650             -0.728916
| 15>   H                      9.262322             4.143959             -2.354098
| 16>   H                      7.514508             4.812777             -2.164203
| 17>   C                      5.800142             1.167734             -5.349560
| 18>   O                      5.149286             0.644954             -4.224245
| 19>   H                      4.889621             -0.272798            -4.504109
| 20>   H                      5.999497             2.296061             -5.132088
| 21>   H                      6.720259             0.635451             -5.634512
| 22>   H                      5.156302             1.094712             -6.343768
| 23> *
| 24>
| 25> #Run DFT-D3 single point of the molecule with dimer basis set
| 26> $new_job
| 27> %base "11-80_DFT_A"
| 28> ! wB97X-D3 def2-TZVP TIGHTSCF CHELPG PMODEL
| 29>
| 30> %scf
| 31> MaxIter 1000
| 32> end
| 33>
| 34> * xyz 0 1
| 35>   C                      8.208089             3.975349             -1.861267
| 36>   O                      7.813825             2.619600             -2.292651
| 37>   H                      7.000944             2.319256             -1.900115
| 38>   H                      8.304451             4.108650             -0.728916
| 39>   H                      9.262322             4.143959             -2.354098
| 40>   H                      7.514508             4.812777             -2.164203
| 41>   C                    : 5.800142             1.167734             -5.349560
| 42>   O                    : 5.149286             0.644954             -4.224245
| 43>   H                    : 4.889621             -0.272798            -4.504109
| 44>   H                    : 5.999497             2.296061             -5.132088
| 45>   H                    : 6.720259             0.635451             -5.634512
| 46>   H                    : 5.156302             1.094712             -6.343768
| 47> *
| 48>
| 49> #Run DFT-D3 single point of the particle with dimer basis set
| 50> $new_job
| 51> %base "11-80_DFT_B"
| 52> ! wB97X-D3 def2-TZVP TIGHTSCF CHELPG PMODEL
| 53>
| 54> %scf
| 55> MaxIter 1000
| 56> end
| 57>
| 58> * xyz 0 1
| 59>   C                    : 8.208089             3.975349             -1.861267
| 60>   O                    : 7.813825             2.619600             -2.292651
| 61>   H                    : 7.000944             2.319256             -1.900115
| 62>   H                    : 8.304451             4.108650             -0.728916
| 63>   H                    : 9.262322             4.143959             -2.354098
| 64>   H                    : 7.514508             4.812777             -2.164203
| 65>   C                      5.800142             1.167734             -5.349560
| 66>   O                      5.149286             0.644954             -4.224245
| 67>   H                      4.889621             -0.272798            -4.504109
| 68>   H                      5.999497             2.296061             -5.132088
| 69>   H                      6.720259             0.635451             -5.634512
| 70>   H                      5.156302             1.094712             -6.343768
| 71> *
| 72>
| 73>                          ****END OF INPUT****
 Total Charge           Charge          ....    0
 Multiplicity           Mult            ....    1
 Number of Electrons    NEL             ....   36
Dispersion correction           -0.001285606
FINAL SINGLE POINT ENERGY      -231.456011152282
Dispersion correction           -0.000325897
FINAL SINGLE POINT ENERGY      -115.726645108360

CARTESIAN COORDINATES (ANGSTROEM)
---------------------------------
  C      8.208089    3.975349   -1.861267
  O      7.813825    2.619600   -2.292651
  H      7.000944    2.319256   -1.900115
  H      8.304451    4.108650   -0.728916
  H      9.262322    4.143959   -2.354098
  H      7.514508    4.812777   -2.164203
  C      5.800142    1.167734   -5.349560
  O      5.149286    0.644954   -4.224245
  H      4.889621   -0.272798   -4.504109
  H      5.999497    2.296061   -5.132088
  H      6.720259    0.635451   -5.634512
  H      5.156302    1.094712   -6.343768

 Multiplicity           Mult            ....    1
 Number of Electrons    NEL             ....   18
 Basis Dimension        Dim             ....  172

ORBITAL ENERGIES
----------------

  NO   OCC          E(Eh)            E(eV)
   0   2.0000     -19.240161      -523.5514
   1   2.0000     -10.330265      -281.1008
   2   2.0000      -1.140612       -31.0376
   3   2.0000      -0.778620       -21.1873
   4   2.0000      -0.613290       -16.6885
   5   2.0000      -0.531195       -14.4545
   6   2.0000      -0.520365       -14.1599
   7   2.0000      -0.437071       -11.8933
   8   2.0000      -0.371614       -10.1121
   9   0.0000       0.088252         2.4015
  10   0.0000       0.109865         2.9896
  11   0.0000       0.148030         4.0281
  12   0.0000       0.170204         4.6315
  13   0.0000       0.185536         5.0487

MULLIKEN ATOMIC CHARGES
-----------------------
   0 C :   -0.000105
   1 O :    0.000115
   2 H :   -0.001364
   3 H :   -0.000005
   4 H :   -0.000008
   5 H :    0.000007
   6 C :   -0.180883
   7 O :   -0.455735
   8 H :    0.317679
   9 H :    0.122017
  10 H :    0.105206
  11 H :    0.093076
Sum of atomic charges:   -0.0000000

LOEWDIN ATOMIC CHARGES
----------------------
   0 C :   -0.000147
   1 O :   -0.000359
   2 H :   -0.001284
   3 H :   -0.000002
   4 H :   -0.000005
   5 H :   -0.000017
   6 C :   -0.425916
   7 O :   -0.078603
   8 H :    0.192288
   9 H :    0.121459
  10 H :    0.090517
  11 H :    0.102069

  Mayer bond orders larger than 0.1
B(  6-C ,  7-O ) :   1.0014 B(  6-C ,  9-H ) :   0.9718 B(  6-C , 10-H ) :   0.9645
B(  6-C , 11-H ) :   0.9699 B(  7-O ,  8-H ) :   0.8930

Dispersion correction           -0.000257090
FINAL SINGLE POINT ENERGY      -115.727461094688

DIPOLE MOMENT
-------------
                                X             Y             Z
Electronic contribution:     -0.77109      -0.61043       1.71799
Nuclear contribution   :      0.85828       0.22366      -2.27750
                        -----------------------------------------
Total Dipole Moment    :      0.08719      -0.38677      -0.55951
                        -----------------------------------------
Magnitude (a.u.)       :      0.68575
Magnitude (Debye)      :      1.74303

Rotational constants in cm-1:     3.893184     0.838988     0.793861
Rotational constants in MHz : 116714.721921 25152.230540 23799.356561

                             ****ORCA TERMINATED NORMALLY****
TOTAL RUN TIME: 0 days 0 hours 1 minutes 12 seconds 722 msec
