                         Program Version 4.1.2  - RELEASE  -
|  1> #Run DFT-D3 single point of the dimer
|  2> ! wB97X-D3 def2-TZVP TIGHTSCF CHELPG PMODEL PAL8
|  3>
|  4> %base "21-193_DFT_AB"
|  5>
|  6> %scf
|  7> MaxIter 1000
|  8> end
|  9>
| 10> * xyz 0 1
| 11>   C                      -0.485163            3.922118             5.725866
| 12>   O                      0.047863             2.990680             6.609788
| 13>   H                      0.912320             3.261742             6.846728
| 14>   H                      -1.565628            4.196665             5.887215
| 15>   H                      0.170080             4.812169             5.724016
| 16>   H                      -0.569948            3.523899             4.712004
| 17>   C                      3.235561             4.551749             5.934133
| 18>   O                      2.594535             4.358241             7.218356
| 19>   H                      3.030707             4.934264             7.863506
| 20>   H                      4.267933             4.089265             5.970276
| 21>   H                      2.610780             4.061850             5.130225
| 22>   H                      3.285283             5.611217             5.737462
| 23> *
| 24>
| 25> #Run DFT-D3 single point of the molecule with dimer basis set
| 26> $new_job
| 27> %base "21-193_DFT_A"
| 28> ! wB97X-D3 def2-TZVP TIGHTSCF CHELPG PMODEL
| 29>
| 30> %scf
| 31> MaxIter 1000
| 32> end
| 33>
| 34> * xyz 0 1
| 35>   C                      -0.485163            3.922118             5.725866
| 36>   O                      0.047863             2.990680             6.609788
| 37>   H                      0.912320             3.261742             6.846728
| 38>   H                      -1.565628            4.196665             5.887215
| 39>   H                      0.170080             4.812169             5.724016
| 40>   H                      -0.569948            3.523899             4.712004
| 41>   C                    : 3.235561             4.551749             5.934133
| 42>   O                    : 2.594535             4.358241             7.218356
| 43>   H                    : 3.030707             4.934264             7.863506
| 44>   H                    : 4.267933             4.089265             5.970276
| 45>   H                    : 2.610780             4.061850             5.130225
| 46>   H                    : 3.285283             5.611217             5.737462
| 47> *
| 48>
| 49> #Run DFT-D3 single point of the particle with dimer basis set
| 50> $new_job
| 51> %base "21-193_DFT_B"
| 52> ! wB97X-D3 def2-TZVP TIGHTSCF CHELPG PMODEL
| 53>
| 54> %scf
| 55> MaxIter 1000
| 56> end
| 57>
| 58> * xyz 0 1
| 59>   C                    : -0.485163            3.922118             5.725866
| 60>   O                    : 0.047863             2.990680             6.609788
| 61>   H                    : 0.912320             3.261742             6.846728
| 62>   H                    : -1.565628            4.196665             5.887215
| 63>   H                    : 0.170080             4.812169             5.724016
| 64>   H                    : -0.569948            3.523899             4.712004
| 65>   C                      3.235561             4.551749             5.934133
| 66>   O                      2.594535             4.358241             7.218356
| 67>   H                      3.030707             4.934264             7.863506
| 68>   H                      4.267933             4.089265             5.970276
| 69>   H                      2.610780             4.061850             5.130225
| 70>   H                      3.285283             5.611217             5.737462
| 71> *
| 72>
| 73>                          ****END OF INPUT****
 Total Charge           Charge          ....    0
 Multiplicity           Mult            ....    1
 Number of Electrons    NEL             ....   36
Dispersion correction           -0.002162682
FINAL SINGLE POINT ENERGY      -231.473751410480
Dispersion correction           -0.000245064
FINAL SINGLE POINT ENERGY      -115.730884257375

CARTESIAN COORDINATES (ANGSTROEM)
---------------------------------
  C     -0.485163    3.922118    5.725866
  O      0.047863    2.990680    6.609788
  H      0.912320    3.261742    6.846728
  H     -1.565628    4.196665    5.887215
  H      0.170080    4.812169    5.724016
  H     -0.569948    3.523899    4.712004
  C      3.235561    4.551749    5.934133
  O      2.594535    4.358241    7.218356
  H      3.030707    4.934264    7.863506
  H      4.267933    4.089265    5.970276
  H      2.610780    4.061850    5.130225
  H      3.285283    5.611217    5.737462

 Multiplicity           Mult            ....    1
 Number of Electrons    NEL             ....   18
 Basis Dimension        Dim             ....  172

ORBITAL ENERGIES
----------------

  NO   OCC          E(Eh)            E(eV)
   0   2.0000     -19.228655      -523.2383
   1   2.0000     -10.322462      -280.8885
   2   2.0000      -1.123657       -30.5763
   3   2.0000      -0.790208       -21.5026
   4   2.0000      -0.600794       -16.3484
   5   2.0000      -0.540135       -14.6978
   6   2.0000      -0.520913       -14.1748
   7   2.0000      -0.432323       -11.7641
   8   2.0000      -0.373113       -10.1529
   9   0.0000       0.095219         2.5910
  10   0.0000       0.123974         3.3735
  11   0.0000       0.151787         4.1303
  12   0.0000       0.185523         5.0483
  13   0.0000       0.197474         5.3735

MULLIKEN ATOMIC CHARGES
-----------------------
   0 C :    0.001379
   1 O :    0.000065
   2 H :   -0.007898
   3 H :    0.000043
   4 H :   -0.002156
   5 H :   -0.000387
   6 C :   -0.167563
   7 O :   -0.476096
   8 H :    0.308605
   9 H :    0.109235
  10 H :    0.122549
  11 H :    0.112226
Sum of atomic charges:    0.0000000

LOEWDIN ATOMIC CHARGES
----------------------
   0 C :   -0.006108
   1 O :   -0.003425
   2 H :   -0.029688
   3 H :   -0.000018
   4 H :   -0.003673
   5 H :   -0.000189
   6 C :   -0.359647
   7 O :   -0.080316
   8 H :    0.168462
   9 H :    0.103392
  10 H :    0.118358
  11 H :    0.092851

  Mayer bond orders larger than 0.1
B(  6-C ,  7-O ) :   0.9751 B(  6-C ,  9-H ) :   0.9706 B(  6-C , 10-H ) :   0.9746
B(  6-C , 11-H ) :   0.9766 B(  7-O ,  8-H ) :   0.8989

Dispersion correction           -0.000248175
FINAL SINGLE POINT ENERGY      -115.734192568700

DIPOLE MOMENT
-------------
                                X             Y             Z
Electronic contribution:     -0.86651      -0.30082       1.47432
Nuclear contribution   :      1.40332       0.76246      -1.60592
                        -----------------------------------------
Total Dipole Moment    :      0.53681       0.46165      -0.13160
                        -----------------------------------------
Magnitude (a.u.)       :      0.72014
Magnitude (Debye)      :      1.83044

Rotational constants in cm-1:     4.077972     0.801430     0.774470
Rotational constants in MHz : 122254.522191 24026.260739 23218.036167

                             ****ORCA TERMINATED NORMALLY****
TOTAL RUN TIME: 0 days 0 hours 1 minutes 8 seconds 247 msec
