                         Program Version 4.1.2  - RELEASE  -
|  1> #Run DFT-D3 single point of the dimer
|  2> ! wB97X-D3 def2-TZVP TIGHTSCF CHELPG PMODEL PAL8
|  3>
|  4> %base "16-8_DFT_AB"
|  5>
|  6> %scf
|  7> MaxIter 1000
|  8> end
|  9>
| 10> * xyz 0 1
| 11>   C                      -3.613576            2.949622             3.934506
| 12>   O                      -3.601508            3.698823             5.159507
| 13>   H                      -2.638820            3.713132             5.390762
| 14>   H                      -2.909974            3.467466             3.239017
| 15>   H                      -3.265800            1.935287             3.994618
| 16>   H                      -4.596142            2.930245             3.440482
| 17>   C                      -6.937713            2.373086             6.655401
| 18>   O                      -5.794244            1.905989             5.977256
| 19>   H                      -5.128187            2.605545             6.038818
| 20>   H                      -6.876055            2.211186             7.722361
| 21>   H                      -7.201990            3.407024             6.351372
| 22>   H                      -7.791973            1.711379             6.400325
| 23> *
| 24>
| 25> #Run DFT-D3 single point of the molecule with dimer basis set
| 26> $new_job
| 27> %base "16-8_DFT_A"
| 28> ! wB97X-D3 def2-TZVP TIGHTSCF CHELPG PMODEL
| 29>
| 30> %scf
| 31> MaxIter 1000
| 32> end
| 33>
| 34> * xyz 0 1
| 35>   C                      -3.613576            2.949622             3.934506
| 36>   O                      -3.601508            3.698823             5.159507
| 37>   H                      -2.638820            3.713132             5.390762
| 38>   H                      -2.909974            3.467466             3.239017
| 39>   H                      -3.265800            1.935287             3.994618
| 40>   H                      -4.596142            2.930245             3.440482
| 41>   C                    : -6.937713            2.373086             6.655401
| 42>   O                    : -5.794244            1.905989             5.977256
| 43>   H                    : -5.128187            2.605545             6.038818
| 44>   H                    : -6.876055            2.211186             7.722361
| 45>   H                    : -7.201990            3.407024             6.351372
| 46>   H                    : -7.791973            1.711379             6.400325
| 47> *
| 48>
| 49> #Run DFT-D3 single point of the particle with dimer basis set
| 50> $new_job
| 51> %base "16-8_DFT_B"
| 52> ! wB97X-D3 def2-TZVP TIGHTSCF CHELPG PMODEL
| 53>
| 54> %scf
| 55> MaxIter 1000
| 56> end
| 57>
| 58> * xyz 0 1
| 59>   C                    : -3.613576            2.949622             3.934506
| 60>   O                    : -3.601508            3.698823             5.159507
| 61>   H                    : -2.638820            3.713132             5.390762
| 62>   H                    : -2.909974            3.467466             3.239017
| 63>   H                    : -3.265800            1.935287             3.994618
| 64>   H                    : -4.596142            2.930245             3.440482
| 65>   C                      -6.937713            2.373086             6.655401
| 66>   O                      -5.794244            1.905989             5.977256
| 67>   H                      -5.128187            2.605545             6.038818
| 68>   H                      -6.876055            2.211186             7.722361
| 69>   H                      -7.201990            3.407024             6.351372
| 70>   H                      -7.791973            1.711379             6.400325
| 71> *
| 72>
| 73>                          ****END OF INPUT****
 Total Charge           Charge          ....    0
 Multiplicity           Mult            ....    1
 Number of Electrons    NEL             ....   36
Dispersion correction           -0.001770166
FINAL SINGLE POINT ENERGY      -231.475750810172
Dispersion correction           -0.000238810
FINAL SINGLE POINT ENERGY      -115.732396136243

CARTESIAN COORDINATES (ANGSTROEM)
---------------------------------
  C     -3.613576    2.949622    3.934506
  O     -3.601508    3.698823    5.159507
  H     -2.638820    3.713132    5.390762
  H     -2.909974    3.467466    3.239017
  H     -3.265800    1.935287    3.994618
  H     -4.596142    2.930245    3.440482
  C     -6.937713    2.373086    6.655401
  O     -5.794244    1.905989    5.977256
  H     -5.128187    2.605545    6.038818
  H     -6.876055    2.211186    7.722361
  H     -7.201990    3.407024    6.351372
  H     -7.791973    1.711379    6.400325

 Multiplicity           Mult            ....    1
 Number of Electrons    NEL             ....   18
 Basis Dimension        Dim             ....  172

ORBITAL ENERGIES
----------------

  NO   OCC          E(Eh)            E(eV)
   0   2.0000     -19.232736      -523.3494
   1   2.0000     -10.314567      -280.6736
   2   2.0000      -1.137833       -30.9620
   3   2.0000      -0.793753       -21.5991
   4   2.0000      -0.607722       -16.5370
   5   2.0000      -0.550196       -14.9716
   6   2.0000      -0.524098       -14.2614
   7   2.0000      -0.430603       -11.7173
   8   2.0000      -0.375348       -10.2137
   9   0.0000       0.078026         2.1232
  10   0.0000       0.130978         3.5641
  11   0.0000       0.155392         4.2284
  12   0.0000       0.169543         4.6135
  13   0.0000       0.192276         5.2321

MULLIKEN ATOMIC CHARGES
-----------------------
   0 C :   -0.002160
   1 O :   -0.001256
   2 H :   -0.000153
   3 H :   -0.000341
   4 H :   -0.000413
   5 H :   -0.004456
   6 C :   -0.169994
   7 O :   -0.460772
   8 H :    0.313914
   9 H :    0.107688
  10 H :    0.102234
  11 H :    0.115708
Sum of atomic charges:    0.0000000

LOEWDIN ATOMIC CHARGES
----------------------
   0 C :   -0.014223
   1 O :   -0.013321
   2 H :   -0.000686
   3 H :   -0.000162
   4 H :   -0.000904
   5 H :   -0.003688
   6 C :   -0.395295
   7 O :   -0.059333
   8 H :    0.183614
   9 H :    0.092871
  10 H :    0.099089
  11 H :    0.112036

  Mayer bond orders larger than 0.1
B(  6-C ,  7-O ) :   1.0028 B(  6-C ,  9-H ) :   0.9742 B(  6-C , 10-H ) :   0.9762
B(  6-C , 11-H ) :   0.9755 B(  7-O ,  8-H ) :   0.9007

Dispersion correction           -0.000242509
FINAL SINGLE POINT ENERGY      -115.735088628864

DIPOLE MOMENT
-------------
                                X             Y             Z
Electronic contribution:      1.46373      -0.63773      -0.86845
Nuclear contribution   :     -1.51723       1.23471       1.17655
                        -----------------------------------------
Total Dipole Moment    :     -0.05350       0.59698       0.30810
                        -----------------------------------------
Magnitude (a.u.)       :      0.67393
Magnitude (Debye)      :      1.71299

Rotational constants in cm-1:     4.241585     0.835470     0.804862
Rotational constants in MHz : 127159.515403 25046.747593 24129.160488

                             ****ORCA TERMINATED NORMALLY****
TOTAL RUN TIME: 0 days 0 hours 1 minutes 3 seconds 518 msec
