                         Program Version 4.1.2  - RELEASE  -
|  1> #Run DFT-D3 single point of the dimer
|  2> ! wB97X-D3 def2-TZVP TIGHTSCF CHELPG PMODEL PAL8
|  3>
|  4> %base "21-124_DFT_AB"
|  5>
|  6> %scf
|  7> MaxIter 1000
|  8> end
|  9>
| 10> * xyz 0 1
| 11>   C                      1.481568             11.224175            -2.803278
| 12>   O                      0.321357             11.451695            -2.041558
| 13>   H                      0.369444             10.797276            -1.331065
| 14>   H                      1.394443             11.678209            -3.848719
| 15>   H                      2.332418             11.683921            -2.407907
| 16>   H                      1.728114             10.183127            -2.905787
| 17>   C                      1.064836             10.403060            1.959708
| 18>   O                      0.921461             9.305629             1.099116
| 19>   H                      1.660101             8.748959             1.207532
| 20>   H                      1.417389             10.046724            2.966692
| 21>   H                      1.741924             11.090266            1.572753
| 22>   H                      0.205987             11.068615            2.164938
| 23> *
| 24>
| 25> #Run DFT-D3 single point of the molecule with dimer basis set
| 26> $new_job
| 27> %base "21-124_DFT_A"
| 28> ! wB97X-D3 def2-TZVP TIGHTSCF CHELPG PMODEL
| 29>
| 30> %scf
| 31> MaxIter 1000
| 32> end
| 33>
| 34> * xyz 0 1
| 35>   C                      1.481568             11.224175            -2.803278
| 36>   O                      0.321357             11.451695            -2.041558
| 37>   H                      0.369444             10.797276            -1.331065
| 38>   H                      1.394443             11.678209            -3.848719
| 39>   H                      2.332418             11.683921            -2.407907
| 40>   H                      1.728114             10.183127            -2.905787
| 41>   C                    : 1.064836             10.403060            1.959708
| 42>   O                    : 0.921461             9.305629             1.099116
| 43>   H                    : 1.660101             8.748959             1.207532
| 44>   H                    : 1.417389             10.046724            2.966692
| 45>   H                    : 1.741924             11.090266            1.572753
| 46>   H                    : 0.205987             11.068615            2.164938
| 47> *
| 48>
| 49> #Run DFT-D3 single point of the particle with dimer basis set
| 50> $new_job
| 51> %base "21-124_DFT_B"
| 52> ! wB97X-D3 def2-TZVP TIGHTSCF CHELPG PMODEL
| 53>
| 54> %scf
| 55> MaxIter 1000
| 56> end
| 57>
| 58> * xyz 0 1
| 59>   C                    : 1.481568             11.224175            -2.803278
| 60>   O                    : 0.321357             11.451695            -2.041558
| 61>   H                    : 0.369444             10.797276            -1.331065
| 62>   H                    : 1.394443             11.678209            -3.848719
| 63>   H                    : 2.332418             11.683921            -2.407907
| 64>   H                    : 1.728114             10.183127            -2.905787
| 65>   C                      1.064836             10.403060            1.959708
| 66>   O                      0.921461             9.305629             1.099116
| 67>   H                      1.660101             8.748959             1.207532
| 68>   H                      1.417389             10.046724            2.966692
| 69>   H                      1.741924             11.090266            1.572753
| 70>   H                      0.205987             11.068615            2.164938
| 71> *
| 72>
| 73>                          ****END OF INPUT****
 Total Charge           Charge          ....    0
 Multiplicity           Mult            ....    1
 Number of Electrons    NEL             ....   36
Dispersion correction           -0.001351359
FINAL SINGLE POINT ENERGY      -231.463919252658
Dispersion correction           -0.000233290
FINAL SINGLE POINT ENERGY      -115.732100385766

CARTESIAN COORDINATES (ANGSTROEM)
---------------------------------
  C      1.481568   11.224175   -2.803278
  O      0.321357   11.451695   -2.041558
  H      0.369444   10.797276   -1.331065
  H      1.394443   11.678209   -3.848719
  H      2.332418   11.683921   -2.407907
  H      1.728114   10.183127   -2.905787
  C      1.064836   10.403060    1.959708
  O      0.921461    9.305629    1.099116
  H      1.660101    8.748959    1.207532
  H      1.417389   10.046724    2.966692
  H      1.741924   11.090266    1.572753
  H      0.205987   11.068615    2.164938

 Multiplicity           Mult            ....    1
 Number of Electrons    NEL             ....   18
 Basis Dimension        Dim             ....  172

ORBITAL ENERGIES
----------------

  NO   OCC          E(Eh)            E(eV)
   0   2.0000     -19.228807      -523.2424
   1   2.0000     -10.311873      -280.6003
   2   2.0000      -1.146343       -31.1936
   3   2.0000      -0.801681       -21.8148
   4   2.0000      -0.616751       -16.7826
   5   2.0000      -0.548803       -14.9337
   6   2.0000      -0.533794       -14.5253
   7   2.0000      -0.425880       -11.5888
   8   2.0000      -0.374927       -10.2023
   9   0.0000       0.091456         2.4887
  10   0.0000       0.123045         3.3482
  11   0.0000       0.150313         4.0902
  12   0.0000       0.182306         4.9608
  13   0.0000       0.192899         5.2490

MULLIKEN ATOMIC CHARGES
-----------------------
   0 C :   -0.001036
   1 O :    0.000410
   2 H :   -0.002280
   3 H :   -0.000067
   4 H :    0.000046
   5 H :   -0.000277
   6 C :   -0.170446
   7 O :   -0.469608
   8 H :    0.314689
   9 H :    0.097556
  10 H :    0.112024
  11 H :    0.118987
Sum of atomic charges:    0.0000000

LOEWDIN ATOMIC CHARGES
----------------------
   0 C :   -0.000599
   1 O :   -0.000166
   2 H :   -0.005194
   3 H :   -0.000017
   4 H :   -0.000020
   5 H :   -0.000143
   6 C :   -0.394197
   7 O :   -0.050593
   8 H :    0.154108
   9 H :    0.101792
  10 H :    0.083282
  11 H :    0.111747

  Mayer bond orders larger than 0.1
B(  6-C ,  7-O ) :   0.9851 B(  6-C ,  9-H ) :   0.9847 B(  6-C , 10-H ) :   0.9791
B(  6-C , 11-H ) :   0.9722 B(  7-O ,  8-H ) :   0.9011

Dispersion correction           -0.000235713
FINAL SINGLE POINT ENERGY      -115.727747412034

DIPOLE MOMENT
-------------
                                X             Y             Z
Electronic contribution:     -0.35762      -1.41449      -1.25558
Nuclear contribution   :      0.89549       1.50915       1.66609
                        -----------------------------------------
Total Dipole Moment    :      0.53788       0.09465       0.41051
                        -----------------------------------------
Magnitude (a.u.)       :      0.68322
Magnitude (Debye)      :      1.73660

Rotational constants in cm-1:     4.554110     0.834230     0.803698
Rotational constants in MHz : 136528.791539 25009.586418 24094.274877

                             ****ORCA TERMINATED NORMALLY****
TOTAL RUN TIME: 0 days 0 hours 0 minutes 55 seconds 837 msec
