                         Program Version 4.1.2  - RELEASE  -
|  1> #Run DFT-D3 single point of the dimer
|  2> ! wB97X-D3 def2-TZVP TIGHTSCF CHELPG PMODEL PAL8
|  3>
|  4> %base "19-202_DFT_AB"
|  5>
|  6> %scf
|  7> MaxIter 1000
|  8> end
|  9>
| 10> * xyz 0 1
| 11>   C                      -7.990486            -4.213735            7.700667
| 12>   O                      -7.204821            -4.225652            8.851542
| 13>   H                      -6.352141            -3.844062            8.557284
| 14>   H                      -8.004291            -5.220981            7.216581
| 15>   H                      -9.041679            -4.169610            8.056314
| 16>   H                      -7.718613            -3.386395            6.999404
| 17>   C                      -6.295172            -0.932665            9.024132
| 18>   O                      -5.551728            -2.079553            8.661784
| 19>   H                      -4.841213            -2.128622            9.347700
| 20>   H                      -5.825474            -0.144839            9.515437
| 21>   H                      -6.774904            -0.515204            8.099150
| 22>   H                      -7.126621            -1.110847            9.700110
| 23> *
| 24>
| 25> #Run DFT-D3 single point of the molecule with dimer basis set
| 26> $new_job
| 27> %base "19-202_DFT_A"
| 28> ! wB97X-D3 def2-TZVP TIGHTSCF CHELPG PMODEL
| 29>
| 30> %scf
| 31> MaxIter 1000
| 32> end
| 33>
| 34> * xyz 0 1
| 35>   C                      -7.990486            -4.213735            7.700667
| 36>   O                      -7.204821            -4.225652            8.851542
| 37>   H                      -6.352141            -3.844062            8.557284
| 38>   H                      -8.004291            -5.220981            7.216581
| 39>   H                      -9.041679            -4.169610            8.056314
| 40>   H                      -7.718613            -3.386395            6.999404
| 41>   C                    : -6.295172            -0.932665            9.024132
| 42>   O                    : -5.551728            -2.079553            8.661784
| 43>   H                    : -4.841213            -2.128622            9.347700
| 44>   H                    : -5.825474            -0.144839            9.515437
| 45>   H                    : -6.774904            -0.515204            8.099150
| 46>   H                    : -7.126621            -1.110847            9.700110
| 47> *
| 48>
| 49> #Run DFT-D3 single point of the particle with dimer basis set
| 50> $new_job
| 51> %base "19-202_DFT_B"
| 52> ! wB97X-D3 def2-TZVP TIGHTSCF CHELPG PMODEL
| 53>
| 54> %scf
| 55> MaxIter 1000
| 56> end
| 57>
| 58> * xyz 0 1
| 59>   C                    : -7.990486            -4.213735            7.700667
| 60>   O                    : -7.204821            -4.225652            8.851542
| 61>   H                    : -6.352141            -3.844062            8.557284
| 62>   H                    : -8.004291            -5.220981            7.216581
| 63>   H                    : -9.041679            -4.169610            8.056314
| 64>   H                    : -7.718613            -3.386395            6.999404
| 65>   C                      -6.295172            -0.932665            9.024132
| 66>   O                      -5.551728            -2.079553            8.661784
| 67>   H                      -4.841213            -2.128622            9.347700
| 68>   H                      -5.825474            -0.144839            9.515437
| 69>   H                      -6.774904            -0.515204            8.099150
| 70>   H                      -7.126621            -1.110847            9.700110
| 71> *
| 72>
| 73>                          ****END OF INPUT****
 Total Charge           Charge          ....    0
 Multiplicity           Mult            ....    1
 Number of Electrons    NEL             ....   36
Dispersion correction           -0.002075510
FINAL SINGLE POINT ENERGY      -231.466587739346
Dispersion correction           -0.000237660
FINAL SINGLE POINT ENERGY      -115.731839817291

CARTESIAN COORDINATES (ANGSTROEM)
---------------------------------
  C     -7.990486   -4.213735    7.700667
  O     -7.204821   -4.225652    8.851542
  H     -6.352141   -3.844062    8.557284
  H     -8.004291   -5.220981    7.216581
  H     -9.041679   -4.169610    8.056314
  H     -7.718613   -3.386395    6.999404
  C     -6.295172   -0.932665    9.024132
  O     -5.551728   -2.079553    8.661784
  H     -4.841213   -2.128622    9.347700
  H     -5.825474   -0.144839    9.515437
  H     -6.774904   -0.515204    8.099150
  H     -7.126621   -1.110847    9.700110

 Multiplicity           Mult            ....    1
 Number of Electrons    NEL             ....   18
 Basis Dimension        Dim             ....  172

ORBITAL ENERGIES
----------------

  NO   OCC          E(Eh)            E(eV)
   0   2.0000     -19.240021      -523.5476
   1   2.0000     -10.308703      -280.5141
   2   2.0000      -1.136174       -30.9169
   3   2.0000      -0.798491       -21.7280
   4   2.0000      -0.618513       -16.8306
   5   2.0000      -0.532550       -14.4914
   6   2.0000      -0.522551       -14.2193
   7   2.0000      -0.445518       -12.1232
   8   2.0000      -0.374129       -10.1806
   9   0.0000       0.097243         2.6461
  10   0.0000       0.124188         3.3793
  11   0.0000       0.148165         4.0318
  12   0.0000       0.185340         5.0434
  13   0.0000       0.193137         5.2555

MULLIKEN ATOMIC CHARGES
-----------------------
   0 C :    0.003927
   1 O :    0.001737
   2 H :   -0.013087
   3 H :   -0.000084
   4 H :   -0.000208
   5 H :   -0.002073
   6 C :   -0.184838
   7 O :   -0.454766
   8 H :    0.315704
   9 H :    0.120183
  10 H :    0.111950
  11 H :    0.101554
Sum of atomic charges:   -0.0000000

LOEWDIN ATOMIC CHARGES
----------------------
   0 C :   -0.004095
   1 O :   -0.010392
   2 H :   -0.041897
   3 H :   -0.000037
   4 H :   -0.000054
   5 H :   -0.001324
   6 C :   -0.394727
   7 O :   -0.032245
   8 H :    0.190357
   9 H :    0.085725
  10 H :    0.114363
  11 H :    0.094326

  Mayer bond orders larger than 0.1
B(  6-C ,  7-O ) :   1.0020 B(  6-C ,  9-H ) :   0.9694 B(  6-C , 10-H ) :   0.9817
B(  6-C , 11-H ) :   0.9742 B(  7-O ,  8-H ) :   0.8961

Dispersion correction           -0.000255298
FINAL SINGLE POINT ENERGY      -115.729428443990

DIPOLE MOMENT
-------------
                                X             Y             Z
Electronic contribution:      1.06168      -1.56543      -0.56024
Nuclear contribution   :     -0.88552       2.00212       1.14009
                        -----------------------------------------
Total Dipole Moment    :      0.17616       0.43669       0.57986
                        -----------------------------------------
Magnitude (a.u.)       :      0.74697
Magnitude (Debye)      :      1.89865

Rotational constants in cm-1:     4.450221     0.827295     0.788286
Rotational constants in MHz : 133414.278150 24801.678231 23632.216217

                             ****ORCA TERMINATED NORMALLY****
TOTAL RUN TIME: 0 days 0 hours 0 minutes 52 seconds 252 msec
