                         Program Version 4.1.2  - RELEASE  -
|  1> #Run DFT geometry optimization
|  2> ! wB97X-D3 def2-TZVP TIGHTSCF Grid5 FinalGrid6 Opt CHELPG PAL4
|  3>
|  4> %base "4_geo_opt"
|  5> %geom MaxIter 500
|  6> end
|  7>
|  8> %geom
|  9>   Constraints
| 10>     { A 2 1 0 C }
| 11>   end
| 12> end
| 13>
| 14>
| 15> * xyz 0 1
| 16>   C                    3.011205             -1.181899            0.599201
| 17>   O                    4.394673             -1.128050            0.874308
| 18>   H                    4.772949             -0.379211            0.412803
| 19>   H                    2.806434             -1.318965            -0.469350
| 20>   H                    2.611632             -2.040265            1.135898
| 21>   H                    2.484757             -0.284491            0.945659
| 22> *
| 23>
| 24>                          ****END OF INPUT****
 Total Charge           Charge          ....    0
 Multiplicity           Mult            ....    1
 Number of Electrons    NEL             ....   18
Dispersion correction           -0.000239415
FINAL SINGLE POINT ENERGY      -115.738049523047
Dispersion correction            ... done
Dispersion correction           -0.000239410
FINAL SINGLE POINT ENERGY      -115.738050948381
Dispersion correction            ... done
                    ***********************HURRAY********************

CARTESIAN COORDINATES (ANGSTROEM)
---------------------------------
  C      3.011319   -1.181173    0.598688
  O      4.394537   -1.128019    0.874221
  H      4.773291   -0.379311    0.412996
  H      2.806215   -1.319068   -0.469134
  H      2.611668   -2.040550    1.136127
  H      2.484620   -0.284761    0.945621

 Multiplicity           Mult            ....    1
 Number of Electrons    NEL             ....   18
 Basis Dimension        Dim             ....   86

ORBITAL ENERGIES
----------------

  NO   OCC          E(Eh)            E(eV)
   0   2.0000     -19.228037      -523.2215
   1   2.0000     -10.315104      -280.6882
   2   2.0000      -1.136794       -30.9337
   3   2.0000      -0.795386       -21.6436
   4   2.0000      -0.611653       -16.6439
   5   2.0000      -0.541734       -14.7413
   6   2.0000      -0.526391       -14.3238
   7   2.0000      -0.433679       -11.8010
   8   2.0000      -0.373573       -10.1654
   9   0.0000       0.116665         3.1746
  10   0.0000       0.156666         4.2631
  11   0.0000       0.202592         5.5128
  12   0.0000       0.205138         5.5821
  13   0.0000       0.226410         6.1609

MULLIKEN ATOMIC CHARGES
-----------------------
   0 C :   -0.150624
   1 O :   -0.477823
   2 H :    0.313053
   3 H :    0.098574
   4 H :    0.118242
   5 H :    0.098578
Sum of atomic charges:   -0.0000000

LOEWDIN ATOMIC CHARGES
----------------------
   0 C :   -0.385230
   1 O :   -0.075978
   2 H :    0.165735
   3 H :    0.093384
   4 H :    0.108705
   5 H :    0.093383

  Mayer bond orders larger than 0.1
B(  0-C ,  1-O ) :   0.9986 B(  0-C ,  3-H ) :   0.9755 B(  0-C ,  4-H ) :   0.9749
B(  0-C ,  5-H ) :   0.9755 B(  1-O ,  2-H ) :   0.9001

Dispersion correction           -0.000239461
FINAL SINGLE POINT ENERGY      -115.738051063060

DIPOLE MOMENT
-------------
                                X             Y             Z
Electronic contribution:      1.75584      -0.02785       0.41945
Nuclear contribution   :     -2.06479       0.47538      -0.81682
                        -----------------------------------------
Total Dipole Moment    :     -0.30895       0.44753      -0.39736
                        -----------------------------------------
Magnitude (a.u.)       :      0.67352
Magnitude (Debye)      :      1.71195

Rotational constants in cm-1:     4.294280     0.833842     0.804957
Rotational constants in MHz : 128739.272719 24997.960623 24132.008710

                             ****ORCA TERMINATED NORMALLY****
TOTAL RUN TIME: 0 days 0 hours 0 minutes 40 seconds 433 msec
