                         Program Version 4.1.2  - RELEASE  -
|  1> #Run DFT-D3 single point of the dimer
|  2> ! wB97X-D3 def2-TZVP TIGHTSCF CHELPG PMODEL PAL8
|  3>
|  4> %base "15-186_DFT_AB"
|  5>
|  6> %scf
|  7> MaxIter 1000
|  8> end
|  9>
| 10> * xyz 0 1
| 11>   C                      -9.601561            9.282581             9.896545
| 12>   O                      -9.390411            7.894257             9.876314
| 13>   H                      -10.174953           7.530108             10.372630
| 14>   H                      -10.404894           9.461432             9.192427
| 15>   H                      -10.039641           9.662128             10.858120
| 16>   H                      -8.695965            9.929362             9.676368
| 17>   C                      -6.114024            8.217953             11.319970
| 18>   O                      -6.506104            7.313541             10.325054
| 19>   H                      -7.314344            7.551662             9.853109
| 20>   H                      -6.957118            8.547202             11.909037
| 21>   H                      -5.291610            7.829700             11.945249
| 22>   H                      -5.756528            9.143147             10.897485
| 23> *
| 24>
| 25> #Run DFT-D3 single point of the molecule with dimer basis set
| 26> $new_job
| 27> %base "15-186_DFT_A"
| 28> ! wB97X-D3 def2-TZVP TIGHTSCF CHELPG PMODEL
| 29>
| 30> %scf
| 31> MaxIter 1000
| 32> end
| 33>
| 34> * xyz 0 1
| 35>   C                      -9.601561            9.282581             9.896545
| 36>   O                      -9.390411            7.894257             9.876314
| 37>   H                      -10.174953           7.530108             10.372630
| 38>   H                      -10.404894           9.461432             9.192427
| 39>   H                      -10.039641           9.662128             10.858120
| 40>   H                      -8.695965            9.929362             9.676368
| 41>   C                    : -6.114024            8.217953             11.319970
| 42>   O                    : -6.506104            7.313541             10.325054
| 43>   H                    : -7.314344            7.551662             9.853109
| 44>   H                    : -6.957118            8.547202             11.909037
| 45>   H                    : -5.291610            7.829700             11.945249
| 46>   H                    : -5.756528            9.143147             10.897485
| 47> *
| 48>
| 49> #Run DFT-D3 single point of the particle with dimer basis set
| 50> $new_job
| 51> %base "15-186_DFT_B"
| 52> ! wB97X-D3 def2-TZVP TIGHTSCF CHELPG PMODEL
| 53>
| 54> %scf
| 55> MaxIter 1000
| 56> end
| 57>
| 58> * xyz 0 1
| 59>   C                    : -9.601561            9.282581             9.896545
| 60>   O                    : -9.390411            7.894257             9.876314
| 61>   H                    : -10.174953           7.530108             10.372630
| 62>   H                    : -10.404894           9.461432             9.192427
| 63>   H                    : -10.039641           9.662128             10.858120
| 64>   H                    : -8.695965            9.929362             9.676368
| 65>   C                      -6.114024            8.217953             11.319970
| 66>   O                      -6.506104            7.313541             10.325054
| 67>   H                      -7.314344            7.551662             9.853109
| 68>   H                      -6.957118            8.547202             11.909037
| 69>   H                      -5.291610            7.829700             11.945249
| 70>   H                      -5.756528            9.143147             10.897485
| 71> *
| 72>
| 73>                          ****END OF INPUT****
 Total Charge           Charge          ....    0
 Multiplicity           Mult            ....    1
 Number of Electrons    NEL             ....   36
Dispersion correction           -0.002036674
FINAL SINGLE POINT ENERGY      -231.468950255425
Dispersion correction           -0.000229821
FINAL SINGLE POINT ENERGY      -115.728888226693

CARTESIAN COORDINATES (ANGSTROEM)
---------------------------------
  C     -9.601561    9.282581    9.896545
  O     -9.390411    7.894257    9.876314
  H    -10.174953    7.530108   10.372630
  H    -10.404894    9.461432    9.192427
  H    -10.039641    9.662128   10.858120
  H     -8.695965    9.929362    9.676368
  C     -6.114024    8.217953   11.319970
  O     -6.506104    7.313541   10.325054
  H     -7.314344    7.551662    9.853109
  H     -6.957118    8.547202   11.909037
  H     -5.291610    7.829700   11.945249
  H     -5.756528    9.143147   10.897485

 Multiplicity           Mult            ....    1
 Number of Electrons    NEL             ....   18
 Basis Dimension        Dim             ....  172

ORBITAL ENERGIES
----------------

  NO   OCC          E(Eh)            E(eV)
   0   2.0000     -19.228119      -523.2237
   1   2.0000     -10.310405      -280.5604
   2   2.0000      -1.134648       -30.8753
   3   2.0000      -0.799516       -21.7559
   4   2.0000      -0.618282       -16.8243
   5   2.0000      -0.538435       -14.6516
   6   2.0000      -0.531636       -14.4665
   7   2.0000      -0.428287       -11.6543
   8   2.0000      -0.368928       -10.0390
   9   0.0000       0.067408         1.8343
  10   0.0000       0.139725         3.8021
  11   0.0000       0.141509         3.8507
  12   0.0000       0.163666         4.4536
  13   0.0000       0.189159         5.1473

MULLIKEN ATOMIC CHARGES
-----------------------
   0 C :   -0.002049
   1 O :   -0.003443
   2 H :   -0.000265
   3 H :   -0.000025
   4 H :   -0.000280
   5 H :   -0.000085
   6 C :   -0.154707
   7 O :   -0.484907
   8 H :    0.319566
   9 H :    0.102770
  10 H :    0.127058
  11 H :    0.096367
Sum of atomic charges:   -0.0000000

LOEWDIN ATOMIC CHARGES
----------------------
   0 C :   -0.005594
   1 O :   -0.013675
   2 H :   -0.000712
   3 H :   -0.000080
   4 H :   -0.000172
   5 H :   -0.000905
   6 C :   -0.389324
   7 O :   -0.062426
   8 H :    0.176847
   9 H :    0.092729
  10 H :    0.113048
  11 H :    0.090263

  Mayer bond orders larger than 0.1
B(  6-C ,  7-O ) :   0.9865 B(  6-C ,  9-H ) :   0.9785 B(  6-C , 10-H ) :   0.9713
B(  6-C , 11-H ) :   0.9807 B(  7-O ,  8-H ) :   0.8972

Dispersion correction           -0.000245655
FINAL SINGLE POINT ENERGY      -115.733641021100

DIPOLE MOMENT
-------------
                                X             Y             Z
Electronic contribution:     -0.38924      -1.31990      -1.20693
Nuclear contribution   :      0.02399       1.85182       1.30362
                        -----------------------------------------
Total Dipole Moment    :     -0.36525       0.53192       0.09668
                        -----------------------------------------
Magnitude (a.u.)       :      0.65246
Magnitude (Debye)      :      1.65841

Rotational constants in cm-1:     4.472121     0.838033     0.799717
Rotational constants in MHz : 134070.823274 25123.595175 23974.902929

                             ****ORCA TERMINATED NORMALLY****
TOTAL RUN TIME: 0 days 0 hours 1 minutes 7 seconds 958 msec
