                         Program Version 4.1.2  - RELEASE  -
|  1> #Run DFT-D3 single point of the dimer
|  2> ! wB97X-D3 def2-TZVP TIGHTSCF CHELPG PMODEL PAL8
|  3>
|  4> %base "1-182_DFT_AB"
|  5>
|  6> %scf
|  7> MaxIter 1000
|  8> end
|  9>
| 10> * xyz 0 1
| 11>   C                      8.145846             11.783341            0.442397
| 12>   O                      8.499043             10.451135            0.127607
| 13>   H                      7.846005             10.130559            -0.477154
| 14>   H                      7.056887             11.959913            0.720150
| 15>   H                      8.715638             12.109404            1.251351
| 16>   H                      8.423194             12.477013            -0.366497
| 17>   C                      9.857625             7.522086             -3.895079
| 18>   O                      9.909800             8.813567             -3.346686
| 19>   H                      9.069499             9.261982             -3.402323
| 20>   H                      10.158848            7.470738             -4.929036
| 21>   H                      10.392826            6.794359             -3.291123
| 22>   H                      8.808153             7.219059             -3.995173
| 23> *
| 24>
| 25> #Run DFT-D3 single point of the molecule with dimer basis set
| 26> $new_job
| 27> %base "1-182_DFT_A"
| 28> ! wB97X-D3 def2-TZVP TIGHTSCF CHELPG PMODEL
| 29>
| 30> %scf
| 31> MaxIter 1000
| 32> end
| 33>
| 34> * xyz 0 1
| 35>   C                      8.145846             11.783341            0.442397
| 36>   O                      8.499043             10.451135            0.127607
| 37>   H                      7.846005             10.130559            -0.477154
| 38>   H                      7.056887             11.959913            0.720150
| 39>   H                      8.715638             12.109404            1.251351
| 40>   H                      8.423194             12.477013            -0.366497
| 41>   C                    : 9.857625             7.522086             -3.895079
| 42>   O                    : 9.909800             8.813567             -3.346686
| 43>   H                    : 9.069499             9.261982             -3.402323
| 44>   H                    : 10.158848            7.470738             -4.929036
| 45>   H                    : 10.392826            6.794359             -3.291123
| 46>   H                    : 8.808153             7.219059             -3.995173
| 47> *
| 48>
| 49> #Run DFT-D3 single point of the particle with dimer basis set
| 50> $new_job
| 51> %base "1-182_DFT_B"
| 52> ! wB97X-D3 def2-TZVP TIGHTSCF CHELPG PMODEL
| 53>
| 54> %scf
| 55> MaxIter 1000
| 56> end
| 57>
| 58> * xyz 0 1
| 59>   C                    : 8.145846             11.783341            0.442397
| 60>   O                    : 8.499043             10.451135            0.127607
| 61>   H                    : 7.846005             10.130559            -0.477154
| 62>   H                    : 7.056887             11.959913            0.720150
| 63>   H                    : 8.715638             12.109404            1.251351
| 64>   H                    : 8.423194             12.477013            -0.366497
| 65>   C                      9.857625             7.522086             -3.895079
| 66>   O                      9.909800             8.813567             -3.346686
| 67>   H                      9.069499             9.261982             -3.402323
| 68>   H                      10.158848            7.470738             -4.929036
| 69>   H                      10.392826            6.794359             -3.291123
| 70>   H                      8.808153             7.219059             -3.995173
| 71> *
| 72>
| 73>                          ****END OF INPUT****
 Total Charge           Charge          ....    0
 Multiplicity           Mult            ....    1
 Number of Electrons    NEL             ....   36
Dispersion correction           -0.000869237
FINAL SINGLE POINT ENERGY      -231.465372891224
Dispersion correction           -0.000252049
FINAL SINGLE POINT ENERGY      -115.733660629332

CARTESIAN COORDINATES (ANGSTROEM)
---------------------------------
  C      8.145846   11.783341    0.442397
  O      8.499043   10.451135    0.127607
  H      7.846005   10.130559   -0.477154
  H      7.056887   11.959913    0.720150
  H      8.715638   12.109404    1.251351
  H      8.423194   12.477013   -0.366497
  C      9.857625    7.522086   -3.895079
  O      9.909800    8.813567   -3.346686
  H      9.069499    9.261982   -3.402323
  H     10.158848    7.470738   -4.929036
  H     10.392826    6.794359   -3.291123
  H      8.808153    7.219059   -3.995173

 Multiplicity           Mult            ....    1
 Number of Electrons    NEL             ....   18
 Basis Dimension        Dim             ....  172

ORBITAL ENERGIES
----------------

  NO   OCC          E(Eh)            E(eV)
   0   2.0000     -19.227836      -523.2160
   1   2.0000     -10.310835      -280.5721
   2   2.0000      -1.137601       -30.9557
   3   2.0000      -0.799447       -21.7541
   4   2.0000      -0.618491       -16.8300
   5   2.0000      -0.542723       -14.7682
   6   2.0000      -0.529782       -14.4161
   7   2.0000      -0.426793       -11.6136
   8   2.0000      -0.372748       -10.1430
   9   0.0000       0.083939         2.2841
  10   0.0000       0.115207         3.1349
  11   0.0000       0.151703         4.1280
  12   0.0000       0.179921         4.8959
  13   0.0000       0.198540         5.4025

MULLIKEN ATOMIC CHARGES
-----------------------
   0 C :    0.000161
   1 O :   -0.000125
   2 H :   -0.001494
   3 H :   -0.000004
   4 H :    0.000017
   5 H :   -0.000041
   6 C :   -0.150587
   7 O :   -0.482937
   8 H :    0.320722
   9 H :    0.101546
  10 H :    0.116212
  11 H :    0.096530
Sum of atomic charges:   -0.0000000

LOEWDIN ATOMIC CHARGES
----------------------
   0 C :   -0.000034
   1 O :   -0.000314
   2 H :   -0.001010
   3 H :   -0.000001
   4 H :   -0.000000
   5 H :   -0.000005
   6 C :   -0.387609
   7 O :   -0.069687
   8 H :    0.165789
   9 H :    0.092476
  10 H :    0.103257
  11 H :    0.097139

  Mayer bond orders larger than 0.1
B(  6-C ,  7-O ) :   1.0060 B(  6-C ,  9-H ) :   0.9709 B(  6-C , 10-H ) :   0.9735
B(  6-C , 11-H ) :   0.9913 B(  7-O ,  8-H ) :   0.8956

Dispersion correction           -0.000244603
FINAL SINGLE POINT ENERGY      -115.732911204720

DIPOLE MOMENT
-------------
                                X             Y             Z
Electronic contribution:      0.31954       1.63978       0.78767
Nuclear contribution   :     -0.91800      -1.87122      -1.05411
                        -----------------------------------------
Total Dipole Moment    :     -0.59845      -0.23144      -0.26644
                        -----------------------------------------
Magnitude (a.u.)       :      0.69477
Magnitude (Debye)      :      1.76596

Rotational constants in cm-1:     4.444940     0.836507     0.803597
Rotational constants in MHz : 133255.936347 25077.841746 24091.221089

                             ****ORCA TERMINATED NORMALLY****
TOTAL RUN TIME: 0 days 0 hours 5 minutes 57 seconds 845 msec
