                         Program Version 4.1.2  - RELEASE  -
|  1> #Run DFT-D3 single point of the dimer
|  2> ! wB97X-D3 def2-TZVP TIGHTSCF CHELPG PMODEL PAL8
|  3>
|  4> %base "8-90_DFT_AB"
|  5>
|  6> %scf
|  7> MaxIter 1000
|  8> end
|  9>
| 10> * xyz 0 1
| 11>   C                      -4.288569            -3.454093            4.046615
| 12>   O                      -4.072984            -3.445141            5.450072
| 13>   H                      -3.608082            -2.611545            5.566733
| 14>   H                      -3.328369            -3.735090            3.527382
| 15>   H                      -4.996269            -4.232074            3.685555
| 16>   H                      -4.566862            -2.490800            3.649591
| 17>   C                      -8.722772            -5.701760            3.170103
| 18>   O                      -8.851044            -5.193375            1.913721
| 19>   H                      -9.216482            -4.245808            1.955652
| 20>   H                      -8.257853            -6.713233            3.098251
| 21>   H                      -8.085925            -5.080050            3.783799
| 22>   H                      -9.657837            -5.779240            3.644366
| 23> *
| 24>
| 25> #Run DFT-D3 single point of the molecule with dimer basis set
| 26> $new_job
| 27> %base "8-90_DFT_A"
| 28> ! wB97X-D3 def2-TZVP TIGHTSCF CHELPG PMODEL
| 29>
| 30> %scf
| 31> MaxIter 1000
| 32> end
| 33>
| 34> * xyz 0 1
| 35>   C                      -4.288569            -3.454093            4.046615
| 36>   O                      -4.072984            -3.445141            5.450072
| 37>   H                      -3.608082            -2.611545            5.566733
| 38>   H                      -3.328369            -3.735090            3.527382
| 39>   H                      -4.996269            -4.232074            3.685555
| 40>   H                      -4.566862            -2.490800            3.649591
| 41>   C                    : -8.722772            -5.701760            3.170103
| 42>   O                    : -8.851044            -5.193375            1.913721
| 43>   H                    : -9.216482            -4.245808            1.955652
| 44>   H                    : -8.257853            -6.713233            3.098251
| 45>   H                    : -8.085925            -5.080050            3.783799
| 46>   H                    : -9.657837            -5.779240            3.644366
| 47> *
| 48>
| 49> #Run DFT-D3 single point of the particle with dimer basis set
| 50> $new_job
| 51> %base "8-90_DFT_B"
| 52> ! wB97X-D3 def2-TZVP TIGHTSCF CHELPG PMODEL
| 53>
| 54> %scf
| 55> MaxIter 1000
| 56> end
| 57>
| 58> * xyz 0 1
| 59>   C                    : -4.288569            -3.454093            4.046615
| 60>   O                    : -4.072984            -3.445141            5.450072
| 61>   H                    : -3.608082            -2.611545            5.566733
| 62>   H                    : -3.328369            -3.735090            3.527382
| 63>   H                    : -4.996269            -4.232074            3.685555
| 64>   H                    : -4.566862            -2.490800            3.649591
| 65>   C                      -8.722772            -5.701760            3.170103
| 66>   O                      -8.851044            -5.193375            1.913721
| 67>   H                      -9.216482            -4.245808            1.955652
| 68>   H                      -8.257853            -6.713233            3.098251
| 69>   H                      -8.085925            -5.080050            3.783799
| 70>   H                      -9.657837            -5.779240            3.644366
| 71> *
| 72>
| 73>                          ****END OF INPUT****
 Total Charge           Charge          ....    0
 Multiplicity           Mult            ....    1
 Number of Electrons    NEL             ....   36
Dispersion correction           -0.000803511
FINAL SINGLE POINT ENERGY      -231.463627362082
Dispersion correction           -0.000235322
FINAL SINGLE POINT ENERGY      -115.732377111334

CARTESIAN COORDINATES (ANGSTROEM)
---------------------------------
  C     -4.288569   -3.454093    4.046615
  O     -4.072984   -3.445141    5.450072
  H     -3.608082   -2.611545    5.566733
  H     -3.328369   -3.735090    3.527382
  H     -4.996269   -4.232074    3.685555
  H     -4.566862   -2.490800    3.649591
  C     -8.722772   -5.701760    3.170103
  O     -8.851044   -5.193375    1.913721
  H     -9.216482   -4.245808    1.955652
  H     -8.257853   -6.713233    3.098251
  H     -8.085925   -5.080050    3.783799
  H     -9.657837   -5.779240    3.644366

 Multiplicity           Mult            ....    1
 Number of Electrons    NEL             ....   18
 Basis Dimension        Dim             ....  172

ORBITAL ENERGIES
----------------

  NO   OCC          E(Eh)            E(eV)
   0   2.0000     -19.231070      -523.3040
   1   2.0000     -10.303187      -280.3640
   2   2.0000      -1.141789       -31.0697
   3   2.0000      -0.789736       -21.4898
   4   2.0000      -0.616045       -16.7634
   5   2.0000      -0.551503       -15.0072
   6   2.0000      -0.530083       -14.4243
   7   2.0000      -0.424657       -11.5555
   8   2.0000      -0.368228       -10.0200
   9   0.0000       0.085020         2.3135
  10   0.0000       0.110012         2.9936
  11   0.0000       0.151198         4.1143
  12   0.0000       0.170492         4.6393
  13   0.0000       0.186591         5.0774

MULLIKEN ATOMIC CHARGES
-----------------------
   0 C :   -0.000902
   1 O :    0.000041
   2 H :    0.000001
   3 H :    0.000027
   4 H :    0.001399
   5 H :    0.000006
   6 C :   -0.143266
   7 O :   -0.475608
   8 H :    0.318267
   9 H :    0.110427
  10 H :    0.089739
  11 H :    0.099868
Sum of atomic charges:    0.0000000

LOEWDIN ATOMIC CHARGES
----------------------
   0 C :   -0.000279
   1 O :   -0.000003
   2 H :   -0.000000
   3 H :   -0.000001
   4 H :   -0.000314
   5 H :   -0.000006
   6 C :   -0.425277
   7 O :   -0.063477
   8 H :    0.203325
   9 H :    0.114890
  10 H :    0.088050
  11 H :    0.083093

  Mayer bond orders larger than 0.1
B(  6-C ,  7-O ) :   1.0032 B(  6-C ,  9-H ) :   0.9700 B(  6-C , 10-H ) :   0.9806
B(  6-C , 11-H ) :   0.9814 B(  7-O ,  8-H ) :   0.8859

Dispersion correction           -0.000214280
FINAL SINGLE POINT ENERGY      -115.730636892124

DIPOLE MOMENT
-------------
                                X             Y             Z
Electronic contribution:     -0.15809       0.53868      -1.68813
Nuclear contribution   :     -0.02863      -0.13843       2.18230
                        -----------------------------------------
Total Dipole Moment    :     -0.18672       0.40024       0.49417
                        -----------------------------------------
Magnitude (a.u.)       :      0.66277
Magnitude (Debye)      :      1.68462

Rotational constants in cm-1:     4.275918     0.887896     0.845977
Rotational constants in MHz : 128188.787204 26618.456971 25361.762588

                             ****ORCA TERMINATED NORMALLY****
TOTAL RUN TIME: 0 days 0 hours 0 minutes 41 seconds 571 msec
