                         Program Version 4.1.2  - RELEASE  -
|  1> #Run DFT-D3 single point of the dimer
|  2> ! wB97X-D3 def2-TZVP TIGHTSCF CHELPG PMODEL PAL8
|  3>
|  4> %base "1-56_DFT_AB"
|  5>
|  6> %scf
|  7> MaxIter 1000
|  8> end
|  9>
| 10> * xyz 0 1
| 11>   C                      -2.795325            9.217840             5.555766
| 12>   O                      -3.946272            9.686863             6.213946
| 13>   H                      -3.969267            9.351075             7.120477
| 14>   H                      -2.991524            9.209093             4.464861
| 15>   H                      -1.885058            9.769403             5.855998
| 16>   H                      -2.593840            8.207868             5.831886
| 17>   C                      -2.352219            10.439322            10.170331
| 18>   O                      -1.281838            10.542575            11.094813
| 19>   H                      -1.493749            11.144150            11.777500
| 20>   H                      -3.329597            10.545099            10.691131
| 21>   H                      -2.210866            11.196965            9.360382
| 22>   H                      -2.462432            9.438291             9.770519
| 23> *
| 24>
| 25> #Run DFT-D3 single point of the molecule with dimer basis set
| 26> $new_job
| 27> %base "1-56_DFT_A"
| 28> ! wB97X-D3 def2-TZVP TIGHTSCF CHELPG PMODEL
| 29>
| 30> %scf
| 31> MaxIter 1000
| 32> end
| 33>
| 34> * xyz 0 1
| 35>   C                      -2.795325            9.217840             5.555766
| 36>   O                      -3.946272            9.686863             6.213946
| 37>   H                      -3.969267            9.351075             7.120477
| 38>   H                      -2.991524            9.209093             4.464861
| 39>   H                      -1.885058            9.769403             5.855998
| 40>   H                      -2.593840            8.207868             5.831886
| 41>   C                    : -2.352219            10.439322            10.170331
| 42>   O                    : -1.281838            10.542575            11.094813
| 43>   H                    : -1.493749            11.144150            11.777500
| 44>   H                    : -3.329597            10.545099            10.691131
| 45>   H                    : -2.210866            11.196965            9.360382
| 46>   H                    : -2.462432            9.438291             9.770519
| 47> *
| 48>
| 49> #Run DFT-D3 single point of the particle with dimer basis set
| 50> $new_job
| 51> %base "1-56_DFT_B"
| 52> ! wB97X-D3 def2-TZVP TIGHTSCF CHELPG PMODEL
| 53>
| 54> %scf
| 55> MaxIter 1000
| 56> end
| 57>
| 58> * xyz 0 1
| 59>   C                    : -2.795325            9.217840             5.555766
| 60>   O                    : -3.946272            9.686863             6.213946
| 61>   H                    : -3.969267            9.351075             7.120477
| 62>   H                    : -2.991524            9.209093             4.464861
| 63>   H                    : -1.885058            9.769403             5.855998
| 64>   H                    : -2.593840            8.207868             5.831886
| 65>   C                      -2.352219            10.439322            10.170331
| 66>   O                      -1.281838            10.542575            11.094813
| 67>   H                      -1.493749            11.144150            11.777500
| 68>   H                      -3.329597            10.545099            10.691131
| 69>   H                      -2.210866            11.196965            9.360382
| 70>   H                      -2.462432            9.438291             9.770519
| 71> *
| 72>
| 73>                          ****END OF INPUT****
 Total Charge           Charge          ....    0
 Multiplicity           Mult            ....    1
 Number of Electrons    NEL             ....   36
Dispersion correction           -0.001133948
FINAL SINGLE POINT ENERGY      -231.468208303211
Dispersion correction           -0.000237326
FINAL SINGLE POINT ENERGY      -115.734783915000

CARTESIAN COORDINATES (ANGSTROEM)
---------------------------------
  C     -2.795325    9.217840    5.555766
  O     -3.946272    9.686863    6.213946
  H     -3.969267    9.351075    7.120477
  H     -2.991524    9.209093    4.464861
  H     -1.885058    9.769403    5.855998
  H     -2.593840    8.207868    5.831886
  C     -2.352219   10.439322   10.170331
  O     -1.281838   10.542575   11.094813
  H     -1.493749   11.144150   11.777500
  H     -3.329597   10.545099   10.691131
  H     -2.210866   11.196965    9.360382
  H     -2.462432    9.438291    9.770519

 Multiplicity           Mult            ....    1
 Number of Electrons    NEL             ....   18
 Basis Dimension        Dim             ....  172

ORBITAL ENERGIES
----------------

  NO   OCC          E(Eh)            E(eV)
   0   2.0000     -19.225638      -523.1562
   1   2.0000     -10.317267      -280.7471
   2   2.0000      -1.137688       -30.9581
   3   2.0000      -0.797119       -21.6907
   4   2.0000      -0.610727       -16.6187
   5   2.0000      -0.547622       -14.9016
   6   2.0000      -0.524520       -14.2729
   7   2.0000      -0.424270       -11.5450
   8   2.0000      -0.375808       -10.2262
   9   0.0000       0.083258         2.2656
  10   0.0000       0.118499         3.2245
  11   0.0000       0.143746         3.9115
  12   0.0000       0.177454         4.8288
  13   0.0000       0.185607         5.0506

MULLIKEN ATOMIC CHARGES
-----------------------
   0 C :   -0.000118
   1 O :    0.000026
   2 H :    0.000194
   3 H :   -0.000004
   4 H :   -0.000033
   5 H :   -0.000048
   6 C :   -0.165502
   7 O :   -0.473418
   8 H :    0.313356
   9 H :    0.100048
  10 H :    0.106560
  11 H :    0.118939
Sum of atomic charges:   -0.0000000

LOEWDIN ATOMIC CHARGES
----------------------
   0 C :   -0.000217
   1 O :   -0.000061
   2 H :   -0.000609
   3 H :   -0.000002
   4 H :   -0.000100
   5 H :   -0.000021
   6 C :   -0.383756
   7 O :   -0.070892
   8 H :    0.150740
   9 H :    0.099878
  10 H :    0.101592
  11 H :    0.103449

  Mayer bond orders larger than 0.1
B(  6-C ,  7-O ) :   1.0025 B(  6-C ,  9-H ) :   0.9819 B(  6-C , 10-H ) :   0.9748
B(  6-C , 11-H ) :   0.9700 B(  7-O ,  8-H ) :   0.9036

Dispersion correction           -0.000250883
FINAL SINGLE POINT ENERGY      -115.732872160133

DIPOLE MOMENT
-------------
                                X             Y             Z
Electronic contribution:      1.48031       0.05215       1.06764
Nuclear contribution   :     -2.06967       0.27221      -0.97281
                        -----------------------------------------
Total Dipole Moment    :     -0.58936       0.32437       0.09483
                        -----------------------------------------
Magnitude (a.u.)       :      0.67937
Magnitude (Debye)      :      1.72683

Rotational constants in cm-1:     4.296476     0.815845     0.802858
Rotational constants in MHz : 128805.099394 24458.411520 24069.076916

                             ****ORCA TERMINATED NORMALLY****
TOTAL RUN TIME: 0 days 0 hours 5 minutes 40 seconds 947 msec
