                         Program Version 4.1.2  - RELEASE  -
|  1> #Run DFT-D3 single point of the dimer
|  2> ! wB97X-D3 def2-TZVP TIGHTSCF CHELPG PMODEL PAL8
|  3>
|  4> %base "15-50_DFT_AB"
|  5>
|  6> %scf
|  7> MaxIter 1000
|  8> end
|  9>
| 10> * xyz 0 1
| 11>   C                      7.027536             3.700445             1.588677
| 12>   O                      7.121738             4.093266             0.247516
| 13>   H                      7.366341             3.333908             -0.299382
| 14>   H                      8.023769             3.471064             2.076743
| 15>   H                      6.544191             4.464693             2.197487
| 16>   H                      6.420623             2.848499             1.708700
| 17>   C                      6.878222             1.563807             -2.144682
| 18>   O                      6.443353             0.577420             -3.059159
| 19>   H                      7.212527             0.029790             -3.103457
| 20>   H                      7.575887             2.206588             -2.697307
| 21>   H                      6.072569             2.190081             -1.762633
| 22>   H                      7.382352             1.174466             -1.249020
| 23> *
| 24>
| 25> #Run DFT-D3 single point of the molecule with dimer basis set
| 26> $new_job
| 27> %base "15-50_DFT_A"
| 28> ! wB97X-D3 def2-TZVP TIGHTSCF CHELPG PMODEL
| 29>
| 30> %scf
| 31> MaxIter 1000
| 32> end
| 33>
| 34> * xyz 0 1
| 35>   C                      7.027536             3.700445             1.588677
| 36>   O                      7.121738             4.093266             0.247516
| 37>   H                      7.366341             3.333908             -0.299382
| 38>   H                      8.023769             3.471064             2.076743
| 39>   H                      6.544191             4.464693             2.197487
| 40>   H                      6.420623             2.848499             1.708700
| 41>   C                    : 6.878222             1.563807             -2.144682
| 42>   O                    : 6.443353             0.577420             -3.059159
| 43>   H                    : 7.212527             0.029790             -3.103457
| 44>   H                    : 7.575887             2.206588             -2.697307
| 45>   H                    : 6.072569             2.190081             -1.762633
| 46>   H                    : 7.382352             1.174466             -1.249020
| 47> *
| 48>
| 49> #Run DFT-D3 single point of the particle with dimer basis set
| 50> $new_job
| 51> %base "15-50_DFT_B"
| 52> ! wB97X-D3 def2-TZVP TIGHTSCF CHELPG PMODEL
| 53>
| 54> %scf
| 55> MaxIter 1000
| 56> end
| 57>
| 58> * xyz 0 1
| 59>   C                    : 7.027536             3.700445             1.588677
| 60>   O                    : 7.121738             4.093266             0.247516
| 61>   H                    : 7.366341             3.333908             -0.299382
| 62>   H                    : 8.023769             3.471064             2.076743
| 63>   H                    : 6.544191             4.464693             2.197487
| 64>   H                    : 6.420623             2.848499             1.708700
| 65>   C                      6.878222             1.563807             -2.144682
| 66>   O                      6.443353             0.577420             -3.059159
| 67>   H                      7.212527             0.029790             -3.103457
| 68>   H                      7.575887             2.206588             -2.697307
| 69>   H                      6.072569             2.190081             -1.762633
| 70>   H                      7.382352             1.174466             -1.249020
| 71> *
| 72>
| 73>                          ****END OF INPUT****
 Total Charge           Charge          ....    0
 Multiplicity           Mult            ....    1
 Number of Electrons    NEL             ....   36
Dispersion correction           -0.001551678
FINAL SINGLE POINT ENERGY      -231.467998247093
Dispersion correction           -0.000247625
FINAL SINGLE POINT ENERGY      -115.734895908879

CARTESIAN COORDINATES (ANGSTROEM)
---------------------------------
  C      7.027536    3.700445    1.588677
  O      7.121738    4.093266    0.247516
  H      7.366341    3.333908   -0.299382
  H      8.023769    3.471064    2.076743
  H      6.544191    4.464693    2.197487
  H      6.420623    2.848499    1.708700
  C      6.878222    1.563807   -2.144682
  O      6.443353    0.577420   -3.059159
  H      7.212527    0.029790   -3.103457
  H      7.575887    2.206588   -2.697307
  H      6.072569    2.190081   -1.762633
  H      7.382352    1.174466   -1.249020

 Multiplicity           Mult            ....    1
 Number of Electrons    NEL             ....   18
 Basis Dimension        Dim             ....  172

ORBITAL ENERGIES
----------------

  NO   OCC          E(Eh)            E(eV)
   0   2.0000     -19.231234      -523.3085
   1   2.0000     -10.313879      -280.6549
   2   2.0000      -1.145027       -31.1578
   3   2.0000      -0.793508       -21.5924
   4   2.0000      -0.610781       -16.6202
   5   2.0000      -0.546262       -14.8646
   6   2.0000      -0.527116       -14.3436
   7   2.0000      -0.441102       -12.0030
   8   2.0000      -0.373724       -10.1695
   9   0.0000       0.082325         2.2402
  10   0.0000       0.117337         3.1929
  11   0.0000       0.147097         4.0027
  12   0.0000       0.181330         4.9342
  13   0.0000       0.186586         5.0773

MULLIKEN ATOMIC CHARGES
-----------------------
   0 C :   -0.000331
   1 O :   -0.000413
   2 H :    0.001968
   3 H :   -0.000013
   4 H :   -0.000027
   5 H :   -0.000260
   6 C :   -0.188987
   7 O :   -0.458402
   8 H :    0.313010
   9 H :    0.105184
  10 H :    0.123902
  11 H :    0.104369
Sum of atomic charges:   -0.0000000

LOEWDIN ATOMIC CHARGES
----------------------
   0 C :   -0.000691
   1 O :   -0.000956
   2 H :   -0.008023
   3 H :   -0.000011
   4 H :   -0.000008
   5 H :   -0.000191
   6 C :   -0.390269
   7 O :   -0.067329
   8 H :    0.164120
   9 H :    0.097644
  10 H :    0.108684
  11 H :    0.097030

  Mayer bond orders larger than 0.1
B(  6-C ,  7-O ) :   1.0040 B(  6-C ,  9-H ) :   0.9813 B(  6-C , 10-H ) :   0.9728
B(  6-C , 11-H ) :   0.9723 B(  7-O ,  8-H ) :   0.9057

Dispersion correction           -0.000219933
FINAL SINGLE POINT ENERGY      -115.733187796278

DIPOLE MOMENT
-------------
                                X             Y             Z
Electronic contribution:     -0.77766      -1.26613      -1.18050
Nuclear contribution   :      1.41034       1.30466       1.51521
                        -----------------------------------------
Total Dipole Moment    :      0.63268       0.03853       0.33471
                        -----------------------------------------
Magnitude (a.u.)       :      0.71680
Magnitude (Debye)      :      1.82197

Rotational constants in cm-1:     4.293063     0.836354     0.808165
Rotational constants in MHz : 128702.791285 25073.271030 24228.167589

                             ****ORCA TERMINATED NORMALLY****
TOTAL RUN TIME: 0 days 0 hours 0 minutes 52 seconds 287 msec
