                         Program Version 4.1.2  - RELEASE  -
|  1> #Run DFT-D3 single point of the dimer
|  2> ! wB97X-D3 def2-TZVP TIGHTSCF CHELPG PMODEL PAL8
|  3>
|  4> %base "2-165_DFT_AB"
|  5>
|  6> %scf
|  7> MaxIter 1000
|  8> end
|  9>
| 10> * xyz 0 1
| 11>   C                      -5.133653            6.341155             4.742406
| 12>   O                      -5.119965            5.757814             5.996789
| 13>   H                      -4.614317            6.391830             6.569836
| 14>   H                      -5.439715            7.357164             4.755278
| 15>   H                      -4.234583            6.205325             4.158552
| 16>   H                      -5.880882            5.822539             4.108501
| 17>   C                      -3.460862            9.151997             4.641479
| 18>   O                      -4.698591            9.729505             4.872992
| 19>   H                      -5.167632            9.539243             4.068235
| 20>   H                      -2.868898            8.770111             5.543681
| 21>   H                      -3.548348            8.430390             3.829680
| 22>   H                      -2.784518            9.805688             4.131963
| 23> *
| 24>
| 25> #Run DFT-D3 single point of the molecule with dimer basis set
| 26> $new_job
| 27> %base "2-165_DFT_A"
| 28> ! wB97X-D3 def2-TZVP TIGHTSCF CHELPG PMODEL
| 29>
| 30> %scf
| 31> MaxIter 1000
| 32> end
| 33>
| 34> * xyz 0 1
| 35>   C                      -5.133653            6.341155             4.742406
| 36>   O                      -5.119965            5.757814             5.996789
| 37>   H                      -4.614317            6.391830             6.569836
| 38>   H                      -5.439715            7.357164             4.755278
| 39>   H                      -4.234583            6.205325             4.158552
| 40>   H                      -5.880882            5.822539             4.108501
| 41>   C                    : -3.460862            9.151997             4.641479
| 42>   O                    : -4.698591            9.729505             4.872992
| 43>   H                    : -5.167632            9.539243             4.068235
| 44>   H                    : -2.868898            8.770111             5.543681
| 45>   H                    : -3.548348            8.430390             3.829680
| 46>   H                    : -2.784518            9.805688             4.131963
| 47> *
| 48>
| 49> #Run DFT-D3 single point of the particle with dimer basis set
| 50> $new_job
| 51> %base "2-165_DFT_B"
| 52> ! wB97X-D3 def2-TZVP TIGHTSCF CHELPG PMODEL
| 53>
| 54> %scf
| 55> MaxIter 1000
| 56> end
| 57>
| 58> * xyz 0 1
| 59>   C                    : -5.133653            6.341155             4.742406
| 60>   O                    : -5.119965            5.757814             5.996789
| 61>   H                    : -4.614317            6.391830             6.569836
| 62>   H                    : -5.439715            7.357164             4.755278
| 63>   H                    : -4.234583            6.205325             4.158552
| 64>   H                    : -5.880882            5.822539             4.108501
| 65>   C                      -3.460862            9.151997             4.641479
| 66>   O                      -4.698591            9.729505             4.872992
| 67>   H                      -5.167632            9.539243             4.068235
| 68>   H                      -2.868898            8.770111             5.543681
| 69>   H                      -3.548348            8.430390             3.829680
| 70>   H                      -2.784518            9.805688             4.131963
| 71> *
| 72>
| 73>                          ****END OF INPUT****
 Total Charge           Charge          ....    0
 Multiplicity           Mult            ....    1
 Number of Electrons    NEL             ....   36
Dispersion correction           -0.002176565
FINAL SINGLE POINT ENERGY      -231.457459967935
Dispersion correction           -0.000231123
FINAL SINGLE POINT ENERGY      -115.732789171401

CARTESIAN COORDINATES (ANGSTROEM)
---------------------------------
  C     -5.133653    6.341155    4.742406
  O     -5.119965    5.757814    5.996789
  H     -4.614317    6.391830    6.569836
  H     -5.439715    7.357164    4.755278
  H     -4.234583    6.205325    4.158552
  H     -5.880882    5.822539    4.108501
  C     -3.460862    9.151997    4.641479
  O     -4.698591    9.729505    4.872992
  H     -5.167632    9.539243    4.068235
  H     -2.868898    8.770111    5.543681
  H     -3.548348    8.430390    3.829680
  H     -2.784518    9.805688    4.131963

 Multiplicity           Mult            ....    1
 Number of Electrons    NEL             ....   18
 Basis Dimension        Dim             ....  172

ORBITAL ENERGIES
----------------

  NO   OCC          E(Eh)            E(eV)
   0   2.0000     -19.235137      -523.4147
   1   2.0000     -10.314417      -280.6695
   2   2.0000      -1.154454       -31.4143
   3   2.0000      -0.794177       -21.6106
   4   2.0000      -0.626420       -17.0458
   5   2.0000      -0.538365       -14.6497
   6   2.0000      -0.532061       -14.4781
   7   2.0000      -0.441515       -12.0142
   8   2.0000      -0.369170       -10.0456
   9   0.0000       0.085352         2.3225
  10   0.0000       0.127274         3.4633
  11   0.0000       0.149747         4.0748
  12   0.0000       0.162346         4.4177
  13   0.0000       0.202654         5.5145

MULLIKEN ATOMIC CHARGES
-----------------------
   0 C :    0.015775
   1 O :   -0.000356
   2 H :   -0.000113
   3 H :   -0.025662
   4 H :   -0.003222
   5 H :    0.000016
   6 C :   -0.185211
   7 O :   -0.443302
   8 H :    0.319706
   9 H :    0.115955
  10 H :    0.100825
  11 H :    0.105590
Sum of atomic charges:   -0.0000000

LOEWDIN ATOMIC CHARGES
----------------------
   0 C :   -0.015911
   1 O :   -0.000043
   2 H :   -0.000463
   3 H :   -0.013631
   4 H :   -0.005214
   5 H :   -0.000070
   6 C :   -0.409818
   7 O :   -0.038070
   8 H :    0.173689
   9 H :    0.118007
  10 H :    0.102627
  11 H :    0.088899

  Mayer bond orders larger than 0.1
B(  6-C ,  7-O ) :   1.0007 B(  6-C ,  9-H ) :   0.9720 B(  6-C , 10-H ) :   0.9973
B(  6-C , 11-H ) :   0.9695 B(  7-O ,  8-H ) :   0.8988

Dispersion correction           -0.000224693
FINAL SINGLE POINT ENERGY      -115.725032520641

DIPOLE MOMENT
-------------
                                X             Y             Z
Electronic contribution:     -1.70581       0.81917       0.62251
Nuclear contribution   :      1.87897      -1.12912      -1.24548
                        -----------------------------------------
Total Dipole Moment    :      0.17316      -0.30995      -0.62297
                        -----------------------------------------
Magnitude (a.u.)       :      0.71704
Magnitude (Debye)      :      1.82257

Rotational constants in cm-1:     4.366045     0.865680     0.812987
Rotational constants in MHz : 130890.744009 25952.424230 24372.746038

                             ****ORCA TERMINATED NORMALLY****
TOTAL RUN TIME: 0 days 0 hours 6 minutes 23 seconds 447 msec
