                         Program Version 4.1.2  - RELEASE  -
|  1> #Run DFT-D3 single point of the dimer
|  2> ! wB97X-D3 def2-TZVP TIGHTSCF CHELPG PMODEL PAL8
|  3>
|  4> %base "4-89_DFT_AB"
|  5>
|  6> %scf
|  7> MaxIter 1000
|  8> end
|  9>
| 10> * xyz 0 1
| 11>   C                      8.138163             2.013779             8.440012
| 12>   O                      8.449880             2.296050             7.073773
| 13>   H                      8.958610             1.573154             6.754095
| 14>   H                      7.680784             2.922407             8.860548
| 15>   H                      7.458505             1.109173             8.484702
| 16>   H                      9.035666             1.771950             8.988343
| 17>   C                      5.023588             1.184366             10.193513
| 18>   O                      5.627676             -0.004698            10.727997
| 19>   H                      6.586629             0.186118             10.765500
| 20>   H                      5.248314             2.094102             10.890005
| 21>   H                      5.363865             1.354548             9.140093
| 22>   H                      3.958818             1.085660             10.095453
| 23> *
| 24>
| 25> #Run DFT-D3 single point of the molecule with dimer basis set
| 26> $new_job
| 27> %base "4-89_DFT_A"
| 28> ! wB97X-D3 def2-TZVP TIGHTSCF CHELPG PMODEL
| 29>
| 30> %scf
| 31> MaxIter 1000
| 32> end
| 33>
| 34> * xyz 0 1
| 35>   C                      8.138163             2.013779             8.440012
| 36>   O                      8.449880             2.296050             7.073773
| 37>   H                      8.958610             1.573154             6.754095
| 38>   H                      7.680784             2.922407             8.860548
| 39>   H                      7.458505             1.109173             8.484702
| 40>   H                      9.035666             1.771950             8.988343
| 41>   C                    : 5.023588             1.184366             10.193513
| 42>   O                    : 5.627676             -0.004698            10.727997
| 43>   H                    : 6.586629             0.186118             10.765500
| 44>   H                    : 5.248314             2.094102             10.890005
| 45>   H                    : 5.363865             1.354548             9.140093
| 46>   H                    : 3.958818             1.085660             10.095453
| 47> *
| 48>
| 49> #Run DFT-D3 single point of the particle with dimer basis set
| 50> $new_job
| 51> %base "4-89_DFT_B"
| 52> ! wB97X-D3 def2-TZVP TIGHTSCF CHELPG PMODEL
| 53>
| 54> %scf
| 55> MaxIter 1000
| 56> end
| 57>
| 58> * xyz 0 1
| 59>   C                    : 8.138163             2.013779             8.440012
| 60>   O                    : 8.449880             2.296050             7.073773
| 61>   H                    : 8.958610             1.573154             6.754095
| 62>   H                    : 7.680784             2.922407             8.860548
| 63>   H                    : 7.458505             1.109173             8.484702
| 64>   H                    : 9.035666             1.771950             8.988343
| 65>   C                      5.023588             1.184366             10.193513
| 66>   O                      5.627676             -0.004698            10.727997
| 67>   H                      6.586629             0.186118             10.765500
| 68>   H                      5.248314             2.094102             10.890005
| 69>   H                      5.363865             1.354548             9.140093
| 70>   H                      3.958818             1.085660             10.095453
| 71> *
| 72>
| 73>                          ****END OF INPUT****
 Total Charge           Charge          ....    0
 Multiplicity           Mult            ....    1
 Number of Electrons    NEL             ....   36
Dispersion correction           -0.001825252
FINAL SINGLE POINT ENERGY      -231.467641297478
Dispersion correction           -0.000231342
FINAL SINGLE POINT ENERGY      -115.735304492810

CARTESIAN COORDINATES (ANGSTROEM)
---------------------------------
  C      8.138163    2.013779    8.440012
  O      8.449880    2.296050    7.073773
  H      8.958610    1.573154    6.754095
  H      7.680784    2.922407    8.860548
  H      7.458505    1.109173    8.484702
  H      9.035666    1.771950    8.988343
  C      5.023588    1.184366   10.193513
  O      5.627676   -0.004698   10.727997
  H      6.586629    0.186118   10.765500
  H      5.248314    2.094102   10.890005
  H      5.363865    1.354548    9.140093
  H      3.958818    1.085660   10.095453

 Multiplicity           Mult            ....    1
 Number of Electrons    NEL             ....   18
 Basis Dimension        Dim             ....  172

ORBITAL ENERGIES
----------------

  NO   OCC          E(Eh)            E(eV)
   0   2.0000     -19.234217      -523.3897
   1   2.0000     -10.323722      -280.9227
   2   2.0000      -1.128432       -30.7062
   3   2.0000      -0.789551       -21.4848
   4   2.0000      -0.598404       -16.2834
   5   2.0000      -0.537850       -14.6356
   6   2.0000      -0.527462       -14.3530
   7   2.0000      -0.433123       -11.7859
   8   2.0000      -0.374245       -10.1837
   9   0.0000       0.075102         2.0436
  10   0.0000       0.124347         3.3836
  11   0.0000       0.144368         3.9285
  12   0.0000       0.169332         4.6077
  13   0.0000       0.185679         5.0526

MULLIKEN ATOMIC CHARGES
-----------------------
   0 C :   -0.000524
   1 O :    0.000200
   2 H :    0.000030
   3 H :   -0.001495
   4 H :   -0.000310
   5 H :   -0.000038
   6 C :   -0.187432
   7 O :   -0.467845
   8 H :    0.317526
   9 H :    0.104637
  10 H :    0.103972
  11 H :    0.131278
Sum of atomic charges:    0.0000000

LOEWDIN ATOMIC CHARGES
----------------------
   0 C :   -0.008307
   1 O :   -0.000024
   2 H :   -0.000005
   3 H :   -0.001348
   4 H :   -0.005940
   5 H :   -0.000103
   6 C :   -0.377881
   7 O :   -0.099726
   8 H :    0.179014
   9 H :    0.108795
  10 H :    0.103628
  11 H :    0.101897

  Mayer bond orders larger than 0.1
B(  6-C ,  7-O ) :   1.0054 B(  6-C ,  9-H ) :   0.9760 B(  6-C , 10-H ) :   0.9711
B(  6-C , 11-H ) :   0.9713 B(  7-O ,  8-H ) :   0.8986

Dispersion correction           -0.000256937
FINAL SINGLE POINT ENERGY      -115.732049750518

DIPOLE MOMENT
-------------
                                X             Y             Z
Electronic contribution:      0.57705      -1.64407       0.70324
Nuclear contribution   :     -0.25593       2.20527      -0.90165
                        -----------------------------------------
Total Dipole Moment    :      0.32112       0.56120      -0.19840
                        -----------------------------------------
Magnitude (a.u.)       :      0.67633
Magnitude (Debye)      :      1.71910

Rotational constants in cm-1:     4.069501     0.801842     0.781460
Rotational constants in MHz : 122000.561465 24038.633116 23427.584226

                             ****ORCA TERMINATED NORMALLY****
TOTAL RUN TIME: 0 days 0 hours 1 minutes 31 seconds 543 msec
