                         Program Version 4.1.2  - RELEASE  -
|  1> #Run DFT-D3 single point of the dimer
|  2> ! wB97X-D3 def2-TZVP TIGHTSCF CHELPG PMODEL PAL8
|  3>
|  4> %base "10-4_DFT_AB"
|  5>
|  6> %scf
|  7> MaxIter 1000
|  8> end
|  9>
| 10> * xyz 0 1
| 11>   C                      -6.423069            5.566092             9.013381
| 12>   O                      -6.490406            6.939785             8.703720
| 13>   H                      -5.816488            7.100692             8.090013
| 14>   H                      -7.316964            5.205827             9.520099
| 15>   H                      -6.371598            4.942767             8.107187
| 16>   H                      -5.565183            5.306817             9.669080
| 17>   C                      -6.367076            7.219084             4.384384
| 18>   O                      -6.531146            5.884104             4.062090
| 19>   H                      -7.046276            5.471730             4.776969
| 20>   H                      -5.481634            7.619671             3.840341
| 21>   H                      -7.226270            7.889155             4.174136
| 22>   H                      -6.196221            7.273434             5.470295
| 23> *
| 24>
| 25> #Run DFT-D3 single point of the molecule with dimer basis set
| 26> $new_job
| 27> %base "10-4_DFT_A"
| 28> ! wB97X-D3 def2-TZVP TIGHTSCF CHELPG PMODEL
| 29>
| 30> %scf
| 31> MaxIter 1000
| 32> end
| 33>
| 34> * xyz 0 1
| 35>   C                      -6.423069            5.566092             9.013381
| 36>   O                      -6.490406            6.939785             8.703720
| 37>   H                      -5.816488            7.100692             8.090013
| 38>   H                      -7.316964            5.205827             9.520099
| 39>   H                      -6.371598            4.942767             8.107187
| 40>   H                      -5.565183            5.306817             9.669080
| 41>   C                    : -6.367076            7.219084             4.384384
| 42>   O                    : -6.531146            5.884104             4.062090
| 43>   H                    : -7.046276            5.471730             4.776969
| 44>   H                    : -5.481634            7.619671             3.840341
| 45>   H                    : -7.226270            7.889155             4.174136
| 46>   H                    : -6.196221            7.273434             5.470295
| 47> *
| 48>
| 49> #Run DFT-D3 single point of the particle with dimer basis set
| 50> $new_job
| 51> %base "10-4_DFT_B"
| 52> ! wB97X-D3 def2-TZVP TIGHTSCF CHELPG PMODEL
| 53>
| 54> %scf
| 55> MaxIter 1000
| 56> end
| 57>
| 58> * xyz 0 1
| 59>   C                    : -6.423069            5.566092             9.013381
| 60>   O                    : -6.490406            6.939785             8.703720
| 61>   H                    : -5.816488            7.100692             8.090013
| 62>   H                    : -7.316964            5.205827             9.520099
| 63>   H                    : -6.371598            4.942767             8.107187
| 64>   H                    : -5.565183            5.306817             9.669080
| 65>   C                      -6.367076            7.219084             4.384384
| 66>   O                      -6.531146            5.884104             4.062090
| 67>   H                      -7.046276            5.471730             4.776969
| 68>   H                      -5.481634            7.619671             3.840341
| 69>   H                      -7.226270            7.889155             4.174136
| 70>   H                      -6.196221            7.273434             5.470295
| 71> *
| 72>
| 73>                          ****END OF INPUT****
 Total Charge           Charge          ....    0
 Multiplicity           Mult            ....    1
 Number of Electrons    NEL             ....   36
Dispersion correction           -0.001248938
FINAL SINGLE POINT ENERGY      -231.470263519821
Dispersion correction           -0.000241908
FINAL SINGLE POINT ENERGY      -115.735319906186

CARTESIAN COORDINATES (ANGSTROEM)
---------------------------------
  C     -6.423069    5.566092    9.013381
  O     -6.490406    6.939785    8.703720
  H     -5.816488    7.100692    8.090013
  H     -7.316964    5.205827    9.520099
  H     -6.371598    4.942767    8.107187
  H     -5.565183    5.306817    9.669080
  C     -6.367076    7.219084    4.384384
  O     -6.531146    5.884104    4.062090
  H     -7.046276    5.471730    4.776969
  H     -5.481634    7.619671    3.840341
  H     -7.226270    7.889155    4.174136
  H     -6.196221    7.273434    5.470295

 Multiplicity           Mult            ....    1
 Number of Electrons    NEL             ....   18
 Basis Dimension        Dim             ....  172

ORBITAL ENERGIES
----------------

  NO   OCC          E(Eh)            E(eV)
   0   2.0000     -19.231973      -523.3286
   1   2.0000     -10.314649      -280.6759
   2   2.0000      -1.145191       -31.1622
   3   2.0000      -0.788888       -21.4667
   4   2.0000      -0.617078       -16.7915
   5   2.0000      -0.541683       -14.7399
   6   2.0000      -0.530409       -14.4332
   7   2.0000      -0.430968       -11.7272
   8   2.0000      -0.370669       -10.0864
   9   0.0000       0.073997         2.0136
  10   0.0000       0.120478         3.2784
  11   0.0000       0.145505         3.9594
  12   0.0000       0.169516         4.6128
  13   0.0000       0.194078         5.2811

MULLIKEN ATOMIC CHARGES
-----------------------
   0 C :   -0.000196
   1 O :    0.000063
   2 H :   -0.000074
   3 H :    0.000011
   4 H :   -0.000355
   5 H :    0.000014
   6 C :   -0.161176
   7 O :   -0.464314
   8 H :    0.318065
   9 H :    0.115227
  10 H :    0.096815
  11 H :    0.095921
Sum of atomic charges:    0.0000000

LOEWDIN ATOMIC CHARGES
----------------------
   0 C :   -0.000236
   1 O :   -0.000410
   2 H :   -0.002648
   3 H :   -0.000001
   4 H :   -0.000291
   5 H :   -0.000001
   6 C :   -0.416140
   7 O :   -0.060301
   8 H :    0.179833
   9 H :    0.111011
  10 H :    0.093349
  11 H :    0.095835

  Mayer bond orders larger than 0.1
B(  6-C ,  7-O ) :   1.0079 B(  6-C ,  9-H ) :   0.9734 B(  6-C , 10-H ) :   0.9647
B(  6-C , 11-H ) :   0.9904 B(  7-O ,  8-H ) :   0.8962

Dispersion correction           -0.000232913
FINAL SINGLE POINT ENERGY      -115.734186068557

DIPOLE MOMENT
-------------
                                X             Y             Z
Electronic contribution:     -0.16159      -1.75657      -0.61322
Nuclear contribution   :     -0.08894       1.98146       1.19512
                        -----------------------------------------
Total Dipole Moment    :     -0.25053       0.22489       0.58190
                        -----------------------------------------
Magnitude (a.u.)       :      0.67227
Magnitude (Debye)      :      1.70878

Rotational constants in cm-1:     4.203040     0.861652     0.823960
Rotational constants in MHz : 126003.971855 25831.690170 24701.705421

                             ****ORCA TERMINATED NORMALLY****
TOTAL RUN TIME: 0 days 0 hours 1 minutes 3 seconds 453 msec
