                         Program Version 4.1.2  - RELEASE  -
|  1> #Run DFT-D3 single point of the dimer
|  2> ! wB97X-D3 def2-TZVP TIGHTSCF CHELPG PMODEL PAL8
|  3>
|  4> %base "16-76_DFT_AB"
|  5>
|  6> %scf
|  7> MaxIter 1000
|  8> end
|  9>
| 10> * xyz 0 1
| 11>   C                      1.882657             -5.473259            -4.311445
| 12>   O                      1.200089             -6.616802            -4.829966
| 13>   H                      0.588911             -6.281126            -5.540718
| 14>   H                      2.877696             -5.712606            -3.843402
| 15>   H                      2.170245             -4.752331            -5.142988
| 16>   H                      1.250145             -4.869591            -3.657311
| 17>   C                      -2.724335            -7.779231            -3.663963
| 18>   O                      -2.306535            -8.949450            -4.368580
| 19>   H                      -3.146143            -9.301360            -4.569485
| 20>   H                      -3.622942            -8.116595            -3.058919
| 21>   H                      -2.015280            -7.343031            -2.985387
| 22>   H                      -3.217830            -7.021954            -4.316722
| 23> *
| 24>
| 25> #Run DFT-D3 single point of the molecule with dimer basis set
| 26> $new_job
| 27> %base "16-76_DFT_A"
| 28> ! wB97X-D3 def2-TZVP TIGHTSCF CHELPG PMODEL
| 29>
| 30> %scf
| 31> MaxIter 1000
| 32> end
| 33>
| 34> * xyz 0 1
| 35>   C                      1.882657             -5.473259            -4.311445
| 36>   O                      1.200089             -6.616802            -4.829966
| 37>   H                      0.588911             -6.281126            -5.540718
| 38>   H                      2.877696             -5.712606            -3.843402
| 39>   H                      2.170245             -4.752331            -5.142988
| 40>   H                      1.250145             -4.869591            -3.657311
| 41>   C                    : -2.724335            -7.779231            -3.663963
| 42>   O                    : -2.306535            -8.949450            -4.368580
| 43>   H                    : -3.146143            -9.301360            -4.569485
| 44>   H                    : -3.622942            -8.116595            -3.058919
| 45>   H                    : -2.015280            -7.343031            -2.985387
| 46>   H                    : -3.217830            -7.021954            -4.316722
| 47> *
| 48>
| 49> #Run DFT-D3 single point of the particle with dimer basis set
| 50> $new_job
| 51> %base "16-76_DFT_B"
| 52> ! wB97X-D3 def2-TZVP TIGHTSCF CHELPG PMODEL
| 53>
| 54> %scf
| 55> MaxIter 1000
| 56> end
| 57>
| 58> * xyz 0 1
| 59>   C                    : 1.882657             -5.473259            -4.311445
| 60>   O                    : 1.200089             -6.616802            -4.829966
| 61>   H                    : 0.588911             -6.281126            -5.540718
| 62>   H                    : 2.877696             -5.712606            -3.843402
| 63>   H                    : 2.170245             -4.752331            -5.142988
| 64>   H                    : 1.250145             -4.869591            -3.657311
| 65>   C                      -2.724335            -7.779231            -3.663963
| 66>   O                      -2.306535            -8.949450            -4.368580
| 67>   H                      -3.146143            -9.301360            -4.569485
| 68>   H                      -3.622942            -8.116595            -3.058919
| 69>   H                      -2.015280            -7.343031            -2.985387
| 70>   H                      -3.217830            -7.021954            -4.316722
| 71> *
| 72>
| 73>                          ****END OF INPUT****
 Total Charge           Charge          ....    0
 Multiplicity           Mult            ....    1
 Number of Electrons    NEL             ....   36
Dispersion correction           -0.000944880
FINAL SINGLE POINT ENERGY      -231.457449758528
Dispersion correction           -0.000260539
FINAL SINGLE POINT ENERGY      -115.731376771529

CARTESIAN COORDINATES (ANGSTROEM)
---------------------------------
  C      1.882657   -5.473259   -4.311445
  O      1.200089   -6.616802   -4.829966
  H      0.588911   -6.281126   -5.540718
  H      2.877696   -5.712606   -3.843402
  H      2.170245   -4.752331   -5.142988
  H      1.250145   -4.869591   -3.657311
  C     -2.724335   -7.779231   -3.663963
  O     -2.306535   -8.949450   -4.368580
  H     -3.146143   -9.301360   -4.569485
  H     -3.622942   -8.116595   -3.058919
  H     -2.015280   -7.343031   -2.985387
  H     -3.217830   -7.021954   -4.316722

 Multiplicity           Mult            ....    1
 Number of Electrons    NEL             ....   18
 Basis Dimension        Dim             ....  172

ORBITAL ENERGIES
----------------

  NO   OCC          E(Eh)            E(eV)
   0   2.0000     -19.231470      -523.3149
   1   2.0000     -10.321190      -280.8538
   2   2.0000      -1.145934       -31.1825
   3   2.0000      -0.792493       -21.5648
   4   2.0000      -0.613023       -16.6812
   5   2.0000      -0.539332       -14.6760
   6   2.0000      -0.529071       -14.3968
   7   2.0000      -0.445435       -12.1209
   8   2.0000      -0.371653       -10.1132
   9   0.0000       0.086900         2.3647
  10   0.0000       0.112486         3.0609
  11   0.0000       0.153075         4.1654
  12   0.0000       0.169560         4.6140
  13   0.0000       0.187104         5.0914

MULLIKEN ATOMIC CHARGES
-----------------------
   0 C :   -0.000044
   1 O :    0.000007
   2 H :   -0.000039
   3 H :   -0.000003
   4 H :   -0.000003
   5 H :   -0.000016
   6 C :   -0.198016
   7 O :   -0.453187
   8 H :    0.312129
   9 H :    0.100002
  10 H :    0.133290
  11 H :    0.105880
Sum of atomic charges:    0.0000000

LOEWDIN ATOMIC CHARGES
----------------------
   0 C :   -0.000059
   1 O :   -0.000075
   2 H :   -0.000102
   3 H :   -0.000001
   4 H :   -0.000001
   5 H :   -0.000019
   6 C :   -0.384593
   7 O :   -0.073868
   8 H :    0.155781
   9 H :    0.102851
  10 H :    0.101981
  11 H :    0.098104

  Mayer bond orders larger than 0.1
B(  6-C ,  7-O ) :   0.9930 B(  6-C ,  9-H ) :   0.9940 B(  6-C , 10-H ) :   0.9699
B(  6-C , 11-H ) :   0.9655 B(  7-O ,  8-H ) :   0.9082

Dispersion correction           -0.000221399
FINAL SINGLE POINT ENERGY      -115.726215959831

DIPOLE MOMENT
-------------
                                X             Y             Z
Electronic contribution:      0.99728      -1.40884      -0.92473
Nuclear contribution   :     -1.68537       1.63816       1.08995
                        -----------------------------------------
Total Dipole Moment    :     -0.68809       0.22932       0.16522
                        -----------------------------------------
Magnitude (a.u.)       :      0.74388
Magnitude (Debye)      :      1.89079

Rotational constants in cm-1:     4.232223     0.827995     0.790805
Rotational constants in MHz : 126878.867310 24822.671044 23707.737320

                             ****ORCA TERMINATED NORMALLY****
TOTAL RUN TIME: 0 days 0 hours 0 minutes 59 seconds 37 msec
