                         Program Version 4.1.2  - RELEASE  -
|  1> #Run DFT-D3 single point of the dimer
|  2> ! wB97X-D3 def2-TZVP TIGHTSCF  CHELPG PAL8
|  3>
|  4> %base "130_charges"
|  5>
|  6> %scf
|  7> MaxIter 1000
|  8> end
|  9> %output
| 10>   Print[ P_Mayer ] 1
| 11>   Print[ P_NatPop ] 1
| 12>   Print[ P_Hirshfeld ] 1
| 13>   Print[ P_Mulliken ] 1
| 14>   Print [ P_Loewdin ] 1
| 15> end
| 16>
| 17> * xyz 0 1
| 18>   C                      10.139439            6.726184             -9.324382
| 19>   O                      10.119492            5.374526             -9.694483
| 20>   H                      10.880137            4.860476             -9.544453
| 21>   H                      9.650905             6.913803             -8.365130
| 22>   H                      11.181368            7.046238             -9.245132
| 23>   H                      9.678499             7.381537             -9.959706
| 24> *
| 25>
| 26>                          ****END OF INPUT****

CARTESIAN COORDINATES (ANGSTROEM)
---------------------------------
  C     10.139439    6.726184   -9.324382
  O     10.119492    5.374526   -9.694483
  H     10.880137    4.860476   -9.544453
  H      9.650905    6.913803   -8.365130
  H     11.181368    7.046238   -9.245132
  H      9.678499    7.381537   -9.959706

 Total Charge           Charge          ....    0
 Multiplicity           Mult            ....    1
 Number of Electrons    NEL             ....   18
 Basis Dimension        Dim             ....   86

ORBITAL ENERGIES
----------------

  NO   OCC          E(Eh)            E(eV)
   0   2.0000     -19.222151      -523.0613
   1   2.0000     -10.306031      -280.4414
   2   2.0000      -1.137786       -30.9607
   3   2.0000      -0.810411       -22.0524
   4   2.0000      -0.620539       -16.8857
   5   2.0000      -0.545530       -14.8446
   6   2.0000      -0.538222       -14.6458
   7   2.0000      -0.418033       -11.3753
   8   2.0000      -0.372471       -10.1355
   9   0.0000       0.118933         3.2363
  10   0.0000       0.155469         4.2305
  11   0.0000       0.205979         5.6050
  12   0.0000       0.219722         5.9790
  13   0.0000       0.229874         6.2552

MULLIKEN ATOMIC CHARGES
-----------------------
   0 C :   -0.137506
   1 O :   -0.496557
   2 H :    0.320443
   3 H :    0.096464
   4 H :    0.096842
   5 H :    0.120314
Sum of atomic charges:   -0.0000000

LOEWDIN ATOMIC CHARGES
----------------------
   0 C :   -0.374888
   1 O :   -0.057109
   2 H :    0.148966
   3 H :    0.097064
   4 H :    0.098830
   5 H :    0.087137

  Mayer bond orders larger than 0.1
B(  0-C ,  1-O ) :   1.0028 B(  0-C ,  3-H ) :   0.9778 B(  0-C ,  4-H ) :   0.9924
B(  0-C ,  5-H ) :   0.9720 B(  1-O ,  2-H ) :   0.8962

Dispersion correction           -0.000251336
FINAL SINGLE POINT ENERGY      -115.726969861974

DIPOLE MOMENT
-------------
                                X             Y             Z
Electronic contribution:     -0.18163      -1.71481      -0.60281
Nuclear contribution   :      0.72013       1.94674       0.84083
                        -----------------------------------------
Total Dipole Moment    :      0.53849       0.23193       0.23802
                        -----------------------------------------
Magnitude (a.u.)       :      0.63279
Magnitude (Debye)      :      1.60841

Rotational constants in cm-1:     4.759734     0.830419     0.804538
Rotational constants in MHz : 142693.231196 24895.347287 24119.453775

                             ****ORCA TERMINATED NORMALLY****
TOTAL RUN TIME: 0 days 0 hours 0 minutes 42 seconds 587 msec
