                         Program Version 4.1.2  - RELEASE  -
|  1> #Run DFT-D3 single point of the dimer
|  2> ! wB97X-D3 def2-TZVP TIGHTSCF CHELPG PMODEL PAL8
|  3>
|  4> %base "13-199_DFT_AB"
|  5>
|  6> %scf
|  7> MaxIter 1000
|  8> end
|  9>
| 10> * xyz 0 1
| 11>   C                      0.950964             2.647921             8.080619
| 12>   O                      1.658286             1.577271             8.664702
| 13>   H                      2.550322             1.498365             8.275117
| 14>   H                      1.205504             2.611569             7.018494
| 15>   H                      -0.185575            2.570360             8.138774
| 16>   H                      1.287986             3.598304             8.443395
| 17>   C                      0.365751             0.564706             4.205491
| 18>   O                      1.427913             0.660183             5.164773
| 19>   H                      1.152837             0.691906             6.057448
| 20>   H                      0.233932             1.503655             3.647867
| 21>   H                      0.470228             -0.249392            3.475750
| 22>   H                      -0.635074            0.374987             4.630190
| 23> *
| 24>
| 25> #Run DFT-D3 single point of the molecule with dimer basis set
| 26> $new_job
| 27> %base "13-199_DFT_A"
| 28> ! wB97X-D3 def2-TZVP TIGHTSCF CHELPG PMODEL
| 29>
| 30> %scf
| 31> MaxIter 1000
| 32> end
| 33>
| 34> * xyz 0 1
| 35>   C                      0.950964             2.647921             8.080619
| 36>   O                      1.658286             1.577271             8.664702
| 37>   H                      2.550322             1.498365             8.275117
| 38>   H                      1.205504             2.611569             7.018494
| 39>   H                      -0.185575            2.570360             8.138774
| 40>   H                      1.287986             3.598304             8.443395
| 41>   C                    : 0.365751             0.564706             4.205491
| 42>   O                    : 1.427913             0.660183             5.164773
| 43>   H                    : 1.152837             0.691906             6.057448
| 44>   H                    : 0.233932             1.503655             3.647867
| 45>   H                    : 0.470228             -0.249392            3.475750
| 46>   H                    : -0.635074            0.374987             4.630190
| 47> *
| 48>
| 49> #Run DFT-D3 single point of the particle with dimer basis set
| 50> $new_job
| 51> %base "13-199_DFT_B"
| 52> ! wB97X-D3 def2-TZVP TIGHTSCF CHELPG PMODEL
| 53>
| 54> %scf
| 55> MaxIter 1000
| 56> end
| 57>
| 58> * xyz 0 1
| 59>   C                    : 0.950964             2.647921             8.080619
| 60>   O                    : 1.658286             1.577271             8.664702
| 61>   H                    : 2.550322             1.498365             8.275117
| 62>   H                    : 1.205504             2.611569             7.018494
| 63>   H                    : -0.185575            2.570360             8.138774
| 64>   H                    : 1.287986             3.598304             8.443395
| 65>   C                      0.365751             0.564706             4.205491
| 66>   O                      1.427913             0.660183             5.164773
| 67>   H                      1.152837             0.691906             6.057448
| 68>   H                      0.233932             1.503655             3.647867
| 69>   H                      0.470228             -0.249392            3.475750
| 70>   H                      -0.635074            0.374987             4.630190
| 71> *
| 72>
| 73>                          ****END OF INPUT****
 Total Charge           Charge          ....    0
 Multiplicity           Mult            ....    1
 Number of Electrons    NEL             ....   36
Dispersion correction           -0.001781335
FINAL SINGLE POINT ENERGY      -231.466277471182
Dispersion correction           -0.000237743
FINAL SINGLE POINT ENERGY      -115.731032741803

CARTESIAN COORDINATES (ANGSTROEM)
---------------------------------
  C      0.950964    2.647921    8.080619
  O      1.658286    1.577271    8.664702
  H      2.550322    1.498365    8.275117
  H      1.205504    2.611569    7.018494
  H     -0.185575    2.570360    8.138774
  H      1.287986    3.598304    8.443395
  C      0.365751    0.564706    4.205491
  O      1.427913    0.660183    5.164773
  H      1.152837    0.691906    6.057448
  H      0.233932    1.503655    3.647867
  H      0.470228   -0.249392    3.475750
  H     -0.635074    0.374987    4.630190

 Multiplicity           Mult            ....    1
 Number of Electrons    NEL             ....   18
 Basis Dimension        Dim             ....  172

ORBITAL ENERGIES
----------------

  NO   OCC          E(Eh)            E(eV)
   0   2.0000     -19.230286      -523.2827
   1   2.0000     -10.318945      -280.7928
   2   2.0000      -1.132697       -30.8223
   3   2.0000      -0.802941       -21.8491
   4   2.0000      -0.617670       -16.8076
   5   2.0000      -0.536432       -14.5971
   6   2.0000      -0.523126       -14.2350
   7   2.0000      -0.427441       -11.6313
   8   2.0000      -0.377915       -10.2836
   9   0.0000       0.077564         2.1106
  10   0.0000       0.133264         3.6263
  11   0.0000       0.148485         4.0405
  12   0.0000       0.168918         4.5965
  13   0.0000       0.181835         4.9480

MULLIKEN ATOMIC CHARGES
-----------------------
   0 C :    0.002397
   1 O :    0.000461
   2 H :   -0.000256
   3 H :   -0.014869
   4 H :    0.000492
   5 H :   -0.000893
   6 C :   -0.170302
   7 O :   -0.472889
   8 H :    0.317230
   9 H :    0.114645
  10 H :    0.118243
  11 H :    0.105740
Sum of atomic charges:    0.0000000

LOEWDIN ATOMIC CHARGES
----------------------
   0 C :   -0.006505
   1 O :   -0.000711
   2 H :   -0.000553
   3 H :   -0.009230
   4 H :   -0.000187
   5 H :   -0.000103
   6 C :   -0.372468
   7 O :   -0.066155
   8 H :    0.151854
   9 H :    0.101157
  10 H :    0.104078
  11 H :    0.098823

  Mayer bond orders larger than 0.1
B(  6-C ,  7-O ) :   1.0009 B(  6-C ,  9-H ) :   0.9742 B(  6-C , 10-H ) :   0.9722
B(  6-C , 11-H ) :   0.9790 B(  7-O ,  8-H ) :   0.9010

Dispersion correction           -0.000287262
FINAL SINGLE POINT ENERGY      -115.732215946887

DIPOLE MOMENT
-------------
                                X             Y             Z
Electronic contribution:      1.52359       0.08942       1.17155
Nuclear contribution   :     -2.17999      -0.12710      -0.97950
                        -----------------------------------------
Total Dipole Moment    :     -0.65641      -0.03768       0.19205
                        -----------------------------------------
Magnitude (a.u.)       :      0.68496
Magnitude (Debye)      :      1.74103

Rotational constants in cm-1:     4.542445     0.788239     0.769219
Rotational constants in MHz : 136179.084866 23630.810193 23060.601974

                             ****ORCA TERMINATED NORMALLY****
TOTAL RUN TIME: 0 days 0 hours 1 minutes 0 seconds 663 msec
