                         Program Version 4.1.2  - RELEASE  -
|  1> #Run DFT-D3 single point of the dimer
|  2> ! wB97X-D3 def2-TZVP TIGHTSCF CHELPG PMODEL PAL8
|  3>
|  4> %base "2-96_DFT_AB"
|  5>
|  6> %scf
|  7> MaxIter 1000
|  8> end
|  9>
| 10> * xyz 0 1
| 11>   C                      10.131559            -0.929883            -3.069840
| 12>   O                      8.749478             -0.835584            -3.413896
| 13>   H                      8.295501             -1.609561            -3.197512
| 14>   H                      10.881002            -1.133662            -3.916814
| 15>   H                      10.518113            -0.027949            -2.527007
| 16>   H                      10.152257            -1.698416            -2.209900
| 17>   C                      3.094691             -3.899319            -2.253301
| 18>   O                      4.012810             -2.855084            -2.489724
| 19>   H                      4.894132             -3.180706            -2.366375
| 20>   H                      3.274963             -4.743832            -2.885866
| 21>   H                      3.157851             -4.307120            -1.295152
| 22>   H                      2.029597             -3.619283            -2.348870
| 23> *
| 24>
| 25> #Run DFT-D3 single point of the molecule with dimer basis set
| 26> $new_job
| 27> %base "2-96_DFT_A"
| 28> ! wB97X-D3 def2-TZVP TIGHTSCF CHELPG PMODEL
| 29>
| 30> %scf
| 31> MaxIter 1000
| 32> end
| 33>
| 34> * xyz 0 1
| 35>   C                      10.131559            -0.929883            -3.069840
| 36>   O                      8.749478             -0.835584            -3.413896
| 37>   H                      8.295501             -1.609561            -3.197512
| 38>   H                      10.881002            -1.133662            -3.916814
| 39>   H                      10.518113            -0.027949            -2.527007
| 40>   H                      10.152257            -1.698416            -2.209900
| 41>   C                    : 3.094691             -3.899319            -2.253301
| 42>   O                    : 4.012810             -2.855084            -2.489724
| 43>   H                    : 4.894132             -3.180706            -2.366375
| 44>   H                    : 3.274963             -4.743832            -2.885866
| 45>   H                    : 3.157851             -4.307120            -1.295152
| 46>   H                    : 2.029597             -3.619283            -2.348870
| 47> *
| 48>
| 49> #Run DFT-D3 single point of the particle with dimer basis set
| 50> $new_job
| 51> %base "2-96_DFT_B"
| 52> ! wB97X-D3 def2-TZVP TIGHTSCF CHELPG PMODEL
| 53>
| 54> %scf
| 55> MaxIter 1000
| 56> end
| 57>
| 58> * xyz 0 1
| 59>   C                    : 10.131559            -0.929883            -3.069840
| 60>   O                    : 8.749478             -0.835584            -3.413896
| 61>   H                    : 8.295501             -1.609561            -3.197512
| 62>   H                    : 10.881002            -1.133662            -3.916814
| 63>   H                    : 10.518113            -0.027949            -2.527007
| 64>   H                    : 10.152257            -1.698416            -2.209900
| 65>   C                      3.094691             -3.899319            -2.253301
| 66>   O                      4.012810             -2.855084            -2.489724
| 67>   H                      4.894132             -3.180706            -2.366375
| 68>   H                      3.274963             -4.743832            -2.885866
| 69>   H                      3.157851             -4.307120            -1.295152
| 70>   H                      2.029597             -3.619283            -2.348870
| 71> *
| 72>
| 73>                          ****END OF INPUT****
 Total Charge           Charge          ....    0
 Multiplicity           Mult            ....    1
 Number of Electrons    NEL             ....   36
Dispersion correction           -0.000629111
FINAL SINGLE POINT ENERGY      -231.455192021800
Dispersion correction           -0.000278317
FINAL SINGLE POINT ENERGY      -115.724180833051

CARTESIAN COORDINATES (ANGSTROEM)
---------------------------------
  C     10.131559   -0.929883   -3.069840
  O      8.749478   -0.835584   -3.413896
  H      8.295501   -1.609561   -3.197512
  H     10.881002   -1.133662   -3.916814
  H     10.518113   -0.027949   -2.527007
  H     10.152257   -1.698416   -2.209900
  C      3.094691   -3.899319   -2.253301
  O      4.012810   -2.855084   -2.489724
  H      4.894132   -3.180706   -2.366375
  H      3.274963   -4.743832   -2.885866
  H      3.157851   -4.307120   -1.295152
  H      2.029597   -3.619283   -2.348870

 Multiplicity           Mult            ....    1
 Number of Electrons    NEL             ....   18
 Basis Dimension        Dim             ....  172

ORBITAL ENERGIES
----------------

  NO   OCC          E(Eh)            E(eV)
   0   2.0000     -19.229521      -523.2619
   1   2.0000     -10.305709      -280.4326
   2   2.0000      -1.138828       -30.9891
   3   2.0000      -0.804007       -21.8781
   4   2.0000      -0.618816       -16.8388
   5   2.0000      -0.541621       -14.7383
   6   2.0000      -0.529441       -14.4068
   7   2.0000      -0.434313       -11.8183
   8   2.0000      -0.373627       -10.1669
   9   0.0000       0.083678         2.2770
  10   0.0000       0.114027         3.1028
  11   0.0000       0.147633         4.0173
  12   0.0000       0.172251         4.6872
  13   0.0000       0.195007         5.3064

MULLIKEN ATOMIC CHARGES
-----------------------
   0 C :    0.000002
   1 O :    0.000004
   2 H :   -0.000051
   3 H :   -0.000000
   4 H :    0.000000
   5 H :   -0.000000
   6 C :   -0.167360
   7 O :   -0.475002
   8 H :    0.314995
   9 H :    0.102609
  10 H :    0.105329
  11 H :    0.119475
Sum of atomic charges:   -0.0000000

LOEWDIN ATOMIC CHARGES
----------------------
   0 C :   -0.000001
   1 O :   -0.000001
   2 H :   -0.000048
   3 H :   -0.000000
   4 H :   -0.000000
   5 H :   -0.000000
   6 C :   -0.383479
   7 O :   -0.066802
   8 H :    0.162420
   9 H :    0.090626
  10 H :    0.083806
  11 H :    0.113479

  Mayer bond orders larger than 0.1
B(  6-C ,  7-O ) :   0.9973 B(  6-C ,  9-H ) :   0.9816 B(  6-C , 10-H ) :   0.9774
B(  6-C , 11-H ) :   0.9728 B(  7-O ,  8-H ) :   0.8988

Dispersion correction           -0.000236969
FINAL SINGLE POINT ENERGY      -115.731785003312

DIPOLE MOMENT
-------------
                                X             Y             Z
Electronic contribution:      1.10903       1.50927      -0.34172
Nuclear contribution   :     -0.91211      -2.15685       0.53710
                        -----------------------------------------
Total Dipole Moment    :      0.19692      -0.64758       0.19539
                        -----------------------------------------
Magnitude (a.u.)       :      0.70450
Magnitude (Debye)      :      1.79069

Rotational constants in cm-1:     4.622570     0.830446     0.795100
Rotational constants in MHz : 138581.148839 24896.135331 23836.500491

                             ****ORCA TERMINATED NORMALLY****
TOTAL RUN TIME: 0 days 0 hours 6 minutes 21 seconds 780 msec
