                         Program Version 4.1.2  - RELEASE  -
|  1> #Run DFT-D3 single point of the dimer
|  2> ! wB97X-D3 def2-TZVP TIGHTSCF CHELPG PMODEL PAL8
|  3>
|  4> %base "20-36_DFT_AB"
|  5>
|  6> %scf
|  7> MaxIter 1000
|  8> end
|  9>
| 10> * xyz 0 1
| 11>   C                      -1.641794            5.307331             1.637861
| 12>   O                      -2.575965            4.229584             1.491744
| 13>   H                      -2.767324            3.875175             2.374490
| 14>   H                      -1.946451            5.984514             2.464272
| 15>   H                      -0.555480            5.066071             1.793109
| 16>   H                      -1.550788            5.846078             0.708489
| 17>   C                      1.020687             2.972538             -0.782984
| 18>   O                      0.345693             2.531546             -1.988019
| 19>   H                      -0.473600            3.038289             -2.076340
| 20>   H                      1.187707             2.209235             -0.070315
| 21>   H                      2.030811             3.457052             -0.969221
| 22>   H                      0.326062             3.697414             -0.317371
| 23> *
| 24>
| 25> #Run DFT-D3 single point of the molecule with dimer basis set
| 26> $new_job
| 27> %base "20-36_DFT_A"
| 28> ! wB97X-D3 def2-TZVP TIGHTSCF CHELPG PMODEL
| 29>
| 30> %scf
| 31> MaxIter 1000
| 32> end
| 33>
| 34> * xyz 0 1
| 35>   C                      -1.641794            5.307331             1.637861
| 36>   O                      -2.575965            4.229584             1.491744
| 37>   H                      -2.767324            3.875175             2.374490
| 38>   H                      -1.946451            5.984514             2.464272
| 39>   H                      -0.555480            5.066071             1.793109
| 40>   H                      -1.550788            5.846078             0.708489
| 41>   C                    : 1.020687             2.972538             -0.782984
| 42>   O                    : 0.345693             2.531546             -1.988019
| 43>   H                    : -0.473600            3.038289             -2.076340
| 44>   H                    : 1.187707             2.209235             -0.070315
| 45>   H                    : 2.030811             3.457052             -0.969221
| 46>   H                    : 0.326062             3.697414             -0.317371
| 47> *
| 48>
| 49> #Run DFT-D3 single point of the particle with dimer basis set
| 50> $new_job
| 51> %base "20-36_DFT_B"
| 52> ! wB97X-D3 def2-TZVP TIGHTSCF CHELPG PMODEL
| 53>
| 54> %scf
| 55> MaxIter 1000
| 56> end
| 57>
| 58> * xyz 0 1
| 59>   C                    : -1.641794            5.307331             1.637861
| 60>   O                    : -2.575965            4.229584             1.491744
| 61>   H                    : -2.767324            3.875175             2.374490
| 62>   H                    : -1.946451            5.984514             2.464272
| 63>   H                    : -0.555480            5.066071             1.793109
| 64>   H                    : -1.550788            5.846078             0.708489
| 65>   C                      1.020687             2.972538             -0.782984
| 66>   O                      0.345693             2.531546             -1.988019
| 67>   H                      -0.473600            3.038289             -2.076340
| 68>   H                      1.187707             2.209235             -0.070315
| 69>   H                      2.030811             3.457052             -0.969221
| 70>   H                      0.326062             3.697414             -0.317371
| 71> *
| 72>
| 73>                          ****END OF INPUT****
 Total Charge           Charge          ....    0
 Multiplicity           Mult            ....    1
 Number of Electrons    NEL             ....   36
Dispersion correction           -0.001380831
FINAL SINGLE POINT ENERGY      -231.463889541967
Dispersion correction           -0.000275766
FINAL SINGLE POINT ENERGY      -115.732428120559

CARTESIAN COORDINATES (ANGSTROEM)
---------------------------------
  C     -1.641794    5.307331    1.637861
  O     -2.575965    4.229584    1.491744
  H     -2.767324    3.875175    2.374490
  H     -1.946451    5.984514    2.464272
  H     -0.555480    5.066071    1.793109
  H     -1.550788    5.846078    0.708489
  C      1.020687    2.972538   -0.782984
  O      0.345693    2.531546   -1.988019
  H     -0.473600    3.038289   -2.076340
  H      1.187707    2.209235   -0.070315
  H      2.030811    3.457052   -0.969221
  H      0.326062    3.697414   -0.317371

 Multiplicity           Mult            ....    1
 Number of Electrons    NEL             ....   18
 Basis Dimension        Dim             ....  172

ORBITAL ENERGIES
----------------

  NO   OCC          E(Eh)            E(eV)
   0   2.0000     -19.230284      -523.2826
   1   2.0000     -10.319260      -280.8014
   2   2.0000      -1.124280       -30.5932
   3   2.0000      -0.795614       -21.6498
   4   2.0000      -0.603188       -16.4136
   5   2.0000      -0.536724       -14.6050
   6   2.0000      -0.529828       -14.4174
   7   2.0000      -0.428329       -11.6554
   8   2.0000      -0.375659       -10.2222
   9   0.0000       0.075684         2.0595
  10   0.0000       0.115209         3.1350
  11   0.0000       0.146469         3.9856
  12   0.0000       0.159506         4.3404
  13   0.0000       0.188285         5.1235

MULLIKEN ATOMIC CHARGES
-----------------------
   0 C :    0.002693
   1 O :   -0.000190
   2 H :   -0.000025
   3 H :   -0.000014
   4 H :   -0.001789
   5 H :   -0.000654
   6 C :   -0.167906
   7 O :   -0.479217
   8 H :    0.319153
   9 H :    0.121580
  10 H :    0.109852
  11 H :    0.096517
Sum of atomic charges:   -0.0000000

LOEWDIN ATOMIC CHARGES
----------------------
   0 C :   -0.003428
   1 O :   -0.000056
   2 H :   -0.000012
   3 H :   -0.000023
   4 H :   -0.002174
   5 H :   -0.000494
   6 C :   -0.359293
   7 O :   -0.108666
   8 H :    0.171371
   9 H :    0.091499
  10 H :    0.107825
  11 H :    0.103450

  Mayer bond orders larger than 0.1
B(  6-C ,  7-O ) :   1.0140 B(  6-C ,  9-H ) :   0.9720 B(  6-C , 10-H ) :   0.9702
B(  6-C , 11-H ) :   0.9983 B(  7-O ,  8-H ) :   0.9000

Dispersion correction           -0.000263145
FINAL SINGLE POINT ENERGY      -115.730078821496

DIPOLE MOMENT
-------------
                                X             Y             Z
Electronic contribution:     -0.69447      -0.74452      -1.54066
Nuclear contribution   :      0.43049       1.24259       2.00207
                        -----------------------------------------
Total Dipole Moment    :     -0.26398       0.49807       0.46141
                        -----------------------------------------
Magnitude (a.u.)       :      0.72846
Magnitude (Debye)      :      1.85160

Rotational constants in cm-1:     4.285485     0.795643     0.765353
Rotational constants in MHz : 128475.600388 23852.768008 22944.707253

                             ****ORCA TERMINATED NORMALLY****
TOTAL RUN TIME: 0 days 0 hours 1 minutes 7 seconds 841 msec
