                         Program Version 4.1.2  - RELEASE  -
|  1> #Run DFT-D3 single point of the dimer
|  2> ! wB97X-D3 def2-TZVP TIGHTSCF CHELPG PMODEL PAL8
|  3>
|  4> %base "4-186_DFT_AB"
|  5>
|  6> %scf
|  7> MaxIter 1000
|  8> end
|  9>
| 10> * xyz 0 1
| 11>   C                      -11.030589           -10.824874           0.146035
| 12>   O                      -10.736552           -10.999010           -1.215801
| 13>   H                      -10.291580           -10.216554           -1.534362
| 14>   H                      -11.125551           -9.769783            0.452683
| 15>   H                      -12.010200           -11.349440           0.304439
| 16>   H                      -10.229416           -11.273716           0.827972
| 17>   C                      -7.926384            -7.619444            -1.667306
| 18>   O                      -8.919747            -8.583766            -1.331955
| 19>   H                      -8.786648            -8.893129            -0.419254
| 20>   H                      -8.150716            -7.131965            -2.611640
| 21>   H                      -7.750896            -6.761940            -0.908140
| 22>   H                      -6.957559            -7.997978            -1.840981
| 23> *
| 24>
| 25> #Run DFT-D3 single point of the molecule with dimer basis set
| 26> $new_job
| 27> %base "4-186_DFT_A"
| 28> ! wB97X-D3 def2-TZVP TIGHTSCF CHELPG PMODEL
| 29>
| 30> %scf
| 31> MaxIter 1000
| 32> end
| 33>
| 34> * xyz 0 1
| 35>   C                      -11.030589           -10.824874           0.146035
| 36>   O                      -10.736552           -10.999010           -1.215801
| 37>   H                      -10.291580           -10.216554           -1.534362
| 38>   H                      -11.125551           -9.769783            0.452683
| 39>   H                      -12.010200           -11.349440           0.304439
| 40>   H                      -10.229416           -11.273716           0.827972
| 41>   C                    : -7.926384            -7.619444            -1.667306
| 42>   O                    : -8.919747            -8.583766            -1.331955
| 43>   H                    : -8.786648            -8.893129            -0.419254
| 44>   H                    : -8.150716            -7.131965            -2.611640
| 45>   H                    : -7.750896            -6.761940            -0.908140
| 46>   H                    : -6.957559            -7.997978            -1.840981
| 47> *
| 48>
| 49> #Run DFT-D3 single point of the particle with dimer basis set
| 50> $new_job
| 51> %base "4-186_DFT_B"
| 52> ! wB97X-D3 def2-TZVP TIGHTSCF CHELPG PMODEL
| 53>
| 54> %scf
| 55> MaxIter 1000
| 56> end
| 57>
| 58> * xyz 0 1
| 59>   C                    : -11.030589           -10.824874           0.146035
| 60>   O                    : -10.736552           -10.999010           -1.215801
| 61>   H                    : -10.291580           -10.216554           -1.534362
| 62>   H                    : -11.125551           -9.769783            0.452683
| 63>   H                    : -12.010200           -11.349440           0.304439
| 64>   H                    : -10.229416           -11.273716           0.827972
| 65>   C                      -7.926384            -7.619444            -1.667306
| 66>   O                      -8.919747            -8.583766            -1.331955
| 67>   H                      -8.786648            -8.893129            -0.419254
| 68>   H                      -8.150716            -7.131965            -2.611640
| 69>   H                      -7.750896            -6.761940            -0.908140
| 70>   H                      -6.957559            -7.997978            -1.840981
| 71> *
| 72>
| 73>                          ****END OF INPUT****
 Total Charge           Charge          ....    0
 Multiplicity           Mult            ....    1
 Number of Electrons    NEL             ....   36
Dispersion correction           -0.001721501
FINAL SINGLE POINT ENERGY      -231.471321116403
Dispersion correction           -0.000256635
FINAL SINGLE POINT ENERGY      -115.734418902508

CARTESIAN COORDINATES (ANGSTROEM)
---------------------------------
  C    -11.030589  -10.824874    0.146035
  O    -10.736552  -10.999010   -1.215801
  H    -10.291580  -10.216554   -1.534362
  H    -11.125551   -9.769783    0.452683
  H    -12.010200  -11.349440    0.304439
  H    -10.229416  -11.273716    0.827972
  C     -7.926384   -7.619444   -1.667306
  O     -8.919747   -8.583766   -1.331955
  H     -8.786648   -8.893129   -0.419254
  H     -8.150716   -7.131965   -2.611640
  H     -7.750896   -6.761940   -0.908140
  H     -6.957559   -7.997978   -1.840981

 Multiplicity           Mult            ....    1
 Number of Electrons    NEL             ....   18
 Basis Dimension        Dim             ....  172

ORBITAL ENERGIES
----------------

  NO   OCC          E(Eh)            E(eV)
   0   2.0000     -19.237792      -523.4869
   1   2.0000     -10.316392      -280.7233
   2   2.0000      -1.132420       -30.8147
   3   2.0000      -0.799493       -21.7553
   4   2.0000      -0.612776       -16.6745
   5   2.0000      -0.532093       -14.4790
   6   2.0000      -0.527420       -14.3518
   7   2.0000      -0.434394       -11.8205
   8   2.0000      -0.376831       -10.2541
   9   0.0000       0.085969         2.3393
  10   0.0000       0.128521         3.4972
  11   0.0000       0.152063         4.1378
  12   0.0000       0.180426         4.9096
  13   0.0000       0.199033         5.4160

MULLIKEN ATOMIC CHARGES
-----------------------
   0 C :    0.001846
   1 O :    0.000038
   2 H :   -0.008711
   3 H :   -0.004139
   4 H :   -0.000141
   5 H :   -0.000081
   6 C :   -0.173135
   7 O :   -0.462034
   8 H :    0.320760
   9 H :    0.121821
  10 H :    0.096022
  11 H :    0.107753
Sum of atomic charges:   -0.0000000

LOEWDIN ATOMIC CHARGES
----------------------
   0 C :   -0.004612
   1 O :   -0.002755
   2 H :   -0.024900
   3 H :   -0.002223
   4 H :   -0.000025
   5 H :   -0.000256
   6 C :   -0.385590
   7 O :   -0.059237
   8 H :    0.181465
   9 H :    0.107825
  10 H :    0.105266
  11 H :    0.085042

  Mayer bond orders larger than 0.1
B(  6-C ,  7-O ) :   1.0054 B(  6-C ,  9-H ) :   0.9783 B(  6-C , 10-H ) :   0.9710
B(  6-C , 11-H ) :   0.9716 B(  7-O ,  8-H ) :   0.8912

Dispersion correction           -0.000283167
FINAL SINGLE POINT ENERGY      -115.731194842881

DIPOLE MOMENT
-------------
                                X             Y             Z
Electronic contribution:     -1.40074      -1.36686       0.31120
Nuclear contribution   :      1.90293       1.54796       0.10296
                        -----------------------------------------
Total Dipole Moment    :      0.50219       0.18109       0.41416
                        -----------------------------------------
Magnitude (a.u.)       :      0.67566
Magnitude (Debye)      :      1.71740

Rotational constants in cm-1:     4.452103     0.803790     0.771683
Rotational constants in MHz : 133470.696162 24097.024197 23134.469488

                             ****ORCA TERMINATED NORMALLY****
TOTAL RUN TIME: 0 days 0 hours 1 minutes 35 seconds 245 msec
