                         Program Version 4.1.2  - RELEASE  -
|  1> #Run DFT-D3 single point of the dimer
|  2> ! wB97X-D3 def2-TZVP TIGHTSCF CHELPG PMODEL PAL8
|  3>
|  4> %base "6-129_DFT_AB"
|  5>
|  6> %scf
|  7> MaxIter 1000
|  8> end
|  9>
| 10> * xyz 0 1
| 11>   C                      -1.936839            -7.101095            -2.876770
| 12>   O                      -3.061484            -6.946725            -2.043370
| 13>   H                      -3.335684            -6.055807            -2.122500
| 14>   H                      -1.004453            -6.991422            -2.356135
| 15>   H                      -1.884352            -8.095574            -3.432958
| 16>   H                      -1.945391            -6.367581            -3.715468
| 17>   C                      1.449226             -6.434020            0.696478
| 18>   O                      0.412153             -6.402556            -0.248079
| 19>   H                      0.008647             -5.535589            -0.295432
| 20>   H                      1.145095             -6.094302            1.594286
| 21>   H                      1.867593             -7.459770            0.886498
| 22>   H                      2.280055             -5.754609            0.386227
| 23> *
| 24>
| 25> #Run DFT-D3 single point of the molecule with dimer basis set
| 26> $new_job
| 27> %base "6-129_DFT_A"
| 28> ! wB97X-D3 def2-TZVP TIGHTSCF CHELPG PMODEL
| 29>
| 30> %scf
| 31> MaxIter 1000
| 32> end
| 33>
| 34> * xyz 0 1
| 35>   C                      -1.936839            -7.101095            -2.876770
| 36>   O                      -3.061484            -6.946725            -2.043370
| 37>   H                      -3.335684            -6.055807            -2.122500
| 38>   H                      -1.004453            -6.991422            -2.356135
| 39>   H                      -1.884352            -8.095574            -3.432958
| 40>   H                      -1.945391            -6.367581            -3.715468
| 41>   C                    : 1.449226             -6.434020            0.696478
| 42>   O                    : 0.412153             -6.402556            -0.248079
| 43>   H                    : 0.008647             -5.535589            -0.295432
| 44>   H                    : 1.145095             -6.094302            1.594286
| 45>   H                    : 1.867593             -7.459770            0.886498
| 46>   H                    : 2.280055             -5.754609            0.386227
| 47> *
| 48>
| 49> #Run DFT-D3 single point of the particle with dimer basis set
| 50> $new_job
| 51> %base "6-129_DFT_B"
| 52> ! wB97X-D3 def2-TZVP TIGHTSCF CHELPG PMODEL
| 53>
| 54> %scf
| 55> MaxIter 1000
| 56> end
| 57>
| 58> * xyz 0 1
| 59>   C                    : -1.936839            -7.101095            -2.876770
| 60>   O                    : -3.061484            -6.946725            -2.043370
| 61>   H                    : -3.335684            -6.055807            -2.122500
| 62>   H                    : -1.004453            -6.991422            -2.356135
| 63>   H                    : -1.884352            -8.095574            -3.432958
| 64>   H                    : -1.945391            -6.367581            -3.715468
| 65>   C                      1.449226             -6.434020            0.696478
| 66>   O                      0.412153             -6.402556            -0.248079
| 67>   H                      0.008647             -5.535589            -0.295432
| 68>   H                      1.145095             -6.094302            1.594286
| 69>   H                      1.867593             -7.459770            0.886498
| 70>   H                      2.280055             -5.754609            0.386227
| 71> *
| 72>
| 73>                          ****END OF INPUT****
 Total Charge           Charge          ....    0
 Multiplicity           Mult            ....    1
 Number of Electrons    NEL             ....   36
Dispersion correction           -0.001300576
FINAL SINGLE POINT ENERGY      -231.461910878024
Dispersion correction           -0.000252825
FINAL SINGLE POINT ENERGY      -115.732396514052

CARTESIAN COORDINATES (ANGSTROEM)
---------------------------------
  C     -1.936839   -7.101095   -2.876770
  O     -3.061484   -6.946725   -2.043370
  H     -3.335684   -6.055807   -2.122500
  H     -1.004453   -6.991422   -2.356135
  H     -1.884352   -8.095574   -3.432958
  H     -1.945391   -6.367581   -3.715468
  C      1.449226   -6.434020    0.696478
  O      0.412153   -6.402556   -0.248079
  H      0.008647   -5.535589   -0.295432
  H      1.145095   -6.094302    1.594286
  H      1.867593   -7.459770    0.886498
  H      2.280055   -5.754609    0.386227

 Multiplicity           Mult            ....    1
 Number of Electrons    NEL             ....   18
 Basis Dimension        Dim             ....  172

ORBITAL ENERGIES
----------------

  NO   OCC          E(Eh)            E(eV)
   0   2.0000     -19.228783      -523.2418
   1   2.0000     -10.308376      -280.5052
   2   2.0000      -1.137944       -30.9650
   3   2.0000      -0.801199       -21.8017
   4   2.0000      -0.618826       -16.8391
   5   2.0000      -0.542790       -14.7701
   6   2.0000      -0.529785       -14.4162
   7   2.0000      -0.429600       -11.6900
   8   2.0000      -0.372253       -10.1295
   9   0.0000       0.092198         2.5088
  10   0.0000       0.124383         3.3846
  11   0.0000       0.153519         4.1775
  12   0.0000       0.172558         4.6955
  13   0.0000       0.201090         5.4719

MULLIKEN ATOMIC CHARGES
-----------------------
   0 C :    0.002897
   1 O :   -0.000064
   2 H :   -0.000043
   3 H :   -0.011017
   4 H :   -0.000173
   5 H :   -0.000117
   6 C :   -0.153843
   7 O :   -0.469571
   8 H :    0.317126
   9 H :    0.105456
  10 H :    0.116033
  11 H :    0.093316
Sum of atomic charges:   -0.0000000

LOEWDIN ATOMIC CHARGES
----------------------
   0 C :   -0.003869
   1 O :   -0.000121
   2 H :   -0.000048
   3 H :   -0.009636
   4 H :   -0.000020
   5 H :   -0.000023
   6 C :   -0.383874
   7 O :   -0.059798
   8 H :    0.169318
   9 H :    0.072600
  10 H :    0.116628
  11 H :    0.098844

  Mayer bond orders larger than 0.1
B(  6-C ,  7-O ) :   0.9924 B(  6-C ,  9-H ) :   0.9768 B(  6-C , 10-H ) :   0.9723
B(  6-C , 11-H ) :   0.9825 B(  7-O ,  8-H ) :   0.8930

Dispersion correction           -0.000235302
FINAL SINGLE POINT ENERGY      -115.728896109471

DIPOLE MOMENT
-------------
                                X             Y             Z
Electronic contribution:     -1.38763      -0.11554      -1.18849
Nuclear contribution   :      1.52941       0.67225       1.58721
                        -----------------------------------------
Total Dipole Moment    :      0.14178       0.55671       0.39873
                        -----------------------------------------
Magnitude (a.u.)       :      0.69930
Magnitude (Debye)      :      1.77747

Rotational constants in cm-1:     4.483224     0.837626     0.803168
Rotational constants in MHz : 134403.666711 25111.384772 24078.366258

                             ****ORCA TERMINATED NORMALLY****
TOTAL RUN TIME: 0 days 0 hours 1 minutes 2 seconds 852 msec
