                         Program Version 4.1.2  - RELEASE  -
|  1> #Run DFT-D3 single point of the dimer
|  2> ! wB97X-D3 def2-TZVP TIGHTSCF CHELPG PMODEL PAL8
|  3>
|  4> %base "22-7_DFT_AB"
|  5>
|  6> %scf
|  7> MaxIter 1000
|  8> end
|  9>
| 10> * xyz 0 1
| 11>   C                      -3.366488            1.354718             8.299496
| 12>   O                      -2.747762            2.580068             8.513952
| 13>   H                      -2.097212            2.607204             7.804503
| 14>   H                      -3.091532            0.606645             9.087924
| 15>   H                      -4.464560            1.385830             8.357553
| 16>   H                      -3.098089            0.935276             7.304372
| 17>   C                      -1.507390            1.154501             3.586945
| 18>   O                      -2.170510            2.402761             3.694004
| 19>   H                      -2.738338            2.516325             2.930582
| 20>   H                      -0.792150            1.052577             4.403646
| 21>   H                      -2.124443            0.255359             3.494135
| 22>   H                      -0.882122            1.146564             2.670415
| 23> *
| 24>
| 25> #Run DFT-D3 single point of the molecule with dimer basis set
| 26> $new_job
| 27> %base "22-7_DFT_A"
| 28> ! wB97X-D3 def2-TZVP TIGHTSCF CHELPG PMODEL
| 29>
| 30> %scf
| 31> MaxIter 1000
| 32> end
| 33>
| 34> * xyz 0 1
| 35>   C                      -3.366488            1.354718             8.299496
| 36>   O                      -2.747762            2.580068             8.513952
| 37>   H                      -2.097212            2.607204             7.804503
| 38>   H                      -3.091532            0.606645             9.087924
| 39>   H                      -4.464560            1.385830             8.357553
| 40>   H                      -3.098089            0.935276             7.304372
| 41>   C                    : -1.507390            1.154501             3.586945
| 42>   O                    : -2.170510            2.402761             3.694004
| 43>   H                    : -2.738338            2.516325             2.930582
| 44>   H                    : -0.792150            1.052577             4.403646
| 45>   H                    : -2.124443            0.255359             3.494135
| 46>   H                    : -0.882122            1.146564             2.670415
| 47> *
| 48>
| 49> #Run DFT-D3 single point of the particle with dimer basis set
| 50> $new_job
| 51> %base "22-7_DFT_B"
| 52> ! wB97X-D3 def2-TZVP TIGHTSCF CHELPG PMODEL
| 53>
| 54> %scf
| 55> MaxIter 1000
| 56> end
| 57>
| 58> * xyz 0 1
| 59>   C                    : -3.366488            1.354718             8.299496
| 60>   O                    : -2.747762            2.580068             8.513952
| 61>   H                    : -2.097212            2.607204             7.804503
| 62>   H                    : -3.091532            0.606645             9.087924
| 63>   H                    : -4.464560            1.385830             8.357553
| 64>   H                    : -3.098089            0.935276             7.304372
| 65>   C                      -1.507390            1.154501             3.586945
| 66>   O                      -2.170510            2.402761             3.694004
| 67>   H                      -2.738338            2.516325             2.930582
| 68>   H                      -0.792150            1.052577             4.403646
| 69>   H                      -2.124443            0.255359             3.494135
| 70>   H                      -0.882122            1.146564             2.670415
| 71> *
| 72>
| 73>                          ****END OF INPUT****
 Total Charge           Charge          ....    0
 Multiplicity           Mult            ....    1
 Number of Electrons    NEL             ....   36
Dispersion correction           -0.000917977
FINAL SINGLE POINT ENERGY      -231.469086840905
Dispersion correction           -0.000239875
FINAL SINGLE POINT ENERGY      -115.732494574410

CARTESIAN COORDINATES (ANGSTROEM)
---------------------------------
  C     -3.366488    1.354718    8.299496
  O     -2.747762    2.580068    8.513952
  H     -2.097212    2.607204    7.804503
  H     -3.091532    0.606645    9.087924
  H     -4.464560    1.385830    8.357553
  H     -3.098089    0.935276    7.304372
  C     -1.507390    1.154501    3.586945
  O     -2.170510    2.402761    3.694004
  H     -2.738338    2.516325    2.930582
  H     -0.792150    1.052577    4.403646
  H     -2.124443    0.255359    3.494135
  H     -0.882122    1.146564    2.670415

 Multiplicity           Mult            ....    1
 Number of Electrons    NEL             ....   18
 Basis Dimension        Dim             ....  172

ORBITAL ENERGIES
----------------

  NO   OCC          E(Eh)            E(eV)
   0   2.0000     -19.231991      -523.3291
   1   2.0000     -10.315027      -280.6862
   2   2.0000      -1.136009       -30.9124
   3   2.0000      -0.796460       -21.6728
   4   2.0000      -0.614064       -16.7095
   5   2.0000      -0.534910       -14.5556
   6   2.0000      -0.527306       -14.3487
   7   2.0000      -0.437038       -11.8924
   8   2.0000      -0.372887       -10.1468
   9   0.0000       0.092362         2.5133
  10   0.0000       0.117811         3.2058
  11   0.0000       0.151168         4.1135
  12   0.0000       0.169945         4.6244
  13   0.0000       0.195492         5.3196

MULLIKEN ATOMIC CHARGES
-----------------------
   0 C :   -0.000197
   1 O :    0.000050
   2 H :   -0.000361
   3 H :   -0.000011
   4 H :    0.000025
   5 H :    0.000088
   6 C :   -0.166331
   7 O :   -0.474859
   8 H :    0.314480
   9 H :    0.123045
  10 H :    0.103292
  11 H :    0.100780
Sum of atomic charges:    0.0000000

LOEWDIN ATOMIC CHARGES
----------------------
   0 C :   -0.000173
   1 O :   -0.000011
   2 H :   -0.000167
   3 H :   -0.000007
   4 H :   -0.000001
   5 H :   -0.000181
   6 C :   -0.388255
   7 O :   -0.077065
   8 H :    0.167209
   9 H :    0.108667
  10 H :    0.093203
  11 H :    0.096782

  Mayer bond orders larger than 0.1
B(  6-C ,  7-O ) :   0.9968 B(  6-C ,  9-H ) :   0.9745 B(  6-C , 10-H ) :   0.9673
B(  6-C , 11-H ) :   0.9820 B(  7-O ,  8-H ) :   0.8990

Dispersion correction           -0.000252126
FINAL SINGLE POINT ENERGY      -115.735340773356

DIPOLE MOMENT
-------------
                                X             Y             Z
Electronic contribution:     -0.90819       1.62007       0.36175
Nuclear contribution   :      0.82166      -2.04052      -0.89570
                        -----------------------------------------
Total Dipole Moment    :     -0.08653      -0.42045      -0.53395
                        -----------------------------------------
Magnitude (a.u.)       :      0.68511
Magnitude (Debye)      :      1.74141

Rotational constants in cm-1:     4.350400     0.822700     0.790308
Rotational constants in MHz : 130421.703703 24663.911999 23692.839523

                             ****ORCA TERMINATED NORMALLY****
TOTAL RUN TIME: 0 days 0 hours 0 minutes 52 seconds 755 msec
