                         Program Version 4.1.2  - RELEASE  -
|  1> #Run DFT-D3 single point of the dimer
|  2> ! wB97X-D3 def2-TZVP TIGHTSCF  CHELPG PAL8
|  3>
|  4> %base "97_charges"
|  5>
|  6> %scf
|  7> MaxIter 1000
|  8> end
|  9> %output
| 10>   Print[ P_Mayer ] 1
| 11>   Print[ P_NatPop ] 1
| 12>   Print[ P_Hirshfeld ] 1
| 13>   Print[ P_Mulliken ] 1
| 14>   Print [ P_Loewdin ] 1
| 15> end
| 16>
| 17> * xyz 0 1
| 18>   C                      10.895842            3.859828             4.976887
| 19>   O                      9.543575             3.413807             5.120331
| 20>   H                      9.259058             3.103046             4.233005
| 21>   H                      11.649375            3.017892             4.845191
| 22>   H                      10.920710            4.614268             4.226234
| 23>   H                      11.212051            4.419450             5.896009
| 24> *
| 25>
| 26>                          ****END OF INPUT****

CARTESIAN COORDINATES (ANGSTROEM)
---------------------------------
  C     10.895842    3.859828    4.976887
  O      9.543575    3.413807    5.120331
  H      9.259058    3.103046    4.233005
  H     11.649375    3.017892    4.845191
  H     10.920710    4.614268    4.226234
  H     11.212051    4.419450    5.896009

 Total Charge           Charge          ....    0
 Multiplicity           Mult            ....    1
 Number of Electrons    NEL             ....   18
 Basis Dimension        Dim             ....   86

ORBITAL ENERGIES
----------------

  NO   OCC          E(Eh)            E(eV)
   0   2.0000     -19.232747      -523.3497
   1   2.0000     -10.318794      -280.7887
   2   2.0000      -1.127964       -30.6935
   3   2.0000      -0.791032       -21.5251
   4   2.0000      -0.600773       -16.3479
   5   2.0000      -0.546494       -14.8709
   6   2.0000      -0.520616       -14.1667
   7   2.0000      -0.427967       -11.6456
   8   2.0000      -0.376466       -10.2442
   9   0.0000       0.113953         3.1008
  10   0.0000       0.150708         4.1010
  11   0.0000       0.198163         5.3923
  12   0.0000       0.204055         5.5526
  13   0.0000       0.217885         5.9289

MULLIKEN ATOMIC CHARGES
-----------------------
   0 C :   -0.164665
   1 O :   -0.478617
   2 H :    0.316841
   3 H :    0.101280
   4 H :    0.108328
   5 H :    0.116833
Sum of atomic charges:   -0.0000000

LOEWDIN ATOMIC CHARGES
----------------------
   0 C :   -0.384091
   1 O :   -0.101586
   2 H :    0.180797
   3 H :    0.102358
   4 H :    0.088818
   5 H :    0.113706

  Mayer bond orders larger than 0.1
B(  0-C ,  1-O ) :   0.9993 B(  0-C ,  3-H ) :   0.9685 B(  0-C ,  4-H ) :   0.9818
B(  0-C ,  5-H ) :   0.9729 B(  1-O ,  2-H ) :   0.8959

Dispersion correction           -0.000254566
FINAL SINGLE POINT ENERGY      -115.732237496475

DIPOLE MOMENT
-------------
                                X             Y             Z
Electronic contribution:     -1.72237      -0.57878       0.24448
Nuclear contribution   :      2.07944       0.59912      -0.84731
                        -----------------------------------------
Total Dipole Moment    :      0.35707       0.02034      -0.60283
                        -----------------------------------------
Magnitude (a.u.)       :      0.70094
Magnitude (Debye)      :      1.78165

Rotational constants in cm-1:     4.171505     0.807386     0.787358
Rotational constants in MHz : 125058.583953 24204.824501 23604.395020

                             ****ORCA TERMINATED NORMALLY****
TOTAL RUN TIME: 0 days 0 hours 0 minutes 40 seconds 639 msec
