                         Program Version 4.1.2  - RELEASE  -
|  1> #Run DFT-D3 single point of the dimer
|  2> ! wB97X-D3 def2-TZVP TIGHTSCF CHELPG PMODEL PAL8
|  3>
|  4> %base "16-44_DFT_AB"
|  5>
|  6> %scf
|  7> MaxIter 1000
|  8> end
|  9>
| 10> * xyz 0 1
| 11>   C                      3.918612             -5.045741            2.896027
| 12>   O                      4.275113             -3.748419            2.773380
| 13>   H                      5.177996             -3.619790            2.820687
| 14>   H                      3.911424             -5.560728            1.980114
| 15>   H                      4.669848             -5.508734            3.468600
| 16>   H                      2.869578             -5.280809            3.312576
| 17>   C                      3.517834             -8.747606            1.460186
| 18>   O                      4.829382             -8.235508            1.418514
| 19>   H                      5.082431             -8.293517            0.508124
| 20>   H                      3.325254             -9.482731            0.759865
| 21>   H                      3.268235             -9.300667            2.413864
| 22>   H                      2.728976             -7.938269            1.480270
| 23> *
| 24>
| 25> #Run DFT-D3 single point of the molecule with dimer basis set
| 26> $new_job
| 27> %base "16-44_DFT_A"
| 28> ! wB97X-D3 def2-TZVP TIGHTSCF CHELPG PMODEL
| 29>
| 30> %scf
| 31> MaxIter 1000
| 32> end
| 33>
| 34> * xyz 0 1
| 35>   C                      3.918612             -5.045741            2.896027
| 36>   O                      4.275113             -3.748419            2.773380
| 37>   H                      5.177996             -3.619790            2.820687
| 38>   H                      3.911424             -5.560728            1.980114
| 39>   H                      4.669848             -5.508734            3.468600
| 40>   H                      2.869578             -5.280809            3.312576
| 41>   C                    : 3.517834             -8.747606            1.460186
| 42>   O                    : 4.829382             -8.235508            1.418514
| 43>   H                    : 5.082431             -8.293517            0.508124
| 44>   H                    : 3.325254             -9.482731            0.759865
| 45>   H                    : 3.268235             -9.300667            2.413864
| 46>   H                    : 2.728976             -7.938269            1.480270
| 47> *
| 48>
| 49> #Run DFT-D3 single point of the particle with dimer basis set
| 50> $new_job
| 51> %base "16-44_DFT_B"
| 52> ! wB97X-D3 def2-TZVP TIGHTSCF CHELPG PMODEL
| 53>
| 54> %scf
| 55> MaxIter 1000
| 56> end
| 57>
| 58> * xyz 0 1
| 59>   C                    : 3.918612             -5.045741            2.896027
| 60>   O                    : 4.275113             -3.748419            2.773380
| 61>   H                    : 5.177996             -3.619790            2.820687
| 62>   H                    : 3.911424             -5.560728            1.980114
| 63>   H                    : 4.669848             -5.508734            3.468600
| 64>   H                    : 2.869578             -5.280809            3.312576
| 65>   C                      3.517834             -8.747606            1.460186
| 66>   O                      4.829382             -8.235508            1.418514
| 67>   H                      5.082431             -8.293517            0.508124
| 68>   H                      3.325254             -9.482731            0.759865
| 69>   H                      3.268235             -9.300667            2.413864
| 70>   H                      2.728976             -7.938269            1.480270
| 71> *
| 72>
| 73>                          ****END OF INPUT****
 Total Charge           Charge          ....    0
 Multiplicity           Mult            ....    1
 Number of Electrons    NEL             ....   36
Dispersion correction           -0.001639446
FINAL SINGLE POINT ENERGY      -231.452545879719
Dispersion correction           -0.000218031
FINAL SINGLE POINT ENERGY      -115.721972392472

CARTESIAN COORDINATES (ANGSTROEM)
---------------------------------
  C      3.918612   -5.045741    2.896027
  O      4.275113   -3.748419    2.773380
  H      5.177996   -3.619790    2.820687
  H      3.911424   -5.560728    1.980114
  H      4.669848   -5.508734    3.468600
  H      2.869578   -5.280809    3.312576
  C      3.517834   -8.747606    1.460186
  O      4.829382   -8.235508    1.418514
  H      5.082431   -8.293517    0.508124
  H      3.325254   -9.482731    0.759865
  H      3.268235   -9.300667    2.413864
  H      2.728976   -7.938269    1.480270

 Multiplicity           Mult            ....    1
 Number of Electrons    NEL             ....   18
 Basis Dimension        Dim             ....  172

ORBITAL ENERGIES
----------------

  NO   OCC          E(Eh)            E(eV)
   0   2.0000     -19.234963      -523.4100
   1   2.0000     -10.314236      -280.6646
   2   2.0000      -1.145436       -31.1689
   3   2.0000      -0.797893       -21.7118
   4   2.0000      -0.619627       -16.8609
   5   2.0000      -0.541536       -14.7360
   6   2.0000      -0.526139       -14.3170
   7   2.0000      -0.436603       -11.8806
   8   2.0000      -0.375193       -10.2095
   9   0.0000       0.094334         2.5670
  10   0.0000       0.124270         3.3816
  11   0.0000       0.146343         3.9822
  12   0.0000       0.173223         4.7136
  13   0.0000       0.198631         5.4050

MULLIKEN ATOMIC CHARGES
-----------------------
   0 C :    0.005890
   1 O :    0.000042
   2 H :   -0.000033
   3 H :   -0.006663
   4 H :   -0.002106
   5 H :   -0.000460
   6 C :   -0.185303
   7 O :   -0.457072
   8 H :    0.314720
   9 H :    0.121349
  10 H :    0.110400
  11 H :    0.099235
Sum of atomic charges:   -0.0000000

LOEWDIN ATOMIC CHARGES
----------------------
   0 C :   -0.004351
   1 O :   -0.000027
   2 H :   -0.000002
   3 H :   -0.004570
   4 H :   -0.000896
   5 H :   -0.000238
   6 C :   -0.398135
   7 O :   -0.054871
   8 H :    0.164929
   9 H :    0.083281
  10 H :    0.112529
  11 H :    0.102350

  Mayer bond orders larger than 0.1
B(  6-C ,  7-O ) :   1.0105 B(  6-C ,  9-H ) :   0.9791 B(  6-C , 10-H ) :   0.9756
B(  6-C , 11-H ) :   0.9760 B(  7-O ,  8-H ) :   0.9025

Dispersion correction           -0.000254398
FINAL SINGLE POINT ENERGY      -115.728824883136

DIPOLE MOMENT
-------------
                                X             Y             Z
Electronic contribution:      1.84587       0.69020      -0.09891
Nuclear contribution   :     -2.17443      -0.97606      -0.47846
                        -----------------------------------------
Total Dipole Moment    :     -0.32856      -0.28586      -0.57737
                        -----------------------------------------
Magnitude (a.u.)       :      0.72321
Magnitude (Debye)      :      1.83824

Rotational constants in cm-1:     4.428281     0.823370     0.801166
Rotational constants in MHz : 132756.519023 24683.996727 24018.344208

                             ****ORCA TERMINATED NORMALLY****
TOTAL RUN TIME: 0 days 0 hours 1 minutes 8 seconds 641 msec
