                         Program Version 4.1.2  - RELEASE  -
|  1> #Run DFT-D3 single point of the dimer
|  2> ! wB97X-D3 def2-TZVP TIGHTSCF CHELPG PMODEL PAL8
|  3>
|  4> %base "20-184_DFT_AB"
|  5>
|  6> %scf
|  7> MaxIter 1000
|  8> end
|  9>
| 10> * xyz 0 1
| 11>   C                      4.875045             -1.398883            -3.844291
| 12>   O                      4.469844             -2.359780            -4.754037
| 13>   H                      3.591758             -2.108072            -4.946517
| 14>   H                      4.299927             -0.542861            -3.961646
| 15>   H                      4.627569             -1.639279            -2.839813
| 16>   H                      5.939233             -1.193542            -3.921238
| 17>   C                      5.541731             -4.886957            -5.406933
| 18>   O                      4.165482             -5.073330            -5.385723
| 19>   H                      3.821081             -4.420379            -4.785705
| 20>   H                      5.878551             -3.987001            -5.917667
| 21>   H                      5.869458             -4.938224            -4.330917
| 22>   H                      6.037423             -5.674924            -5.972519
| 23> *
| 24>
| 25> #Run DFT-D3 single point of the molecule with dimer basis set
| 26> $new_job
| 27> %base "20-184_DFT_A"
| 28> ! wB97X-D3 def2-TZVP TIGHTSCF CHELPG PMODEL
| 29>
| 30> %scf
| 31> MaxIter 1000
| 32> end
| 33>
| 34> * xyz 0 1
| 35>   C                      4.875045             -1.398883            -3.844291
| 36>   O                      4.469844             -2.359780            -4.754037
| 37>   H                      3.591758             -2.108072            -4.946517
| 38>   H                      4.299927             -0.542861            -3.961646
| 39>   H                      4.627569             -1.639279            -2.839813
| 40>   H                      5.939233             -1.193542            -3.921238
| 41>   C                    : 5.541731             -4.886957            -5.406933
| 42>   O                    : 4.165482             -5.073330            -5.385723
| 43>   H                    : 3.821081             -4.420379            -4.785705
| 44>   H                    : 5.878551             -3.987001            -5.917667
| 45>   H                    : 5.869458             -4.938224            -4.330917
| 46>   H                    : 6.037423             -5.674924            -5.972519
| 47> *
| 48>
| 49> #Run DFT-D3 single point of the particle with dimer basis set
| 50> $new_job
| 51> %base "20-184_DFT_B"
| 52> ! wB97X-D3 def2-TZVP TIGHTSCF CHELPG PMODEL
| 53>
| 54> %scf
| 55> MaxIter 1000
| 56> end
| 57>
| 58> * xyz 0 1
| 59>   C                    : 4.875045             -1.398883            -3.844291
| 60>   O                    : 4.469844             -2.359780            -4.754037
| 61>   H                    : 3.591758             -2.108072            -4.946517
| 62>   H                    : 4.299927             -0.542861            -3.961646
| 63>   H                    : 4.627569             -1.639279            -2.839813
| 64>   H                    : 5.939233             -1.193542            -3.921238
| 65>   C                      5.541731             -4.886957            -5.406933
| 66>   O                      4.165482             -5.073330            -5.385723
| 67>   H                      3.821081             -4.420379            -4.785705
| 68>   H                      5.878551             -3.987001            -5.917667
| 69>   H                      5.869458             -4.938224            -4.330917
| 70>   H                      6.037423             -5.674924            -5.972519
| 71> *
| 72>
| 73>                          ****END OF INPUT****
 Total Charge           Charge          ....    0
 Multiplicity           Mult            ....    1
 Number of Electrons    NEL             ....   36
Dispersion correction           -0.001994158
FINAL SINGLE POINT ENERGY      -231.464264993011
Dispersion correction           -0.000201706
FINAL SINGLE POINT ENERGY      -115.728589655119

CARTESIAN COORDINATES (ANGSTROEM)
---------------------------------
  C      4.875045   -1.398883   -3.844291
  O      4.469844   -2.359780   -4.754037
  H      3.591758   -2.108072   -4.946517
  H      4.299927   -0.542861   -3.961646
  H      4.627569   -1.639279   -2.839813
  H      5.939233   -1.193542   -3.921238
  C      5.541731   -4.886957   -5.406933
  O      4.165482   -5.073330   -5.385723
  H      3.821081   -4.420379   -4.785705
  H      5.878551   -3.987001   -5.917667
  H      5.869458   -4.938224   -4.330917
  H      6.037423   -5.674924   -5.972519

 Multiplicity           Mult            ....    1
 Number of Electrons    NEL             ....   18
 Basis Dimension        Dim             ....  172

ORBITAL ENERGIES
----------------

  NO   OCC          E(Eh)            E(eV)
   0   2.0000     -19.230118      -523.2781
   1   2.0000     -10.313030      -280.6318
   2   2.0000      -1.147850       -31.2346
   3   2.0000      -0.793127       -21.5821
   4   2.0000      -0.612280       -16.6610
   5   2.0000      -0.552353       -15.0303
   6   2.0000      -0.530270       -14.4294
   7   2.0000      -0.429280       -11.6813
   8   2.0000      -0.373140       -10.1537
   9   0.0000       0.071942         1.9576
  10   0.0000       0.131557         3.5799
  11   0.0000       0.146831         3.9955
  12   0.0000       0.169622         4.6157
  13   0.0000       0.195468         5.3189

MULLIKEN ATOMIC CHARGES
-----------------------
   0 C :    0.000377
   1 O :   -0.004527
   2 H :   -0.001743
   3 H :    0.000036
   4 H :   -0.000231
   5 H :   -0.000415
   6 C :   -0.177197
   7 O :   -0.456074
   8 H :    0.316059
   9 H :    0.100022
  10 H :    0.101008
  11 H :    0.122686
Sum of atomic charges:    0.0000000

LOEWDIN ATOMIC CHARGES
----------------------
   0 C :   -0.002481
   1 O :   -0.021443
   2 H :   -0.003211
   3 H :   -0.000031
   4 H :   -0.000086
   5 H :   -0.000225
   6 C :   -0.401691
   7 O :   -0.045027
   8 H :    0.169080
   9 H :    0.094734
  10 H :    0.103587
  11 H :    0.106794

  Mayer bond orders larger than 0.1
B(  6-C ,  7-O ) :   1.0046 B(  6-C ,  9-H ) :   0.9702 B(  6-C , 10-H ) :   0.9918
B(  6-C , 11-H ) :   0.9731 B(  7-O ,  8-H ) :   0.9026

Dispersion correction           -0.000222989
FINAL SINGLE POINT ENERGY      -115.733688809176

DIPOLE MOMENT
-------------
                                X             Y             Z
Electronic contribution:     -1.80789      -0.32254      -0.12536
Nuclear contribution   :      2.10925       0.78005       0.46936
                        -----------------------------------------
Total Dipole Moment    :      0.30136       0.45750       0.34400
                        -----------------------------------------
Magnitude (a.u.)       :      0.64688
Magnitude (Debye)      :      1.64425

Rotational constants in cm-1:     4.254128     0.856526     0.828720
Rotational constants in MHz : 127535.543000 25678.012952 24844.403098

                             ****ORCA TERMINATED NORMALLY****
TOTAL RUN TIME: 0 days 0 hours 1 minutes 11 seconds 230 msec
