                         Program Version 4.1.2  - RELEASE  -
|  1> #Run DFT-D3 single point of the dimer
|  2> ! wB97X-D3 def2-TZVP TIGHTSCF CHELPG PMODEL PAL8
|  3>
|  4> %base "18-181_DFT_AB"
|  5>
|  6> %scf
|  7> MaxIter 1000
|  8> end
|  9>
| 10> * xyz 0 1
| 11>   C                      -0.818865            -8.262982            3.889639
| 12>   O                      -0.804588            -7.200547            4.826738
| 13>   H                      -1.389967            -6.553482            4.480454
| 14>   H                      -0.558544            -9.264849            4.220882
| 15>   H                      -1.754608            -8.437277            3.463253
| 16>   H                      -0.071885            -7.988574            3.128661
| 17>   C                      1.842494             -5.490414            4.222264
| 18>   O                      0.779058             -4.891262            4.888618
| 19>   H                      0.293986             -5.565972            5.331256
| 20>   H                      2.573357             -4.701865            3.988026
| 21>   H                      2.324572             -6.211238            4.978611
| 22>   H                      1.640042             -6.048494            3.297003
| 23> *
| 24>
| 25> #Run DFT-D3 single point of the molecule with dimer basis set
| 26> $new_job
| 27> %base "18-181_DFT_A"
| 28> ! wB97X-D3 def2-TZVP TIGHTSCF CHELPG PMODEL
| 29>
| 30> %scf
| 31> MaxIter 1000
| 32> end
| 33>
| 34> * xyz 0 1
| 35>   C                      -0.818865            -8.262982            3.889639
| 36>   O                      -0.804588            -7.200547            4.826738
| 37>   H                      -1.389967            -6.553482            4.480454
| 38>   H                      -0.558544            -9.264849            4.220882
| 39>   H                      -1.754608            -8.437277            3.463253
| 40>   H                      -0.071885            -7.988574            3.128661
| 41>   C                    : 1.842494             -5.490414            4.222264
| 42>   O                    : 0.779058             -4.891262            4.888618
| 43>   H                    : 0.293986             -5.565972            5.331256
| 44>   H                    : 2.573357             -4.701865            3.988026
| 45>   H                    : 2.324572             -6.211238            4.978611
| 46>   H                    : 1.640042             -6.048494            3.297003
| 47> *
| 48>
| 49> #Run DFT-D3 single point of the particle with dimer basis set
| 50> $new_job
| 51> %base "18-181_DFT_B"
| 52> ! wB97X-D3 def2-TZVP TIGHTSCF CHELPG PMODEL
| 53>
| 54> %scf
| 55> MaxIter 1000
| 56> end
| 57>
| 58> * xyz 0 1
| 59>   C                    : -0.818865            -8.262982            3.889639
| 60>   O                    : -0.804588            -7.200547            4.826738
| 61>   H                    : -1.389967            -6.553482            4.480454
| 62>   H                    : -0.558544            -9.264849            4.220882
| 63>   H                    : -1.754608            -8.437277            3.463253
| 64>   H                    : -0.071885            -7.988574            3.128661
| 65>   C                      1.842494             -5.490414            4.222264
| 66>   O                      0.779058             -4.891262            4.888618
| 67>   H                      0.293986             -5.565972            5.331256
| 68>   H                      2.573357             -4.701865            3.988026
| 69>   H                      2.324572             -6.211238            4.978611
| 70>   H                      1.640042             -6.048494            3.297003
| 71> *
| 72>
| 73>                          ****END OF INPUT****
 Total Charge           Charge          ....    0
 Multiplicity           Mult            ....    1
 Number of Electrons    NEL             ....   36
Dispersion correction           -0.002134974
FINAL SINGLE POINT ENERGY      -231.467856306294
Dispersion correction           -0.000230533
FINAL SINGLE POINT ENERGY      -115.729000007886

CARTESIAN COORDINATES (ANGSTROEM)
---------------------------------
  C     -0.818865   -8.262982    3.889639
  O     -0.804588   -7.200547    4.826738
  H     -1.389967   -6.553482    4.480454
  H     -0.558544   -9.264849    4.220882
  H     -1.754608   -8.437277    3.463253
  H     -0.071885   -7.988574    3.128661
  C      1.842494   -5.490414    4.222264
  O      0.779058   -4.891262    4.888618
  H      0.293986   -5.565972    5.331256
  H      2.573357   -4.701865    3.988026
  H      2.324572   -6.211238    4.978611
  H      1.640042   -6.048494    3.297003

 Multiplicity           Mult            ....    1
 Number of Electrons    NEL             ....   18
 Basis Dimension        Dim             ....  172

ORBITAL ENERGIES
----------------

  NO   OCC          E(Eh)            E(eV)
   0   2.0000     -19.231161      -523.3065
   1   2.0000     -10.319013      -280.7946
   2   2.0000      -1.149335       -31.2750
   3   2.0000      -0.792211       -21.5572
   4   2.0000      -0.617151       -16.7935
   5   2.0000      -0.542508       -14.7624
   6   2.0000      -0.530709       -14.4413
   7   2.0000      -0.430849       -11.7240
   8   2.0000      -0.373528       -10.1642
   9   0.0000       0.076338         2.0773
  10   0.0000       0.129719         3.5298
  11   0.0000       0.145779         3.9669
  12   0.0000       0.175289         4.7698
  13   0.0000       0.197812         5.3827

MULLIKEN ATOMIC CHARGES
-----------------------
   0 C :    0.000414
   1 O :   -0.006662
   2 H :   -0.004657
   3 H :   -0.000030
   4 H :    0.000098
   5 H :    0.000044
   6 C :   -0.177612
   7 O :   -0.454902
   8 H :    0.316957
   9 H :    0.125200
  10 H :    0.096806
  11 H :    0.104344
Sum of atomic charges:   -0.0000000

LOEWDIN ATOMIC CHARGES
----------------------
   0 C :   -0.003055
   1 O :   -0.018047
   2 H :   -0.006834
   3 H :   -0.000034
   4 H :   -0.000024
   5 H :   -0.002281
   6 C :   -0.407091
   7 O :   -0.036065
   8 H :    0.164683
   9 H :    0.109709
  10 H :    0.104566
  11 H :    0.094474

  Mayer bond orders larger than 0.1
B(  6-C ,  7-O ) :   1.0035 B(  6-C ,  9-H ) :   0.9745 B(  6-C , 10-H ) :   0.9916
B(  6-C , 11-H ) :   0.9596 B(  7-O ,  8-H ) :   0.9023

Dispersion correction           -0.000239286
FINAL SINGLE POINT ENERGY      -115.733322357970

DIPOLE MOMENT
-------------
                                X             Y             Z
Electronic contribution:     -1.44719       0.95569       0.69447
Nuclear contribution   :      1.54378      -1.58209      -0.66512
                        -----------------------------------------
Total Dipole Moment    :      0.09659      -0.62641       0.02935
                        -----------------------------------------
Magnitude (a.u.)       :      0.63449
Magnitude (Debye)      :      1.61274

Rotational constants in cm-1:     4.197801     0.851576     0.820052
Rotational constants in MHz : 125846.906076 25529.598222 24584.550561

                             ****ORCA TERMINATED NORMALLY****
TOTAL RUN TIME: 0 days 0 hours 1 minutes 1 seconds 110 msec
