                         Program Version 4.1.2  - RELEASE  -
|  1> #Run DFT-D3 single point of the dimer
|  2> ! wB97X-D3 def2-TZVP TIGHTSCF CHELPG PMODEL PAL8
|  3>
|  4> %base "15-138_DFT_AB"
|  5>
|  6> %scf
|  7> MaxIter 1000
|  8> end
|  9>
| 10> * xyz 0 1
| 11>   C                      0.539348             -7.166168            0.517284
| 12>   O                      0.719637             -6.836601            -0.852378
| 13>   H                      -0.086676            -6.402254            -1.195676
| 14>   H                      1.415332             -7.554984            1.038854
| 15>   H                      0.234247             -6.288057            1.056190
| 16>   H                      -0.304731            -7.862906            0.678743
| 17>   C                      2.607713             -11.322512           0.925257
| 18>   O                      1.613506             -10.587888           0.240427
| 19>   H                      2.014895             -10.026225           -0.402110
| 20>   H                      2.159400             -12.240957           1.350017
| 21>   H                      3.421534             -11.486196           0.223314
| 22>   H                      3.034540             -10.758273           1.763379
| 23> *
| 24>
| 25> #Run DFT-D3 single point of the molecule with dimer basis set
| 26> $new_job
| 27> %base "15-138_DFT_A"
| 28> ! wB97X-D3 def2-TZVP TIGHTSCF CHELPG PMODEL
| 29>
| 30> %scf
| 31> MaxIter 1000
| 32> end
| 33>
| 34> * xyz 0 1
| 35>   C                      0.539348             -7.166168            0.517284
| 36>   O                      0.719637             -6.836601            -0.852378
| 37>   H                      -0.086676            -6.402254            -1.195676
| 38>   H                      1.415332             -7.554984            1.038854
| 39>   H                      0.234247             -6.288057            1.056190
| 40>   H                      -0.304731            -7.862906            0.678743
| 41>   C                    : 2.607713             -11.322512           0.925257
| 42>   O                    : 1.613506             -10.587888           0.240427
| 43>   H                    : 2.014895             -10.026225           -0.402110
| 44>   H                    : 2.159400             -12.240957           1.350017
| 45>   H                    : 3.421534             -11.486196           0.223314
| 46>   H                    : 3.034540             -10.758273           1.763379
| 47> *
| 48>
| 49> #Run DFT-D3 single point of the particle with dimer basis set
| 50> $new_job
| 51> %base "15-138_DFT_B"
| 52> ! wB97X-D3 def2-TZVP TIGHTSCF CHELPG PMODEL
| 53>
| 54> %scf
| 55> MaxIter 1000
| 56> end
| 57>
| 58> * xyz 0 1
| 59>   C                    : 0.539348             -7.166168            0.517284
| 60>   O                    : 0.719637             -6.836601            -0.852378
| 61>   H                    : -0.086676            -6.402254            -1.195676
| 62>   H                    : 1.415332             -7.554984            1.038854
| 63>   H                    : 0.234247             -6.288057            1.056190
| 64>   H                    : -0.304731            -7.862906            0.678743
| 65>   C                      2.607713             -11.322512           0.925257
| 66>   O                      1.613506             -10.587888           0.240427
| 67>   H                      2.014895             -10.026225           -0.402110
| 68>   H                      2.159400             -12.240957           1.350017
| 69>   H                      3.421534             -11.486196           0.223314
| 70>   H                      3.034540             -10.758273           1.763379
| 71> *
| 72>
| 73>                          ****END OF INPUT****
 Total Charge           Charge          ....    0
 Multiplicity           Mult            ....    1
 Number of Electrons    NEL             ....   36
Dispersion correction           -0.001451613
FINAL SINGLE POINT ENERGY      -231.470141480009
Dispersion correction           -0.000245592
FINAL SINGLE POINT ENERGY      -115.733010033407

CARTESIAN COORDINATES (ANGSTROEM)
---------------------------------
  C      0.539348   -7.166168    0.517284
  O      0.719637   -6.836601   -0.852378
  H     -0.086676   -6.402254   -1.195676
  H      1.415332   -7.554984    1.038854
  H      0.234247   -6.288057    1.056190
  H     -0.304731   -7.862906    0.678743
  C      2.607713  -11.322512    0.925257
  O      1.613506  -10.587888    0.240427
  H      2.014895  -10.026225   -0.402110
  H      2.159400  -12.240957    1.350017
  H      3.421534  -11.486196    0.223314
  H      3.034540  -10.758273    1.763379

 Multiplicity           Mult            ....    1
 Number of Electrons    NEL             ....   18
 Basis Dimension        Dim             ....  172

ORBITAL ENERGIES
----------------

  NO   OCC          E(Eh)            E(eV)
   0   2.0000     -19.226530      -523.1805
   1   2.0000     -10.314817      -280.6804
   2   2.0000      -1.138655       -30.9844
   3   2.0000      -0.796289       -21.6681
   4   2.0000      -0.614723       -16.7275
   5   2.0000      -0.540681       -14.7127
   6   2.0000      -0.530380       -14.4324
   7   2.0000      -0.433818       -11.8048
   8   2.0000      -0.370805       -10.0901
   9   0.0000       0.086652         2.3579
  10   0.0000       0.122538         3.3344
  11   0.0000       0.154965         4.2168
  12   0.0000       0.168322         4.5803
  13   0.0000       0.194965         5.3053

MULLIKEN ATOMIC CHARGES
-----------------------
   0 C :   -0.001044
   1 O :    0.000217
   2 H :    0.000011
   3 H :   -0.005239
   4 H :   -0.000707
   5 H :   -0.000884
   6 C :   -0.154471
   7 O :   -0.469687
   8 H :    0.314340
   9 H :    0.118096
  10 H :    0.101088
  11 H :    0.098282
Sum of atomic charges:   -0.0000000

LOEWDIN ATOMIC CHARGES
----------------------
   0 C :   -0.006390
   1 O :   -0.000083
   2 H :   -0.000010
   3 H :   -0.002911
   4 H :   -0.000097
   5 H :   -0.001384
   6 C :   -0.380247
   7 O :   -0.065072
   8 H :    0.157139
   9 H :    0.110491
  10 H :    0.094986
  11 H :    0.093578

  Mayer bond orders larger than 0.1
B(  6-C ,  7-O ) :   1.0035 B(  6-C ,  9-H ) :   0.9735 B(  6-C , 10-H ) :   0.9886
B(  6-C , 11-H ) :   0.9701 B(  7-O ,  8-H ) :   0.9003

Dispersion correction           -0.000234027
FINAL SINGLE POINT ENERGY      -115.734858515844

DIPOLE MOMENT
-------------
                                X             Y             Z
Electronic contribution:     -1.34855       0.78632      -0.80006
Nuclear contribution   :      2.01909      -0.73306       0.64994
                        -----------------------------------------
Total Dipole Moment    :      0.67054       0.05326      -0.15012
                        -----------------------------------------
Magnitude (a.u.)       :      0.68920
Magnitude (Debye)      :      1.75181

Rotational constants in cm-1:     4.277046     0.839881     0.801929
Rotational constants in MHz : 128222.628202 25178.989351 24041.218010

                             ****ORCA TERMINATED NORMALLY****
TOTAL RUN TIME: 0 days 0 hours 0 minutes 56 seconds 153 msec
