                         Program Version 4.1.2  - RELEASE  -
|  1> #Run DFT-D3 single point of the dimer
|  2> ! wB97X-D3 def2-TZVP TIGHTSCF CHELPG PMODEL PAL8
|  3>
|  4> %base "18-190_DFT_AB"
|  5>
|  6> %scf
|  7> MaxIter 1000
|  8> end
|  9>
| 10> * xyz 0 1
| 11>   C                      5.252981             -0.803003            7.182503
| 12>   O                      5.599119             -0.796855            5.796567
| 13>   H                      4.741925             -0.668005            5.308270
| 14>   H                      5.988763             -1.259529            7.777616
| 15>   H                      5.132993             0.267707             7.477022
| 16>   H                      4.233948             -1.214135            7.383336
| 17>   C                      3.469008             -1.396693            3.312950
| 18>   O                      3.053525             -0.547470            4.334124
| 19>   H                      2.250818             -0.779523            4.803818
| 20>   H                      2.663102             -1.734516            2.755334
| 21>   H                      4.191269             -0.832370            2.641933
| 22>   H                      4.043062             -2.278263            3.746632
| 23> *
| 24>
| 25> #Run DFT-D3 single point of the molecule with dimer basis set
| 26> $new_job
| 27> %base "18-190_DFT_A"
| 28> ! wB97X-D3 def2-TZVP TIGHTSCF CHELPG PMODEL
| 29>
| 30> %scf
| 31> MaxIter 1000
| 32> end
| 33>
| 34> * xyz 0 1
| 35>   C                      5.252981             -0.803003            7.182503
| 36>   O                      5.599119             -0.796855            5.796567
| 37>   H                      4.741925             -0.668005            5.308270
| 38>   H                      5.988763             -1.259529            7.777616
| 39>   H                      5.132993             0.267707             7.477022
| 40>   H                      4.233948             -1.214135            7.383336
| 41>   C                    : 3.469008             -1.396693            3.312950
| 42>   O                    : 3.053525             -0.547470            4.334124
| 43>   H                    : 2.250818             -0.779523            4.803818
| 44>   H                    : 2.663102             -1.734516            2.755334
| 45>   H                    : 4.191269             -0.832370            2.641933
| 46>   H                    : 4.043062             -2.278263            3.746632
| 47> *
| 48>
| 49> #Run DFT-D3 single point of the particle with dimer basis set
| 50> $new_job
| 51> %base "18-190_DFT_B"
| 52> ! wB97X-D3 def2-TZVP TIGHTSCF CHELPG PMODEL
| 53>
| 54> %scf
| 55> MaxIter 1000
| 56> end
| 57>
| 58> * xyz 0 1
| 59>   C                    : 5.252981             -0.803003            7.182503
| 60>   O                    : 5.599119             -0.796855            5.796567
| 61>   H                    : 4.741925             -0.668005            5.308270
| 62>   H                    : 5.988763             -1.259529            7.777616
| 63>   H                    : 5.132993             0.267707             7.477022
| 64>   H                    : 4.233948             -1.214135            7.383336
| 65>   C                      3.469008             -1.396693            3.312950
| 66>   O                      3.053525             -0.547470            4.334124
| 67>   H                      2.250818             -0.779523            4.803818
| 68>   H                      2.663102             -1.734516            2.755334
| 69>   H                      4.191269             -0.832370            2.641933
| 70>   H                      4.043062             -2.278263            3.746632
| 71> *
| 72>
| 73>                          ****END OF INPUT****
 Total Charge           Charge          ....    0
 Multiplicity           Mult            ....    1
 Number of Electrons    NEL             ....   36
Dispersion correction           -0.001934988
FINAL SINGLE POINT ENERGY      -231.471135934001
Dispersion correction           -0.000237328
FINAL SINGLE POINT ENERGY      -115.731479041615

CARTESIAN COORDINATES (ANGSTROEM)
---------------------------------
  C      5.252981   -0.803003    7.182503
  O      5.599119   -0.796855    5.796567
  H      4.741925   -0.668005    5.308270
  H      5.988763   -1.259529    7.777616
  H      5.132993    0.267707    7.477022
  H      4.233948   -1.214135    7.383336
  C      3.469008   -1.396693    3.312950
  O      3.053525   -0.547470    4.334124
  H      2.250818   -0.779523    4.803818
  H      2.663102   -1.734516    2.755334
  H      4.191269   -0.832370    2.641933
  H      4.043062   -2.278263    3.746632

 Multiplicity           Mult            ....    1
 Number of Electrons    NEL             ....   18
 Basis Dimension        Dim             ....  172

ORBITAL ENERGIES
----------------

  NO   OCC          E(Eh)            E(eV)
   0   2.0000     -19.225617      -523.1556
   1   2.0000     -10.315021      -280.6860
   2   2.0000      -1.137402       -30.9503
   3   2.0000      -0.797099       -21.6902
   4   2.0000      -0.618944       -16.8423
   5   2.0000      -0.542539       -14.7632
   6   2.0000      -0.528238       -14.3741
   7   2.0000      -0.421730       -11.4759
   8   2.0000      -0.369500       -10.0546
   9   0.0000       0.094454         2.5702
  10   0.0000       0.129180         3.5152
  11   0.0000       0.147668         4.0182
  12   0.0000       0.191999         5.2246
  13   0.0000       0.193895         5.2761

MULLIKEN ATOMIC CHARGES
-----------------------
   0 C :   -0.000592
   1 O :   -0.004077
   2 H :    0.009863
   3 H :   -0.000376
   4 H :   -0.000418
   5 H :   -0.003705
   6 C :   -0.147758
   7 O :   -0.500844
   8 H :    0.320468
   9 H :    0.115536
  10 H :    0.115939
  11 H :    0.095963
Sum of atomic charges:   -0.0000000

LOEWDIN ATOMIC CHARGES
----------------------
   0 C :   -0.003680
   1 O :   -0.003932
   2 H :   -0.038232
   3 H :   -0.000062
   4 H :   -0.000153
   5 H :   -0.001458
   6 C :   -0.390469
   7 O :   -0.032119
   8 H :    0.166465
   9 H :    0.082283
  10 H :    0.118330
  11 H :    0.103027

  Mayer bond orders larger than 0.1
B(  6-C ,  7-O ) :   0.9800 B(  6-C ,  9-H ) :   0.9768 B(  6-C , 10-H ) :   0.9727
B(  6-C , 11-H ) :   0.9785 B(  7-O ,  8-H ) :   0.8887

Dispersion correction           -0.000250589
FINAL SINGLE POINT ENERGY      -115.731099219860

DIPOLE MOMENT
-------------
                                X             Y             Z
Electronic contribution:     -0.58453       1.13066       1.20766
Nuclear contribution   :      0.17892      -1.61603      -1.33548
                        -----------------------------------------
Total Dipole Moment    :     -0.40562      -0.48537      -0.12782
                        -----------------------------------------
Magnitude (a.u.)       :      0.64533
Magnitude (Debye)      :      1.64030

Rotational constants in cm-1:     4.325735     0.841018     0.815786
Rotational constants in MHz : 129682.277068 25213.076332 24456.641089

                             ****ORCA TERMINATED NORMALLY****
TOTAL RUN TIME: 0 days 0 hours 1 minutes 5 seconds 347 msec
