                         Program Version 4.1.2  - RELEASE  -
|  1> #Run DFT-D3 single point of the dimer
|  2> ! wB97X-D3 def2-TZVP TIGHTSCF CHELPG PMODEL PAL8
|  3>
|  4> %base "8-77_DFT_AB"
|  5>
|  6> %scf
|  7> MaxIter 1000
|  8> end
|  9>
| 10> * xyz 0 1
| 11>   C                      6.555521             2.875121             5.302771
| 12>   O                      5.960526             2.912413             6.541502
| 13>   H                      5.034107             2.707951             6.433674
| 14>   H                      6.880396             3.815636             4.981021
| 15>   H                      7.546284             2.419773             5.320943
| 16>   H                      5.929050             2.395693             4.578541
| 17>   C                      5.944907             -1.410275            8.821131
| 18>   O                      5.661752             -2.034981            10.047827
| 19>   H                      6.407531             -2.616065            10.283087
| 20>   H                      5.131365             -0.914269            8.387196
| 21>   H                      6.795903             -0.706590            8.955805
| 22>   H                      6.311007             -2.132486            8.079920
| 23> *
| 24>
| 25> #Run DFT-D3 single point of the molecule with dimer basis set
| 26> $new_job
| 27> %base "8-77_DFT_A"
| 28> ! wB97X-D3 def2-TZVP TIGHTSCF CHELPG PMODEL
| 29>
| 30> %scf
| 31> MaxIter 1000
| 32> end
| 33>
| 34> * xyz 0 1
| 35>   C                      6.555521             2.875121             5.302771
| 36>   O                      5.960526             2.912413             6.541502
| 37>   H                      5.034107             2.707951             6.433674
| 38>   H                      6.880396             3.815636             4.981021
| 39>   H                      7.546284             2.419773             5.320943
| 40>   H                      5.929050             2.395693             4.578541
| 41>   C                    : 5.944907             -1.410275            8.821131
| 42>   O                    : 5.661752             -2.034981            10.047827
| 43>   H                    : 6.407531             -2.616065            10.283087
| 44>   H                    : 5.131365             -0.914269            8.387196
| 45>   H                    : 6.795903             -0.706590            8.955805
| 46>   H                    : 6.311007             -2.132486            8.079920
| 47> *
| 48>
| 49> #Run DFT-D3 single point of the particle with dimer basis set
| 50> $new_job
| 51> %base "8-77_DFT_B"
| 52> ! wB97X-D3 def2-TZVP TIGHTSCF CHELPG PMODEL
| 53>
| 54> %scf
| 55> MaxIter 1000
| 56> end
| 57>
| 58> * xyz 0 1
| 59>   C                    : 6.555521             2.875121             5.302771
| 60>   O                    : 5.960526             2.912413             6.541502
| 61>   H                    : 5.034107             2.707951             6.433674
| 62>   H                    : 6.880396             3.815636             4.981021
| 63>   H                    : 7.546284             2.419773             5.320943
| 64>   H                    : 5.929050             2.395693             4.578541
| 65>   C                      5.944907             -1.410275            8.821131
| 66>   O                      5.661752             -2.034981            10.047827
| 67>   H                      6.407531             -2.616065            10.283087
| 68>   H                      5.131365             -0.914269            8.387196
| 69>   H                      6.795903             -0.706590            8.955805
| 70>   H                      6.311007             -2.132486            8.079920
| 71> *
| 72>
| 73>                          ****END OF INPUT****
 Total Charge           Charge          ....    0
 Multiplicity           Mult            ....    1
 Number of Electrons    NEL             ....   36
Dispersion correction           -0.000681526
FINAL SINGLE POINT ENERGY      -231.462419796401
Dispersion correction           -0.000227656
FINAL SINGLE POINT ENERGY      -115.728640522976

CARTESIAN COORDINATES (ANGSTROEM)
---------------------------------
  C      6.555521    2.875121    5.302771
  O      5.960526    2.912413    6.541502
  H      5.034107    2.707951    6.433674
  H      6.880396    3.815636    4.981021
  H      7.546284    2.419773    5.320943
  H      5.929050    2.395693    4.578541
  C      5.944907   -1.410275    8.821131
  O      5.661752   -2.034981   10.047827
  H      6.407531   -2.616065   10.283087
  H      5.131365   -0.914269    8.387196
  H      6.795903   -0.706590    8.955805
  H      6.311007   -2.132486    8.079920

 Multiplicity           Mult            ....    1
 Number of Electrons    NEL             ....   18
 Basis Dimension        Dim             ....  172

ORBITAL ENERGIES
----------------

  NO   OCC          E(Eh)            E(eV)
   0   2.0000     -19.230173      -523.2796
   1   2.0000     -10.309776      -280.5433
   2   2.0000      -1.135257       -30.8919
   3   2.0000      -0.796982       -21.6870
   4   2.0000      -0.611377       -16.6364
   5   2.0000      -0.542459       -14.7611
   6   2.0000      -0.532225       -14.4826
   7   2.0000      -0.433909       -11.8073
   8   2.0000      -0.368997       -10.0409
   9   0.0000       0.085248         2.3197
  10   0.0000       0.113016         3.0753
  11   0.0000       0.145522         3.9599
  12   0.0000       0.169004         4.5988
  13   0.0000       0.192924         5.2497

MULLIKEN ATOMIC CHARGES
-----------------------
   0 C :   -0.000003
   1 O :    0.000001
   2 H :   -0.000035
   3 H :   -0.000000
   4 H :   -0.000007
   5 H :   -0.000001
   6 C :   -0.165132
   7 O :   -0.476376
   8 H :    0.318666
   9 H :    0.126243
  10 H :    0.096406
  11 H :    0.100238
Sum of atomic charges:   -0.0000000

LOEWDIN ATOMIC CHARGES
----------------------
   0 C :   -0.000021
   1 O :   -0.000021
   2 H :   -0.000031
   3 H :   -0.000001
   4 H :   -0.000005
   5 H :   -0.000000
   6 C :   -0.388790
   7 O :   -0.079464
   8 H :    0.179347
   9 H :    0.096693
  10 H :    0.097206
  11 H :    0.095088

  Mayer bond orders larger than 0.1
B(  6-C ,  7-O ) :   0.9989 B(  6-C ,  9-H ) :   0.9711 B(  6-C , 10-H ) :   0.9804
B(  6-C , 11-H ) :   0.9797 B(  7-O ,  8-H ) :   0.8945

Dispersion correction           -0.000230733
FINAL SINGLE POINT ENERGY      -115.733499597519

DIPOLE MOMENT
-------------
                                X             Y             Z
Electronic contribution:     -0.66970      -0.69879       1.59466
Nuclear contribution   :      1.23844       0.56897      -1.94400
                        -----------------------------------------
Total Dipole Moment    :      0.56874      -0.12982      -0.34933
                        -----------------------------------------
Magnitude (a.u.)       :      0.67997
Magnitude (Debye)      :      1.72834

Rotational constants in cm-1:     4.365904     0.837417     0.806471
Rotational constants in MHz : 130886.497869 25105.119344 24177.406659

                             ****ORCA TERMINATED NORMALLY****
TOTAL RUN TIME: 0 days 0 hours 0 minutes 43 seconds 242 msec
