                         Program Version 4.1.2  - RELEASE  -
|  1> #Run DFT-D3 single point of the dimer
|  2> ! wB97X-D3 def2-TZVP TIGHTSCF CHELPG PMODEL PAL8
|  3>
|  4> %base "8-62_DFT_AB"
|  5>
|  6> %scf
|  7> MaxIter 1000
|  8> end
|  9>
| 10> * xyz 0 1
| 11>   C                      -1.670944            -9.559233            3.799074
| 12>   O                      -0.481268            -9.603435            3.036567
| 13>   H                      -0.736108            -9.305396            2.153526
| 14>   H                      -2.402088            -10.358033           3.567388
| 15>   H                      -1.449708            -9.797974            4.816966
| 16>   H                      -2.153882            -8.556090            3.774826
| 17>   C                      -5.836670            -10.911321           4.427515
| 18>   O                      -4.845837            -10.467782           5.361570
| 19>   H                      -4.775316            -11.214859           5.959386
| 20>   H                      -5.871586            -10.517069           3.399717
| 21>   H                      -5.695896            -11.994299           4.186843
| 22>   H                      -6.824144            -10.822181           4.900740
| 23> *
| 24>
| 25> #Run DFT-D3 single point of the molecule with dimer basis set
| 26> $new_job
| 27> %base "8-62_DFT_A"
| 28> ! wB97X-D3 def2-TZVP TIGHTSCF CHELPG PMODEL
| 29>
| 30> %scf
| 31> MaxIter 1000
| 32> end
| 33>
| 34> * xyz 0 1
| 35>   C                      -1.670944            -9.559233            3.799074
| 36>   O                      -0.481268            -9.603435            3.036567
| 37>   H                      -0.736108            -9.305396            2.153526
| 38>   H                      -2.402088            -10.358033           3.567388
| 39>   H                      -1.449708            -9.797974            4.816966
| 40>   H                      -2.153882            -8.556090            3.774826
| 41>   C                    : -5.836670            -10.911321           4.427515
| 42>   O                    : -4.845837            -10.467782           5.361570
| 43>   H                    : -4.775316            -11.214859           5.959386
| 44>   H                    : -5.871586            -10.517069           3.399717
| 45>   H                    : -5.695896            -11.994299           4.186843
| 46>   H                    : -6.824144            -10.822181           4.900740
| 47> *
| 48>
| 49> #Run DFT-D3 single point of the particle with dimer basis set
| 50> $new_job
| 51> %base "8-62_DFT_B"
| 52> ! wB97X-D3 def2-TZVP TIGHTSCF CHELPG PMODEL
| 53>
| 54> %scf
| 55> MaxIter 1000
| 56> end
| 57>
| 58> * xyz 0 1
| 59>   C                    : -1.670944            -9.559233            3.799074
| 60>   O                    : -0.481268            -9.603435            3.036567
| 61>   H                    : -0.736108            -9.305396            2.153526
| 62>   H                    : -2.402088            -10.358033           3.567388
| 63>   H                    : -1.449708            -9.797974            4.816966
| 64>   H                    : -2.153882            -8.556090            3.774826
| 65>   C                      -5.836670            -10.911321           4.427515
| 66>   O                      -4.845837            -10.467782           5.361570
| 67>   H                      -4.775316            -11.214859           5.959386
| 68>   H                      -5.871586            -10.517069           3.399717
| 69>   H                      -5.695896            -11.994299           4.186843
| 70>   H                      -6.824144            -10.822181           4.900740
| 71> *
| 72>
| 73>                          ****END OF INPUT****
 Total Charge           Charge          ....    0
 Multiplicity           Mult            ....    1
 Number of Electrons    NEL             ....   36
Dispersion correction           -0.001384257
FINAL SINGLE POINT ENERGY      -231.465241484665
Dispersion correction           -0.000248263
FINAL SINGLE POINT ENERGY      -115.734777241089

CARTESIAN COORDINATES (ANGSTROEM)
---------------------------------
  C     -1.670944   -9.559233    3.799074
  O     -0.481268   -9.603435    3.036567
  H     -0.736108   -9.305396    2.153526
  H     -2.402088  -10.358033    3.567388
  H     -1.449708   -9.797974    4.816966
  H     -2.153882   -8.556090    3.774826
  C     -5.836670  -10.911321    4.427515
  O     -4.845837  -10.467782    5.361570
  H     -4.775316  -11.214859    5.959386
  H     -5.871586  -10.517069    3.399717
  H     -5.695896  -11.994299    4.186843
  H     -6.824144  -10.822181    4.900740

 Multiplicity           Mult            ....    1
 Number of Electrons    NEL             ....   18
 Basis Dimension        Dim             ....  172

ORBITAL ENERGIES
----------------

  NO   OCC          E(Eh)            E(eV)
   0   2.0000     -19.234912      -523.4086
   1   2.0000     -10.319762      -280.8150
   2   2.0000      -1.136583       -30.9280
   3   2.0000      -0.793618       -21.5954
   4   2.0000      -0.606759       -16.5108
   5   2.0000      -0.546169       -14.8620
   6   2.0000      -0.524774       -14.2798
   7   2.0000      -0.432353       -11.7649
   8   2.0000      -0.376422       -10.2430
   9   0.0000       0.093424         2.5422
  10   0.0000       0.118386         3.2214
  11   0.0000       0.146236         3.9793
  12   0.0000       0.180413         4.9093
  13   0.0000       0.194643         5.2965

MULLIKEN ATOMIC CHARGES
-----------------------
   0 C :    0.005453
   1 O :   -0.000112
   2 H :   -0.000023
   3 H :   -0.006032
   4 H :   -0.002875
   5 H :   -0.001368
   6 C :   -0.197872
   7 O :   -0.462196
   8 H :    0.318623
   9 H :    0.128524
  10 H :    0.104283
  11 H :    0.113594
Sum of atomic charges:    0.0000000

LOEWDIN ATOMIC CHARGES
----------------------
   0 C :   -0.005441
   1 O :   -0.000030
   2 H :   -0.000012
   3 H :   -0.003580
   4 H :   -0.000971
   5 H :   -0.000394
   6 C :   -0.388456
   7 O :   -0.081334
   8 H :    0.172980
   9 H :    0.109564
  10 H :    0.099714
  11 H :    0.097959

  Mayer bond orders larger than 0.1
B(  6-C ,  7-O ) :   0.9855 B(  6-C ,  9-H ) :   0.9681 B(  6-C , 10-H ) :   0.9829
B(  6-C , 11-H ) :   0.9751 B(  7-O ,  8-H ) :   0.8987

Dispersion correction           -0.000244400
FINAL SINGLE POINT ENERGY      -115.728765656290

DIPOLE MOMENT
-------------
                                X             Y             Z
Electronic contribution:      1.35038       0.90931       1.12713
Nuclear contribution   :     -1.70194      -1.56806      -1.13951
                        -----------------------------------------
Total Dipole Moment    :     -0.35156      -0.65875      -0.01239
                        -----------------------------------------
Magnitude (a.u.)       :      0.74679
Magnitude (Debye)      :      1.89820

Rotational constants in cm-1:     4.328365     0.804043     0.781926
Rotational constants in MHz : 129761.129851 24104.600727 23441.543566

                             ****ORCA TERMINATED NORMALLY****
TOTAL RUN TIME: 0 days 0 hours 0 minutes 43 seconds 901 msec
