                         Program Version 4.1.2  - RELEASE  -
|  1> #Run DFT-D3 single point of the dimer
|  2> ! wB97X-D3 def2-TZVP TIGHTSCF CHELPG PMODEL PAL8
|  3>
|  4> %base "15-103_DFT_AB"
|  5>
|  6> %scf
|  7> MaxIter 1000
|  8> end
|  9>
| 10> * xyz 0 1
| 11>   C                      5.769253             2.723060             -5.358341
| 12>   O                      4.814784             3.262569             -6.303090
| 13>   H                      4.560570             4.189452             -6.048641
| 14>   H                      5.512399             1.716891             -5.023752
| 15>   H                      6.764949             2.673232             -5.826764
| 16>   H                      5.846086             3.305604             -4.359895
| 17>   C                      4.368537             5.393558             -2.809895
| 18>   O                      3.561577             5.915263             -3.882099
| 19>   H                      2.747769             6.147654             -3.483270
| 20>   H                      4.522148             6.098134             -2.062670
| 21>   H                      3.985404             4.497609             -2.348490
| 22>   H                      5.365098             5.152908             -3.121065
| 23> *
| 24>
| 25> #Run DFT-D3 single point of the molecule with dimer basis set
| 26> $new_job
| 27> %base "15-103_DFT_A"
| 28> ! wB97X-D3 def2-TZVP TIGHTSCF CHELPG PMODEL
| 29>
| 30> %scf
| 31> MaxIter 1000
| 32> end
| 33>
| 34> * xyz 0 1
| 35>   C                      5.769253             2.723060             -5.358341
| 36>   O                      4.814784             3.262569             -6.303090
| 37>   H                      4.560570             4.189452             -6.048641
| 38>   H                      5.512399             1.716891             -5.023752
| 39>   H                      6.764949             2.673232             -5.826764
| 40>   H                      5.846086             3.305604             -4.359895
| 41>   C                    : 4.368537             5.393558             -2.809895
| 42>   O                    : 3.561577             5.915263             -3.882099
| 43>   H                    : 2.747769             6.147654             -3.483270
| 44>   H                    : 4.522148             6.098134             -2.062670
| 45>   H                    : 3.985404             4.497609             -2.348490
| 46>   H                    : 5.365098             5.152908             -3.121065
| 47> *
| 48>
| 49> #Run DFT-D3 single point of the particle with dimer basis set
| 50> $new_job
| 51> %base "15-103_DFT_B"
| 52> ! wB97X-D3 def2-TZVP TIGHTSCF CHELPG PMODEL
| 53>
| 54> %scf
| 55> MaxIter 1000
| 56> end
| 57>
| 58> * xyz 0 1
| 59>   C                    : 5.769253             2.723060             -5.358341
| 60>   O                    : 4.814784             3.262569             -6.303090
| 61>   H                    : 4.560570             4.189452             -6.048641
| 62>   H                    : 5.512399             1.716891             -5.023752
| 63>   H                    : 6.764949             2.673232             -5.826764
| 64>   H                    : 5.846086             3.305604             -4.359895
| 65>   C                      4.368537             5.393558             -2.809895
| 66>   O                      3.561577             5.915263             -3.882099
| 67>   H                      2.747769             6.147654             -3.483270
| 68>   H                      4.522148             6.098134             -2.062670
| 69>   H                      3.985404             4.497609             -2.348490
| 70>   H                      5.365098             5.152908             -3.121065
| 71> *
| 72>
| 73>                          ****END OF INPUT****
 Total Charge           Charge          ....    0
 Multiplicity           Mult            ....    1
 Number of Electrons    NEL             ....   36
Dispersion correction           -0.001840727
FINAL SINGLE POINT ENERGY      -231.465851889659
Dispersion correction           -0.000291893
FINAL SINGLE POINT ENERGY      -115.730477746495

CARTESIAN COORDINATES (ANGSTROEM)
---------------------------------
  C      5.769253    2.723060   -5.358341
  O      4.814784    3.262569   -6.303090
  H      4.560570    4.189452   -6.048641
  H      5.512399    1.716891   -5.023752
  H      6.764949    2.673232   -5.826764
  H      5.846086    3.305604   -4.359895
  C      4.368537    5.393558   -2.809895
  O      3.561577    5.915263   -3.882099
  H      2.747769    6.147654   -3.483270
  H      4.522148    6.098134   -2.062670
  H      3.985404    4.497609   -2.348490
  H      5.365098    5.152908   -3.121065

 Multiplicity           Mult            ....    1
 Number of Electrons    NEL             ....   18
 Basis Dimension        Dim             ....  172

ORBITAL ENERGIES
----------------

  NO   OCC          E(Eh)            E(eV)
   0   2.0000     -19.230697      -523.2939
   1   2.0000     -10.305414      -280.4246
   2   2.0000      -1.135743       -30.9051
   3   2.0000      -0.807873       -21.9833
   4   2.0000      -0.610725       -16.6187
   5   2.0000      -0.545191       -14.8354
   6   2.0000      -0.527532       -14.3549
   7   2.0000      -0.440078       -11.9751
   8   2.0000      -0.379077       -10.3152
   9   0.0000       0.094112         2.5609
  10   0.0000       0.124490         3.3876
  11   0.0000       0.153187         4.1684
  12   0.0000       0.185256         5.0411
  13   0.0000       0.191866         5.2209

MULLIKEN ATOMIC CHARGES
-----------------------
   0 C :    0.001176
   1 O :    0.000090
   2 H :   -0.003139
   3 H :   -0.000193
   4 H :    0.000020
   5 H :   -0.001807
   6 C :   -0.167022
   7 O :   -0.468631
   8 H :    0.308407
   9 H :    0.112751
  10 H :    0.100254
  11 H :    0.118094
Sum of atomic charges:   -0.0000000

LOEWDIN ATOMIC CHARGES
----------------------
   0 C :   -0.001806
   1 O :   -0.000261
   2 H :   -0.004375
   3 H :   -0.000021
   4 H :   -0.000008
   5 H :   -0.005608
   6 C :   -0.354394
   7 O :   -0.074239
   8 H :    0.152558
   9 H :    0.085692
  10 H :    0.094646
  11 H :    0.107816

  Mayer bond orders larger than 0.1
B(  6-C ,  7-O ) :   0.9966 B(  6-C ,  9-H ) :   0.9738 B(  6-C , 10-H ) :   0.9789
B(  6-C , 11-H ) :   0.9759 B(  7-O ,  8-H ) :   0.9064

Dispersion correction           -0.000239997
FINAL SINGLE POINT ENERGY      -115.731981585141

DIPOLE MOMENT
-------------
                                X             Y             Z
Electronic contribution:     -0.97140       0.65644      -1.47205
Nuclear contribution   :      0.80632      -0.70971       2.18480
                        -----------------------------------------
Total Dipole Moment    :     -0.16508      -0.05327       0.71275
                        -----------------------------------------
Magnitude (a.u.)       :      0.73356
Magnitude (Debye)      :      1.86455

Rotational constants in cm-1:     4.639252     0.806879     0.781336
Rotational constants in MHz : 139081.283893 24189.612219 23423.857840

                             ****ORCA TERMINATED NORMALLY****
TOTAL RUN TIME: 0 days 0 hours 0 minutes 57 seconds 449 msec
