                         Program Version 4.1.2  - RELEASE  -
|  1> #Run DFT-D3 single point of the dimer
|  2> ! wB97X-D3 def2-TZVP TIGHTSCF CHELPG PMODEL PAL8
|  3>
|  4> %base "17-222_DFT_AB"
|  5>
|  6> %scf
|  7> MaxIter 1000
|  8> end
|  9>
| 10> * xyz 0 1
| 11>   C                      -4.738378            -10.797545           5.496233
| 12>   O                      -4.471559            -9.966944            6.615812
| 13>   H                      -3.861175            -9.256348            6.320309
| 14>   H                      -3.784103            -11.287532           5.147418
| 15>   H                      -5.499942            -11.588051           5.654332
| 16>   H                      -5.059987            -10.267916           4.596856
| 17>   C                      -3.626366            -6.290258            6.324457
| 18>   O                      -2.965998            -7.565938            6.476582
| 19>   H                      -2.346531            -7.423228            7.173815
| 20>   H                      -4.513852            -6.271197            5.650974
| 21>   H                      -4.012185            -5.860393            7.272476
| 22>   H                      -2.994141            -5.572336            5.841538
| 23> *
| 24>
| 25> #Run DFT-D3 single point of the molecule with dimer basis set
| 26> $new_job
| 27> %base "17-222_DFT_A"
| 28> ! wB97X-D3 def2-TZVP TIGHTSCF CHELPG PMODEL
| 29>
| 30> %scf
| 31> MaxIter 1000
| 32> end
| 33>
| 34> * xyz 0 1
| 35>   C                      -4.738378            -10.797545           5.496233
| 36>   O                      -4.471559            -9.966944            6.615812
| 37>   H                      -3.861175            -9.256348            6.320309
| 38>   H                      -3.784103            -11.287532           5.147418
| 39>   H                      -5.499942            -11.588051           5.654332
| 40>   H                      -5.059987            -10.267916           4.596856
| 41>   C                    : -3.626366            -6.290258            6.324457
| 42>   O                    : -2.965998            -7.565938            6.476582
| 43>   H                    : -2.346531            -7.423228            7.173815
| 44>   H                    : -4.513852            -6.271197            5.650974
| 45>   H                    : -4.012185            -5.860393            7.272476
| 46>   H                    : -2.994141            -5.572336            5.841538
| 47> *
| 48>
| 49> #Run DFT-D3 single point of the particle with dimer basis set
| 50> $new_job
| 51> %base "17-222_DFT_B"
| 52> ! wB97X-D3 def2-TZVP TIGHTSCF CHELPG PMODEL
| 53>
| 54> %scf
| 55> MaxIter 1000
| 56> end
| 57>
| 58> * xyz 0 1
| 59>   C                    : -4.738378            -10.797545           5.496233
| 60>   O                    : -4.471559            -9.966944            6.615812
| 61>   H                    : -3.861175            -9.256348            6.320309
| 62>   H                    : -3.784103            -11.287532           5.147418
| 63>   H                    : -5.499942            -11.588051           5.654332
| 64>   H                    : -5.059987            -10.267916           4.596856
| 65>   C                      -3.626366            -6.290258            6.324457
| 66>   O                      -2.965998            -7.565938            6.476582
| 67>   H                      -2.346531            -7.423228            7.173815
| 68>   H                      -4.513852            -6.271197            5.650974
| 69>   H                      -4.012185            -5.860393            7.272476
| 70>   H                      -2.994141            -5.572336            5.841538
| 71> *
| 72>
| 73>                          ****END OF INPUT****
 Total Charge           Charge          ....    0
 Multiplicity           Mult            ....    1
 Number of Electrons    NEL             ....   36
Dispersion correction           -0.001542189
FINAL SINGLE POINT ENERGY      -231.472828927629
Dispersion correction           -0.000255804
FINAL SINGLE POINT ENERGY      -115.732826049062

CARTESIAN COORDINATES (ANGSTROEM)
---------------------------------
  C     -4.738378  -10.797545    5.496233
  O     -4.471559   -9.966944    6.615812
  H     -3.861175   -9.256348    6.320309
  H     -3.784103  -11.287532    5.147418
  H     -5.499942  -11.588051    5.654332
  H     -5.059987  -10.267916    4.596856
  C     -3.626366   -6.290258    6.324457
  O     -2.965998   -7.565938    6.476582
  H     -2.346531   -7.423228    7.173815
  H     -4.513852   -6.271197    5.650974
  H     -4.012185   -5.860393    7.272476
  H     -2.994141   -5.572336    5.841538

 Multiplicity           Mult            ....    1
 Number of Electrons    NEL             ....   18
 Basis Dimension        Dim             ....  172

ORBITAL ENERGIES
----------------

  NO   OCC          E(Eh)            E(eV)
   0   2.0000     -19.234602      -523.4001
   1   2.0000     -10.318229      -280.7733
   2   2.0000      -1.135126       -30.8884
   3   2.0000      -0.798924       -21.7398
   4   2.0000      -0.606856       -16.5134
   5   2.0000      -0.541434       -14.7332
   6   2.0000      -0.524943       -14.2844
   7   2.0000      -0.435786       -11.8583
   8   2.0000      -0.379322       -10.3219
   9   0.0000       0.099893         2.7182
  10   0.0000       0.122620         3.3367
  11   0.0000       0.146980         3.9995
  12   0.0000       0.190566         5.1856
  13   0.0000       0.204093         5.5537

MULLIKEN ATOMIC CHARGES
-----------------------
   0 C :    0.000413
   1 O :   -0.001287
   2 H :   -0.008643
   3 H :   -0.000163
   4 H :   -0.000024
   5 H :   -0.000224
   6 C :   -0.178030
   7 O :   -0.459923
   8 H :    0.312635
   9 H :    0.120505
  10 H :    0.103671
  11 H :    0.111071
Sum of atomic charges:    0.0000000

LOEWDIN ATOMIC CHARGES
----------------------
   0 C :   -0.001022
   1 O :   -0.007468
   2 H :   -0.045067
   3 H :   -0.000046
   4 H :   -0.000015
   5 H :   -0.000044
   6 C :   -0.370760
   7 O :   -0.040116
   8 H :    0.159925
   9 H :    0.113252
  10 H :    0.098981
  11 H :    0.092379

  Mayer bond orders larger than 0.1
B(  6-C ,  7-O ) :   0.9893 B(  6-C ,  9-H ) :   0.9763 B(  6-C , 10-H ) :   0.9750
B(  6-C , 11-H ) :   0.9720 B(  7-O ,  8-H ) :   0.9023

Dispersion correction           -0.000261754
FINAL SINGLE POINT ENERGY      -115.731750878509

DIPOLE MOMENT
-------------
                                X             Y             Z
Electronic contribution:      0.82861      -1.78319       0.11912
Nuclear contribution   :     -0.70893       2.40866       0.24146
                        -----------------------------------------
Total Dipole Moment    :      0.11968       0.62547       0.36058
                        -----------------------------------------
Magnitude (a.u.)       :      0.73181
Magnitude (Debye)      :      1.86012

Rotational constants in cm-1:     4.435320     0.792014     0.766948
Rotational constants in MHz : 132967.553895 23743.973767 22992.528132

                             ****ORCA TERMINATED NORMALLY****
TOTAL RUN TIME: 0 days 0 hours 1 minutes 5 seconds 864 msec
