                         Program Version 4.1.2  - RELEASE  -
|  1> #Run DFT-D3 single point of the dimer
|  2> ! wB97X-D3 def2-TZVP TIGHTSCF  CHELPG PAL8
|  3>
|  4> %base "100_charges"
|  5>
|  6> %scf
|  7> MaxIter 1000
|  8> end
|  9> %output
| 10>   Print[ P_Mayer ] 1
| 11>   Print[ P_NatPop ] 1
| 12>   Print[ P_Hirshfeld ] 1
| 13>   Print[ P_Mulliken ] 1
| 14>   Print [ P_Loewdin ] 1
| 15> end
| 16>
| 17> * xyz 0 1
| 18>   C                      -1.364017            -5.736815            7.706263
| 19>   O                      -1.670980            -7.010179            7.362650
| 20>   H                      -2.492399            -7.029961            6.941810
| 21>   H                      -1.844454            -5.458896            8.611526
| 22>   H                      -0.339697            -5.584353            8.101376
| 23>   H                      -1.616488            -4.940783            7.003512
| 24> *
| 25>
| 26>                          ****END OF INPUT****

CARTESIAN COORDINATES (ANGSTROEM)
---------------------------------
  C     -1.364017   -5.736815    7.706263
  O     -1.670980   -7.010179    7.362650
  H     -2.492399   -7.029961    6.941810
  H     -1.844454   -5.458896    8.611526
  H     -0.339697   -5.584353    8.101376
  H     -1.616488   -4.940783    7.003512

 Total Charge           Charge          ....    0
 Multiplicity           Mult            ....    1
 Number of Electrons    NEL             ....   18
 Basis Dimension        Dim             ....   86

ORBITAL ENERGIES
----------------

  NO   OCC          E(Eh)            E(eV)
   0   2.0000     -19.230021      -523.2755
   1   2.0000     -10.304899      -280.4106
   2   2.0000      -1.163643       -31.6643
   3   2.0000      -0.803493       -21.8642
   4   2.0000      -0.632687       -17.2163
   5   2.0000      -0.551536       -15.0081
   6   2.0000      -0.532004       -14.4766
   7   2.0000      -0.431364       -11.7380
   8   2.0000      -0.368035       -10.0147
   9   0.0000       0.120623         3.2823
  10   0.0000       0.154870         4.2142
  11   0.0000       0.204468         5.5639
  12   0.0000       0.212639         5.7862
  13   0.0000       0.235242         6.4013

MULLIKEN ATOMIC CHARGES
-----------------------
   0 C :   -0.160090
   1 O :   -0.451869
   2 H :    0.312901
   3 H :    0.090382
   4 H :    0.109570
   5 H :    0.099106
Sum of atomic charges:    0.0000000

LOEWDIN ATOMIC CHARGES
----------------------
   0 C :   -0.438601
   1 O :   -0.007858
   2 H :    0.152838
   3 H :    0.086690
   4 H :    0.113297
   5 H :    0.093633

  Mayer bond orders larger than 0.1
B(  0-C ,  1-O ) :   1.0145 B(  0-C ,  3-H ) :   0.9812 B(  0-C ,  4-H ) :   0.9731
B(  0-C ,  5-H ) :   0.9777 B(  1-O ,  2-H ) :   0.9030

Dispersion correction           -0.000229536
FINAL SINGLE POINT ENERGY      -115.725897499254

DIPOLE MOMENT
-------------
                                X             Y             Z
Electronic contribution:     -0.32582      -1.86811      -0.62849
Nuclear contribution   :     -0.11312       2.32187       0.50457
                        -----------------------------------------
Total Dipole Moment    :     -0.43894       0.45376      -0.12392
                        -----------------------------------------
Magnitude (a.u.)       :      0.64337
Magnitude (Debye)      :      1.63532

Rotational constants in cm-1:     4.664534     0.882236     0.839766
Rotational constants in MHz : 139839.213704 26448.776605 25175.543512

                             ****ORCA TERMINATED NORMALLY****
TOTAL RUN TIME: 0 days 0 hours 0 minutes 43 seconds 169 msec
