                         Program Version 4.1.2  - RELEASE  -
|  1> #Run DFT-D3 single point of the dimer
|  2> ! wB97X-D3 def2-TZVP TIGHTSCF CHELPG PMODEL PAL8
|  3>
|  4> %base "4-152_DFT_AB"
|  5>
|  6> %scf
|  7> MaxIter 1000
|  8> end
|  9>
| 10> * xyz 0 1
| 11>   C                      -7.165838            1.970965             -4.316710
| 12>   O                      -8.140504            2.659230             -3.460284
| 13>   H                      -7.664392            2.899198             -2.666859
| 14>   H                      -6.972118            0.987659             -3.975152
| 15>   H                      -7.564475            1.801484             -5.267749
| 16>   H                      -6.156702            2.463355             -4.387189
| 17>   C                      -5.626955            5.201464             -5.698041
| 18>   O                      -6.120893            5.607190             -4.461843
| 19>   H                      -7.011624            5.750783             -4.706784
| 20>   H                      -5.858184            5.795319             -6.573045
| 21>   H                      -4.516198            5.276372             -5.727805
| 22>   H                      -5.579296            4.171457             -5.897865
| 23> *
| 24>
| 25> #Run DFT-D3 single point of the molecule with dimer basis set
| 26> $new_job
| 27> %base "4-152_DFT_A"
| 28> ! wB97X-D3 def2-TZVP TIGHTSCF CHELPG PMODEL
| 29>
| 30> %scf
| 31> MaxIter 1000
| 32> end
| 33>
| 34> * xyz 0 1
| 35>   C                      -7.165838            1.970965             -4.316710
| 36>   O                      -8.140504            2.659230             -3.460284
| 37>   H                      -7.664392            2.899198             -2.666859
| 38>   H                      -6.972118            0.987659             -3.975152
| 39>   H                      -7.564475            1.801484             -5.267749
| 40>   H                      -6.156702            2.463355             -4.387189
| 41>   C                    : -5.626955            5.201464             -5.698041
| 42>   O                    : -6.120893            5.607190             -4.461843
| 43>   H                    : -7.011624            5.750783             -4.706784
| 44>   H                    : -5.858184            5.795319             -6.573045
| 45>   H                    : -4.516198            5.276372             -5.727805
| 46>   H                    : -5.579296            4.171457             -5.897865
| 47> *
| 48>
| 49> #Run DFT-D3 single point of the particle with dimer basis set
| 50> $new_job
| 51> %base "4-152_DFT_B"
| 52> ! wB97X-D3 def2-TZVP TIGHTSCF CHELPG PMODEL
| 53>
| 54> %scf
| 55> MaxIter 1000
| 56> end
| 57>
| 58> * xyz 0 1
| 59>   C                    : -7.165838            1.970965             -4.316710
| 60>   O                    : -8.140504            2.659230             -3.460284
| 61>   H                    : -7.664392            2.899198             -2.666859
| 62>   H                    : -6.972118            0.987659             -3.975152
| 63>   H                    : -7.564475            1.801484             -5.267749
| 64>   H                    : -6.156702            2.463355             -4.387189
| 65>   C                      -5.626955            5.201464             -5.698041
| 66>   O                      -6.120893            5.607190             -4.461843
| 67>   H                      -7.011624            5.750783             -4.706784
| 68>   H                      -5.858184            5.795319             -6.573045
| 69>   H                      -4.516198            5.276372             -5.727805
| 70>   H                      -5.579296            4.171457             -5.897865
| 71> *
| 72>
| 73>                          ****END OF INPUT****
 Total Charge           Charge          ....    0
 Multiplicity           Mult            ....    1
 Number of Electrons    NEL             ....   36
Dispersion correction           -0.001885669
FINAL SINGLE POINT ENERGY      -231.453267438747
Dispersion correction           -0.000265872
FINAL SINGLE POINT ENERGY      -115.730640123470

CARTESIAN COORDINATES (ANGSTROEM)
---------------------------------
  C     -7.165838    1.970965   -4.316710
  O     -8.140504    2.659230   -3.460284
  H     -7.664392    2.899198   -2.666859
  H     -6.972118    0.987659   -3.975152
  H     -7.564475    1.801484   -5.267749
  H     -6.156702    2.463355   -4.387189
  C     -5.626955    5.201464   -5.698041
  O     -6.120893    5.607190   -4.461843
  H     -7.011624    5.750783   -4.706784
  H     -5.858184    5.795319   -6.573045
  H     -4.516198    5.276372   -5.727805
  H     -5.579296    4.171457   -5.897865

 Multiplicity           Mult            ....    1
 Number of Electrons    NEL             ....   18
 Basis Dimension        Dim             ....  172

ORBITAL ENERGIES
----------------

  NO   OCC          E(Eh)            E(eV)
   0   2.0000     -19.239052      -523.5212
   1   2.0000     -10.306429      -280.4522
   2   2.0000      -1.158903       -31.5353
   3   2.0000      -0.803925       -21.8759
   4   2.0000      -0.618614       -16.8333
   5   2.0000      -0.556075       -15.1316
   6   2.0000      -0.529083       -14.3971
   7   2.0000      -0.433043       -11.7837
   8   2.0000      -0.379012       -10.3135
   9   0.0000       0.087779         2.3886
  10   0.0000       0.131078         3.5668
  11   0.0000       0.143995         3.9183
  12   0.0000       0.178406         4.8547
  13   0.0000       0.195003         5.3063

MULLIKEN ATOMIC CHARGES
-----------------------
   0 C :   -0.000895
   1 O :   -0.000357
   2 H :   -0.001007
   3 H :    0.000170
   4 H :   -0.000865
   5 H :    0.003127
   6 C :   -0.212141
   7 O :   -0.438854
   8 H :    0.315367
   9 H :    0.119946
  10 H :    0.106350
  11 H :    0.109158
Sum of atomic charges:    0.0000000

LOEWDIN ATOMIC CHARGES
----------------------
   0 C :   -0.005064
   1 O :   -0.000849
   2 H :   -0.001018
   3 H :   -0.000024
   4 H :   -0.000362
   5 H :   -0.003513
   6 C :   -0.425793
   7 O :   -0.031408
   8 H :    0.163487
   9 H :    0.098125
  10 H :    0.115184
  11 H :    0.091236

  Mayer bond orders larger than 0.1
B(  6-C ,  7-O ) :   1.0277 B(  6-C ,  9-H ) :   0.9788 B(  6-C , 10-H ) :   0.9795
B(  6-C , 11-H ) :   0.9709 B(  7-O ,  8-H ) :   0.9064

Dispersion correction           -0.000240789
FINAL SINGLE POINT ENERGY      -115.720118946122

DIPOLE MOMENT
-------------
                                X             Y             Z
Electronic contribution:     -0.87944       0.55363       1.79678
Nuclear contribution   :      0.54689      -0.60308      -2.40010
                        -----------------------------------------
Total Dipole Moment    :     -0.33255      -0.04945      -0.60332
                        -----------------------------------------
Magnitude (a.u.)       :      0.69067
Magnitude (Debye)      :      1.75555

Rotational constants in cm-1:     4.648586     0.847222     0.814249
Rotational constants in MHz : 139361.102465 25399.084617 24410.564932

                             ****ORCA TERMINATED NORMALLY****
TOTAL RUN TIME: 0 days 0 hours 1 minutes 35 seconds 392 msec
