                         Program Version 4.1.2  - RELEASE  -
|  1> #Run DFT-D3 single point of the dimer
|  2> ! wB97X-D3 def2-TZVP TIGHTSCF CHELPG PMODEL PAL8
|  3>
|  4> %base "13-118_DFT_AB"
|  5>
|  6> %scf
|  7> MaxIter 1000
|  8> end
|  9>
| 10> * xyz 0 1
| 11>   C                      -4.012360            -0.632223            -6.223825
| 12>   O                      -2.965257            -0.703320            -7.190753
| 13>   H                      -2.852629            0.189757             -7.475184
| 14>   H                      -4.895015            -0.107006            -6.552738
| 15>   H                      -4.281098            -1.627161            -5.907874
| 16>   H                      -3.664603            -0.197199            -5.263075
| 17>   C                      -1.383171            2.494834             -7.774081
| 18>   O                      -2.695883            2.071175             -8.055564
| 19>   H                      -3.226363            2.757146             -8.538271
| 20>   H                      -1.414707            3.136260             -6.875296
| 21>   H                      -0.763160            1.607166             -7.637701
| 22>   H                      -0.942670            3.070044             -8.613933
| 23> *
| 24>
| 25> #Run DFT-D3 single point of the molecule with dimer basis set
| 26> $new_job
| 27> %base "13-118_DFT_A"
| 28> ! wB97X-D3 def2-TZVP TIGHTSCF CHELPG PMODEL
| 29>
| 30> %scf
| 31> MaxIter 1000
| 32> end
| 33>
| 34> * xyz 0 1
| 35>   C                      -4.012360            -0.632223            -6.223825
| 36>   O                      -2.965257            -0.703320            -7.190753
| 37>   H                      -2.852629            0.189757             -7.475184
| 38>   H                      -4.895015            -0.107006            -6.552738
| 39>   H                      -4.281098            -1.627161            -5.907874
| 40>   H                      -3.664603            -0.197199            -5.263075
| 41>   C                    : -1.383171            2.494834             -7.774081
| 42>   O                    : -2.695883            2.071175             -8.055564
| 43>   H                    : -3.226363            2.757146             -8.538271
| 44>   H                    : -1.414707            3.136260             -6.875296
| 45>   H                    : -0.763160            1.607166             -7.637701
| 46>   H                    : -0.942670            3.070044             -8.613933
| 47> *
| 48>
| 49> #Run DFT-D3 single point of the particle with dimer basis set
| 50> $new_job
| 51> %base "13-118_DFT_B"
| 52> ! wB97X-D3 def2-TZVP TIGHTSCF CHELPG PMODEL
| 53>
| 54> %scf
| 55> MaxIter 1000
| 56> end
| 57>
| 58> * xyz 0 1
| 59>   C                    : -4.012360            -0.632223            -6.223825
| 60>   O                    : -2.965257            -0.703320            -7.190753
| 61>   H                    : -2.852629            0.189757             -7.475184
| 62>   H                    : -4.895015            -0.107006            -6.552738
| 63>   H                    : -4.281098            -1.627161            -5.907874
| 64>   H                    : -3.664603            -0.197199            -5.263075
| 65>   C                      -1.383171            2.494834             -7.774081
| 66>   O                      -2.695883            2.071175             -8.055564
| 67>   H                      -3.226363            2.757146             -8.538271
| 68>   H                      -1.414707            3.136260             -6.875296
| 69>   H                      -0.763160            1.607166             -7.637701
| 70>   H                      -0.942670            3.070044             -8.613933
| 71> *
| 72>
| 73>                          ****END OF INPUT****
 Total Charge           Charge          ....    0
 Multiplicity           Mult            ....    1
 Number of Electrons    NEL             ....   36
Dispersion correction           -0.001774102
FINAL SINGLE POINT ENERGY      -231.478407667211
Dispersion correction           -0.000243031
FINAL SINGLE POINT ENERGY      -115.735197290759

CARTESIAN COORDINATES (ANGSTROEM)
---------------------------------
  C     -4.012360   -0.632223   -6.223825
  O     -2.965257   -0.703320   -7.190753
  H     -2.852629    0.189757   -7.475184
  H     -4.895015   -0.107006   -6.552738
  H     -4.281098   -1.627161   -5.907874
  H     -3.664603   -0.197199   -5.263075
  C     -1.383171    2.494834   -7.774081
  O     -2.695883    2.071175   -8.055564
  H     -3.226363    2.757146   -8.538271
  H     -1.414707    3.136260   -6.875296
  H     -0.763160    1.607166   -7.637701
  H     -0.942670    3.070044   -8.613933

 Multiplicity           Mult            ....    1
 Number of Electrons    NEL             ....   18
 Basis Dimension        Dim             ....  172

ORBITAL ENERGIES
----------------

  NO   OCC          E(Eh)            E(eV)
   0   2.0000     -19.229384      -523.2581
   1   2.0000     -10.314685      -280.6768
   2   2.0000      -1.128654       -30.7122
   3   2.0000      -0.791412       -21.5354
   4   2.0000      -0.606852       -16.5133
   5   2.0000      -0.544756       -14.8236
   6   2.0000      -0.524830       -14.2813
   7   2.0000      -0.426012       -11.5924
   8   2.0000      -0.370406       -10.0793
   9   0.0000       0.098149         2.6708
  10   0.0000       0.122639         3.3372
  11   0.0000       0.151610         4.1255
  12   0.0000       0.183919         5.0047
  13   0.0000       0.199376         5.4253

MULLIKEN ATOMIC CHARGES
-----------------------
   0 C :    0.000714
   1 O :   -0.000165
   2 H :   -0.005172
   3 H :   -0.001823
   4 H :   -0.000259
   5 H :   -0.000755
   6 C :   -0.151181
   7 O :   -0.481079
   8 H :    0.315972
   9 H :    0.101198
  10 H :    0.121202
  11 H :    0.101347
Sum of atomic charges:   -0.0000000

LOEWDIN ATOMIC CHARGES
----------------------
   0 C :   -0.004616
   1 O :   -0.003836
   2 H :   -0.034377
   3 H :   -0.000800
   4 H :   -0.000071
   5 H :   -0.000236
   6 C :   -0.386452
   7 O :   -0.058218
   8 H :    0.184858
   9 H :    0.097073
  10 H :    0.109010
  11 H :    0.097666

  Mayer bond orders larger than 0.1
B(  6-C ,  7-O ) :   0.9898 B(  6-C ,  9-H ) :   0.9754 B(  6-C , 10-H ) :   0.9747
B(  6-C , 11-H ) :   0.9735 B(  7-O ,  8-H ) :   0.8888

Dispersion correction           -0.000247395
FINAL SINGLE POINT ENERGY      -115.734913650763

DIPOLE MOMENT
-------------
                                X             Y             Z
Electronic contribution:     -1.58700      -0.66956      -0.27698
Nuclear contribution   :      1.78263       1.27535       0.05907
                        -----------------------------------------
Total Dipole Moment    :      0.19563       0.60579      -0.21792
                        -----------------------------------------
Magnitude (a.u.)       :      0.67286
Magnitude (Debye)      :      1.71027

Rotational constants in cm-1:     4.186296     0.832428     0.805579
Rotational constants in MHz : 125501.999216 24955.571119 24150.638409

                             ****ORCA TERMINATED NORMALLY****
TOTAL RUN TIME: 0 days 0 hours 1 minutes 5 seconds 688 msec
