                         Program Version 4.1.2  - RELEASE  -
|  1> #Run DFT-D3 single point of the dimer
|  2> ! wB97X-D3 def2-TZVP TIGHTSCF CHELPG PMODEL PAL8
|  3>
|  4> %base "21-161_DFT_AB"
|  5>
|  6> %scf
|  7> MaxIter 1000
|  8> end
|  9>
| 10> * xyz 0 1
| 11>   C                      5.849089             5.190941             8.767723
| 12>   O                      4.550791             5.140373             9.206326
| 13>   H                      4.169133             6.010848             9.327686
| 14>   H                      6.534993             5.393492             9.597090
| 15>   H                      6.229892             4.328461             8.286398
| 16>   H                      6.007129             6.055441             8.094881
| 17>   C                      4.543838             1.710995             10.666752
| 18>   O                      4.756098             2.325651             9.434166
| 19>   H                      4.504276             3.273992             9.505894
| 20>   H                      3.553929             1.349795             10.785077
| 21>   H                      5.116451             0.781854             10.582487
| 22>   H                      4.965932             2.259102             11.551566
| 23> *
| 24>
| 25> #Run DFT-D3 single point of the molecule with dimer basis set
| 26> $new_job
| 27> %base "21-161_DFT_A"
| 28> ! wB97X-D3 def2-TZVP TIGHTSCF CHELPG PMODEL
| 29>
| 30> %scf
| 31> MaxIter 1000
| 32> end
| 33>
| 34> * xyz 0 1
| 35>   C                      5.849089             5.190941             8.767723
| 36>   O                      4.550791             5.140373             9.206326
| 37>   H                      4.169133             6.010848             9.327686
| 38>   H                      6.534993             5.393492             9.597090
| 39>   H                      6.229892             4.328461             8.286398
| 40>   H                      6.007129             6.055441             8.094881
| 41>   C                    : 4.543838             1.710995             10.666752
| 42>   O                    : 4.756098             2.325651             9.434166
| 43>   H                    : 4.504276             3.273992             9.505894
| 44>   H                    : 3.553929             1.349795             10.785077
| 45>   H                    : 5.116451             0.781854             10.582487
| 46>   H                    : 4.965932             2.259102             11.551566
| 47> *
| 48>
| 49> #Run DFT-D3 single point of the particle with dimer basis set
| 50> $new_job
| 51> %base "21-161_DFT_B"
| 52> ! wB97X-D3 def2-TZVP TIGHTSCF CHELPG PMODEL
| 53>
| 54> %scf
| 55> MaxIter 1000
| 56> end
| 57>
| 58> * xyz 0 1
| 59>   C                    : 5.849089             5.190941             8.767723
| 60>   O                    : 4.550791             5.140373             9.206326
| 61>   H                    : 4.169133             6.010848             9.327686
| 62>   H                    : 6.534993             5.393492             9.597090
| 63>   H                    : 6.229892             4.328461             8.286398
| 64>   H                    : 6.007129             6.055441             8.094881
| 65>   C                      4.543838             1.710995             10.666752
| 66>   O                      4.756098             2.325651             9.434166
| 67>   H                      4.504276             3.273992             9.505894
| 68>   H                      3.553929             1.349795             10.785077
| 69>   H                      5.116451             0.781854             10.582487
| 70>   H                      4.965932             2.259102             11.551566
| 71> *
| 72>
| 73>                          ****END OF INPUT****
 Total Charge           Charge          ....    0
 Multiplicity           Mult            ....    1
 Number of Electrons    NEL             ....   36
Dispersion correction           -0.001768710
FINAL SINGLE POINT ENERGY      -231.472389122015
Dispersion correction           -0.000231622
FINAL SINGLE POINT ENERGY      -115.732096523482

CARTESIAN COORDINATES (ANGSTROEM)
---------------------------------
  C      5.849089    5.190941    8.767723
  O      4.550791    5.140373    9.206326
  H      4.169133    6.010848    9.327686
  H      6.534993    5.393492    9.597090
  H      6.229892    4.328461    8.286398
  H      6.007129    6.055441    8.094881
  C      4.543838    1.710995   10.666752
  O      4.756098    2.325651    9.434166
  H      4.504276    3.273992    9.505894
  H      3.553929    1.349795   10.785077
  H      5.116451    0.781854   10.582487
  H      4.965932    2.259102   11.551566

 Multiplicity           Mult            ....    1
 Number of Electrons    NEL             ....   18
 Basis Dimension        Dim             ....  172

ORBITAL ENERGIES
----------------

  NO   OCC          E(Eh)            E(eV)
   0   2.0000     -19.233845      -523.3795
   1   2.0000     -10.309365      -280.5321
   2   2.0000      -1.138860       -30.9900
   3   2.0000      -0.794773       -21.6269
   4   2.0000      -0.609608       -16.5883
   5   2.0000      -0.551769       -15.0144
   6   2.0000      -0.523742       -14.2517
   7   2.0000      -0.427490       -11.6326
   8   2.0000      -0.375467       -10.2170
   9   0.0000       0.074297         2.0217
  10   0.0000       0.135562         3.6888
  11   0.0000       0.153868         4.1869
  12   0.0000       0.168194         4.5768
  13   0.0000       0.190034         5.1711

MULLIKEN ATOMIC CHARGES
-----------------------
   0 C :   -0.010238
   1 O :   -0.000553
   2 H :   -0.000124
   3 H :    0.001510
   4 H :   -0.002319
   5 H :   -0.000580
   6 C :   -0.158736
   7 O :   -0.459403
   8 H :    0.313545
   9 H :    0.103918
  10 H :    0.112414
  11 H :    0.100566
Sum of atomic charges:    0.0000000

LOEWDIN ATOMIC CHARGES
----------------------
   0 C :   -0.016970
   1 O :   -0.021922
   2 H :   -0.000897
   3 H :   -0.000465
   4 H :   -0.005513
   5 H :   -0.000267
   6 C :   -0.406011
   7 O :   -0.048886
   8 H :    0.199559
   9 H :    0.088079
  10 H :    0.111352
  11 H :    0.101942

  Mayer bond orders larger than 0.1
B(  6-C ,  7-O ) :   1.0080 B(  6-C ,  9-H ) :   0.9764 B(  6-C , 10-H ) :   0.9781
B(  6-C , 11-H ) :   0.9699 B(  7-O ,  8-H ) :   0.8972

Dispersion correction           -0.000246918
FINAL SINGLE POINT ENERGY      -115.732716982310

DIPOLE MOMENT
-------------
                                X             Y             Z
Electronic contribution:      0.19162       0.78969      -1.58976
Nuclear contribution   :     -0.42465      -0.47443       2.10212
                        -----------------------------------------
Total Dipole Moment    :     -0.23303       0.31526       0.51236
                        -----------------------------------------
Magnitude (a.u.)       :      0.64514
Magnitude (Debye)      :      1.63980

Rotational constants in cm-1:     4.280006     0.850300     0.819396
Rotational constants in MHz : 128311.338435 25491.339465 24564.866954

                             ****ORCA TERMINATED NORMALLY****
TOTAL RUN TIME: 0 days 0 hours 1 minutes 9 seconds 896 msec
