                         Program Version 4.1.2  - RELEASE  -
|  1> #Run DFT-D3 single point of the dimer
|  2> ! wB97X-D3 def2-TZVP TIGHTSCF CHELPG PMODEL PAL8
|  3>
|  4> %base "2-97_DFT_AB"
|  5>
|  6> %scf
|  7> MaxIter 1000
|  8> end
|  9>
| 10> * xyz 0 1
| 11>   C                      10.131559            -0.929883            -3.069840
| 12>   O                      8.749478             -0.835584            -3.413896
| 13>   H                      8.295501             -1.609561            -3.197512
| 14>   H                      10.881002            -1.133662            -3.916814
| 15>   H                      10.518113            -0.027949            -2.527007
| 16>   H                      10.152257            -1.698416            -2.209900
| 17>   C                      10.075003            -5.369550            -1.701341
| 18>   O                      10.966355            -5.894968            -0.762528
| 19>   H                      10.837473            -6.806595            -0.593211
| 20>   H                      8.989269             -5.571708            -1.521119
| 21>   H                      10.054936            -4.273271            -1.759322
| 22>   H                      10.144655            -5.691776            -2.762107
| 23> *
| 24>
| 25> #Run DFT-D3 single point of the molecule with dimer basis set
| 26> $new_job
| 27> %base "2-97_DFT_A"
| 28> ! wB97X-D3 def2-TZVP TIGHTSCF CHELPG PMODEL
| 29>
| 30> %scf
| 31> MaxIter 1000
| 32> end
| 33>
| 34> * xyz 0 1
| 35>   C                      10.131559            -0.929883            -3.069840
| 36>   O                      8.749478             -0.835584            -3.413896
| 37>   H                      8.295501             -1.609561            -3.197512
| 38>   H                      10.881002            -1.133662            -3.916814
| 39>   H                      10.518113            -0.027949            -2.527007
| 40>   H                      10.152257            -1.698416            -2.209900
| 41>   C                    : 10.075003            -5.369550            -1.701341
| 42>   O                    : 10.966355            -5.894968            -0.762528
| 43>   H                    : 10.837473            -6.806595            -0.593211
| 44>   H                    : 8.989269             -5.571708            -1.521119
| 45>   H                    : 10.054936            -4.273271            -1.759322
| 46>   H                    : 10.144655            -5.691776            -2.762107
| 47> *
| 48>
| 49> #Run DFT-D3 single point of the particle with dimer basis set
| 50> $new_job
| 51> %base "2-97_DFT_B"
| 52> ! wB97X-D3 def2-TZVP TIGHTSCF CHELPG PMODEL
| 53>
| 54> %scf
| 55> MaxIter 1000
| 56> end
| 57>
| 58> * xyz 0 1
| 59>   C                    : 10.131559            -0.929883            -3.069840
| 60>   O                    : 8.749478             -0.835584            -3.413896
| 61>   H                    : 8.295501             -1.609561            -3.197512
| 62>   H                    : 10.881002            -1.133662            -3.916814
| 63>   H                    : 10.518113            -0.027949            -2.527007
| 64>   H                    : 10.152257            -1.698416            -2.209900
| 65>   C                      10.075003            -5.369550            -1.701341
| 66>   O                      10.966355            -5.894968            -0.762528
| 67>   H                      10.837473            -6.806595            -0.593211
| 68>   H                      8.989269             -5.571708            -1.521119
| 69>   H                      10.054936            -4.273271            -1.759322
| 70>   H                      10.144655            -5.691776            -2.762107
| 71> *
| 72>
| 73>                          ****END OF INPUT****
 Total Charge           Charge          ....    0
 Multiplicity           Mult            ....    1
 Number of Electrons    NEL             ....   36
Dispersion correction           -0.001153298
FINAL SINGLE POINT ENERGY      -231.454309825387
Dispersion correction           -0.000278317
FINAL SINGLE POINT ENERGY      -115.724196521204

CARTESIAN COORDINATES (ANGSTROEM)
---------------------------------
  C     10.131559   -0.929883   -3.069840
  O      8.749478   -0.835584   -3.413896
  H      8.295501   -1.609561   -3.197512
  H     10.881002   -1.133662   -3.916814
  H     10.518113   -0.027949   -2.527007
  H     10.152257   -1.698416   -2.209900
  C     10.075003   -5.369550   -1.701341
  O     10.966355   -5.894968   -0.762528
  H     10.837473   -6.806595   -0.593211
  H      8.989269   -5.571708   -1.521119
  H     10.054936   -4.273271   -1.759322
  H     10.144655   -5.691776   -2.762107

 Multiplicity           Mult            ....    1
 Number of Electrons    NEL             ....   18
 Basis Dimension        Dim             ....  172

ORBITAL ENERGIES
----------------

  NO   OCC          E(Eh)            E(eV)
   0   2.0000     -19.235014      -523.4113
   1   2.0000     -10.318042      -280.7682
   2   2.0000      -1.146419       -31.1957
   3   2.0000      -0.801575       -21.8120
   4   2.0000      -0.627567       -17.0770
   5   2.0000      -0.533207       -14.5093
   6   2.0000      -0.527179       -14.3453
   7   2.0000      -0.428662       -11.6645
   8   2.0000      -0.375088       -10.2067
   9   0.0000       0.085472         2.3258
  10   0.0000       0.120603         3.2818
  11   0.0000       0.145367         3.9556
  12   0.0000       0.167157         4.5486
  13   0.0000       0.188064         5.1175

MULLIKEN ATOMIC CHARGES
-----------------------
   0 C :   -0.000750
   1 O :    0.000007
   2 H :   -0.000046
   3 H :   -0.000041
   4 H :    0.000045
   5 H :    0.001172
   6 C :   -0.174745
   7 O :   -0.467318
   8 H :    0.318143
   9 H :    0.096167
  10 H :    0.128132
  11 H :    0.099233
Sum of atomic charges:   -0.0000000

LOEWDIN ATOMIC CHARGES
----------------------
   0 C :   -0.000932
   1 O :   -0.000006
   2 H :   -0.000103
   3 H :   -0.000021
   4 H :   -0.000003
   5 H :   -0.002407
   6 C :   -0.413272
   7 O :   -0.044092
   8 H :    0.156575
   9 H :    0.097190
  10 H :    0.111368
  11 H :    0.095703

  Mayer bond orders larger than 0.1
B(  6-C ,  7-O ) :   1.0157 B(  6-C ,  9-H ) :   0.9772 B(  6-C , 10-H ) :   0.9714
B(  6-C , 11-H ) :   0.9709 B(  7-O ,  8-H ) :   0.8968

Dispersion correction           -0.000287328
FINAL SINGLE POINT ENERGY      -115.729809564931

DIPOLE MOMENT
-------------
                                X             Y             Z
Electronic contribution:      1.44804      -0.66223       1.37217
Nuclear contribution   :     -1.88792       0.27150      -1.61316
                        -----------------------------------------
Total Dipole Moment    :     -0.43988      -0.39073      -0.24098
                        -----------------------------------------
Magnitude (a.u.)       :      0.63579
Magnitude (Debye)      :      1.61606

Rotational constants in cm-1:     4.644494     0.814228     0.787993
Rotational constants in MHz : 139238.418826 24409.932862 23623.439260

                             ****ORCA TERMINATED NORMALLY****
TOTAL RUN TIME: 0 days 0 hours 6 minutes 10 seconds 397 msec
