                         Program Version 4.1.2  - RELEASE  -
|  1> #Run DFT-D3 single point of the dimer
|  2> ! wB97X-D3 def2-TZVP TIGHTSCF CHELPG PMODEL PAL8
|  3>
|  4> %base "6-17_DFT_AB"
|  5>
|  6> %scf
|  7> MaxIter 1000
|  8> end
|  9>
| 10> * xyz 0 1
| 11>   C                      10.093888            -10.923622           -4.878112
| 12>   O                      8.854168             -11.523886           -5.213173
| 13>   H                      8.103930             -11.097083           -4.746784
| 14>   H                      10.121338            -10.612979           -3.867320
| 15>   H                      11.027255            -11.597783           -4.983063
| 16>   H                      10.219092            -10.001707           -5.424086
| 17>   C                      11.076517            -8.554531            -1.744906
| 18>   O                      10.153964            -8.303741            -0.696655
| 19>   H                      9.337637             -8.741784            -1.011059
| 20>   H                      11.747606            -7.739471            -1.922216
| 21>   H                      11.732640            -9.399940            -1.543926
| 22>   H                      10.655528            -8.805024            -2.715409
| 23> *
| 24>
| 25> #Run DFT-D3 single point of the molecule with dimer basis set
| 26> $new_job
| 27> %base "6-17_DFT_A"
| 28> ! wB97X-D3 def2-TZVP TIGHTSCF CHELPG PMODEL
| 29>
| 30> %scf
| 31> MaxIter 1000
| 32> end
| 33>
| 34> * xyz 0 1
| 35>   C                      10.093888            -10.923622           -4.878112
| 36>   O                      8.854168             -11.523886           -5.213173
| 37>   H                      8.103930             -11.097083           -4.746784
| 38>   H                      10.121338            -10.612979           -3.867320
| 39>   H                      11.027255            -11.597783           -4.983063
| 40>   H                      10.219092            -10.001707           -5.424086
| 41>   C                    : 11.076517            -8.554531            -1.744906
| 42>   O                    : 10.153964            -8.303741            -0.696655
| 43>   H                    : 9.337637             -8.741784            -1.011059
| 44>   H                    : 11.747606            -7.739471            -1.922216
| 45>   H                    : 11.732640            -9.399940            -1.543926
| 46>   H                    : 10.655528            -8.805024            -2.715409
| 47> *
| 48>
| 49> #Run DFT-D3 single point of the particle with dimer basis set
| 50> $new_job
| 51> %base "6-17_DFT_B"
| 52> ! wB97X-D3 def2-TZVP TIGHTSCF CHELPG PMODEL
| 53>
| 54> %scf
| 55> MaxIter 1000
| 56> end
| 57>
| 58> * xyz 0 1
| 59>   C                    : 10.093888            -10.923622           -4.878112
| 60>   O                    : 8.854168             -11.523886           -5.213173
| 61>   H                    : 8.103930             -11.097083           -4.746784
| 62>   H                    : 10.121338            -10.612979           -3.867320
| 63>   H                    : 11.027255            -11.597783           -4.983063
| 64>   H                    : 10.219092            -10.001707           -5.424086
| 65>   C                      11.076517            -8.554531            -1.744906
| 66>   O                      10.153964            -8.303741            -0.696655
| 67>   H                      9.337637             -8.741784            -1.011059
| 68>   H                      11.747606            -7.739471            -1.922216
| 69>   H                      11.732640            -9.399940            -1.543926
| 70>   H                      10.655528            -8.805024            -2.715409
| 71> *
| 72>
| 73>                          ****END OF INPUT****
 Total Charge           Charge          ....    0
 Multiplicity           Mult            ....    1
 Number of Electrons    NEL             ....   36
Dispersion correction           -0.001419595
FINAL SINGLE POINT ENERGY      -231.461079093452
Dispersion correction           -0.000255355
FINAL SINGLE POINT ENERGY      -115.728957824694

CARTESIAN COORDINATES (ANGSTROEM)
---------------------------------
  C     10.093888  -10.923622   -4.878112
  O      8.854168  -11.523886   -5.213173
  H      8.103930  -11.097083   -4.746784
  H     10.121338  -10.612979   -3.867320
  H     11.027255  -11.597783   -4.983063
  H     10.219092  -10.001707   -5.424086
  C     11.076517   -8.554531   -1.744906
  O     10.153964   -8.303741   -0.696655
  H      9.337637   -8.741784   -1.011059
  H     11.747606   -7.739471   -1.922216
  H     11.732640   -9.399940   -1.543926
  H     10.655528   -8.805024   -2.715409

 Multiplicity           Mult            ....    1
 Number of Electrons    NEL             ....   18
 Basis Dimension        Dim             ....  172

ORBITAL ENERGIES
----------------

  NO   OCC          E(Eh)            E(eV)
   0   2.0000     -19.237177      -523.4702
   1   2.0000     -10.309126      -280.5256
   2   2.0000      -1.135948       -30.9107
   3   2.0000      -0.798326       -21.7236
   4   2.0000      -0.612218       -16.6593
   5   2.0000      -0.535326       -14.5670
   6   2.0000      -0.528420       -14.3790
   7   2.0000      -0.442916       -12.0524
   8   2.0000      -0.374529       -10.1915
   9   0.0000       0.075764         2.0617
  10   0.0000       0.119313         3.2467
  11   0.0000       0.145932         3.9710
  12   0.0000       0.170490         4.6393
  13   0.0000       0.181692         4.9441

MULLIKEN ATOMIC CHARGES
-----------------------
   0 C :   -0.000091
   1 O :   -0.000055
   2 H :   -0.000046
   3 H :    0.000124
   4 H :    0.000056
   5 H :   -0.000439
   6 C :   -0.173251
   7 O :   -0.464008
   8 H :    0.319807
   9 H :    0.119092
  10 H :    0.099440
  11 H :    0.099372
Sum of atomic charges:    0.0000000

LOEWDIN ATOMIC CHARGES
----------------------
   0 C :   -0.004284
   1 O :   -0.000018
   2 H :   -0.000006
   3 H :   -0.005901
   4 H :   -0.000041
   5 H :   -0.000579
   6 C :   -0.387117
   7 O :   -0.082098
   8 H :    0.184877
   9 H :    0.099964
  10 H :    0.096356
  11 H :    0.098849

  Mayer bond orders larger than 0.1
B(  6-C ,  7-O ) :   1.0165 B(  6-C ,  9-H ) :   0.9750 B(  6-C , 10-H ) :   0.9787
B(  6-C , 11-H ) :   0.9819 B(  7-O ,  8-H ) :   0.8982

Dispersion correction           -0.000252381
FINAL SINGLE POINT ENERGY      -115.732447485345

DIPOLE MOMENT
-------------
                                X             Y             Z
Electronic contribution:     -1.19534       0.48553       1.51392
Nuclear contribution   :      1.03933      -0.85174      -2.13100
                        -----------------------------------------
Total Dipole Moment    :     -0.15600      -0.36622      -0.61708
                        -----------------------------------------
Magnitude (a.u.)       :      0.73433
Magnitude (Debye)      :      1.86653

Rotational constants in cm-1:     4.458438     0.822324     0.788458
Rotational constants in MHz : 133660.613797 24652.653475 23637.372235

                             ****ORCA TERMINATED NORMALLY****
TOTAL RUN TIME: 0 days 0 hours 0 minutes 58 seconds 839 msec
