                         Program Version 4.1.2  - RELEASE  -
|  1> #Run DFT-D3 single point of the dimer
|  2> ! wB97X-D3 def2-TZVP TIGHTSCF CHELPG PMODEL PAL8
|  3>
|  4> %base "19-217_DFT_AB"
|  5>
|  6> %scf
|  7> MaxIter 1000
|  8> end
|  9>
| 10> * xyz 0 1
| 11>   C                      -7.528065            0.142934             -10.279111
| 12>   O                      -8.302378            0.757555             -9.316046
| 13>   H                      -8.914305            1.236668             -9.863616
| 14>   H                      -8.081730            -0.516061            -10.904095
| 15>   H                      -7.235268            0.950584             -10.947606
| 16>   H                      -6.567483            -0.255264            -9.939949
| 17>   C                      -5.962067            2.058000             -6.727734
| 18>   O                      -6.074522            0.724130             -7.258330
| 19>   H                      -6.830663            0.692795             -7.852670
| 20>   H                      -5.898301            2.758126             -7.603611
| 21>   H                      -6.811730            2.365219             -6.074757
| 22>   H                      -4.984122            2.110984             -6.236321
| 23> *
| 24>
| 25> #Run DFT-D3 single point of the molecule with dimer basis set
| 26> $new_job
| 27> %base "19-217_DFT_A"
| 28> ! wB97X-D3 def2-TZVP TIGHTSCF CHELPG PMODEL
| 29>
| 30> %scf
| 31> MaxIter 1000
| 32> end
| 33>
| 34> * xyz 0 1
| 35>   C                      -7.528065            0.142934             -10.279111
| 36>   O                      -8.302378            0.757555             -9.316046
| 37>   H                      -8.914305            1.236668             -9.863616
| 38>   H                      -8.081730            -0.516061            -10.904095
| 39>   H                      -7.235268            0.950584             -10.947606
| 40>   H                      -6.567483            -0.255264            -9.939949
| 41>   C                    : -5.962067            2.058000             -6.727734
| 42>   O                    : -6.074522            0.724130             -7.258330
| 43>   H                    : -6.830663            0.692795             -7.852670
| 44>   H                    : -5.898301            2.758126             -7.603611
| 45>   H                    : -6.811730            2.365219             -6.074757
| 46>   H                    : -4.984122            2.110984             -6.236321
| 47> *
| 48>
| 49> #Run DFT-D3 single point of the particle with dimer basis set
| 50> $new_job
| 51> %base "19-217_DFT_B"
| 52> ! wB97X-D3 def2-TZVP TIGHTSCF CHELPG PMODEL
| 53>
| 54> %scf
| 55> MaxIter 1000
| 56> end
| 57>
| 58> * xyz 0 1
| 59>   C                    : -7.528065            0.142934             -10.279111
| 60>   O                    : -8.302378            0.757555             -9.316046
| 61>   H                    : -8.914305            1.236668             -9.863616
| 62>   H                    : -8.081730            -0.516061            -10.904095
| 63>   H                    : -7.235268            0.950584             -10.947606
| 64>   H                    : -6.567483            -0.255264            -9.939949
| 65>   C                      -5.962067            2.058000             -6.727734
| 66>   O                      -6.074522            0.724130             -7.258330
| 67>   H                      -6.830663            0.692795             -7.852670
| 68>   H                      -5.898301            2.758126             -7.603611
| 69>   H                      -6.811730            2.365219             -6.074757
| 70>   H                      -4.984122            2.110984             -6.236321
| 71> *
| 72>
| 73>                          ****END OF INPUT****
 Total Charge           Charge          ....    0
 Multiplicity           Mult            ....    1
 Number of Electrons    NEL             ....   36
Dispersion correction           -0.001744993
FINAL SINGLE POINT ENERGY      -231.469553523541
Dispersion correction           -0.000191464
FINAL SINGLE POINT ENERGY      -115.727542420828

CARTESIAN COORDINATES (ANGSTROEM)
---------------------------------
  C     -7.528065    0.142934  -10.279111
  O     -8.302378    0.757555   -9.316046
  H     -8.914305    1.236668   -9.863616
  H     -8.081730   -0.516061  -10.904095
  H     -7.235268    0.950584  -10.947606
  H     -6.567483   -0.255264   -9.939949
  C     -5.962067    2.058000   -6.727734
  O     -6.074522    0.724130   -7.258330
  H     -6.830663    0.692795   -7.852670
  H     -5.898301    2.758126   -7.603611
  H     -6.811730    2.365219   -6.074757
  H     -4.984122    2.110984   -6.236321

 Multiplicity           Mult            ....    1
 Number of Electrons    NEL             ....   18
 Basis Dimension        Dim             ....  172

ORBITAL ENERGIES
----------------

  NO   OCC          E(Eh)            E(eV)
   0   2.0000     -19.230277      -523.2824
   1   2.0000     -10.321464      -280.8613
   2   2.0000      -1.128035       -30.6954
   3   2.0000      -0.792253       -21.5583
   4   2.0000      -0.604523       -16.4499
   5   2.0000      -0.538843       -14.6627
   6   2.0000      -0.522199       -14.2098
   7   2.0000      -0.434456       -11.8222
   8   2.0000      -0.374186       -10.1821
   9   0.0000       0.072265         1.9664
  10   0.0000       0.134038         3.6474
  11   0.0000       0.153830         4.1859
  12   0.0000       0.165584         4.5058
  13   0.0000       0.185703         5.0532

MULLIKEN ATOMIC CHARGES
-----------------------
   0 C :   -0.006639
   1 O :   -0.000822
   2 H :   -0.000030
   3 H :   -0.000326
   4 H :    0.001101
   5 H :   -0.003185
   6 C :   -0.171025
   7 O :   -0.471634
   8 H :    0.311280
   9 H :    0.103073
  10 H :    0.110744
  11 H :    0.127463
Sum of atomic charges:   -0.0000000

LOEWDIN ATOMIC CHARGES
----------------------
   0 C :   -0.009920
   1 O :   -0.013084
   2 H :   -0.000529
   3 H :   -0.000177
   4 H :   -0.000158
   5 H :   -0.004281
   6 C :   -0.370569
   7 O :   -0.085880
   8 H :    0.174188
   9 H :    0.100506
  10 H :    0.099228
  11 H :    0.110674

  Mayer bond orders larger than 0.1
B(  6-C ,  7-O ) :   0.9881 B(  6-C ,  9-H ) :   0.9774 B(  6-C , 10-H ) :   0.9676
B(  6-C , 11-H ) :   0.9727 B(  7-O ,  8-H ) :   0.9078

Dispersion correction           -0.000253034
FINAL SINGLE POINT ENERGY      -115.735389429758

DIPOLE MOMENT
-------------
                                X             Y             Z
Electronic contribution:     -0.06255      -1.70897      -0.44210
Nuclear contribution   :     -0.34465       2.23960       0.28832
                        -----------------------------------------
Total Dipole Moment    :     -0.40721       0.53064      -0.15378
                        -----------------------------------------
Magnitude (a.u.)       :      0.68632
Magnitude (Debye)      :      1.74450

Rotational constants in cm-1:     4.126737     0.807446     0.780982
Rotational constants in MHz : 123716.471501 24206.627476 23413.247604

                             ****ORCA TERMINATED NORMALLY****
TOTAL RUN TIME: 0 days 0 hours 0 minutes 51 seconds 1 msec
