                         Program Version 4.1.2  - RELEASE  -
|  1> #Run DFT-D3 single point of the dimer
|  2> ! wB97X-D3 def2-TZVP TIGHTSCF CHELPG PMODEL PAL8
|  3>
|  4> %base "12-189_DFT_AB"
|  5>
|  6> %scf
|  7> MaxIter 1000
|  8> end
|  9>
| 10> * xyz 0 1
| 11>   C                      -10.870828           -2.188710            -9.133677
| 12>   O                      -9.825208            -3.019697            -8.616828
| 13>   H                      -10.174273           -3.388339            -7.773451
| 14>   H                      -10.944124           -2.161626            -10.219072
| 15>   H                      -11.811854           -2.585806            -8.826125
| 16>   H                      -10.705842           -1.104591            -8.851052
| 17>   C                      -10.971152           -2.665389            -4.953442
| 18>   O                      -10.717473           -3.560666            -6.020242
| 19>   H                      -10.533705           -4.501108            -5.707436
| 20>   H                      -10.303741           -2.923326            -4.047030
| 21>   H                      -10.627708           -1.688875            -5.238717
| 22>   H                      -12.032232           -2.637491            -4.701038
| 23> *
| 24>
| 25> #Run DFT-D3 single point of the molecule with dimer basis set
| 26> $new_job
| 27> %base "12-189_DFT_A"
| 28> ! wB97X-D3 def2-TZVP TIGHTSCF CHELPG PMODEL
| 29>
| 30> %scf
| 31> MaxIter 1000
| 32> end
| 33>
| 34> * xyz 0 1
| 35>   C                      -10.870828           -2.188710            -9.133677
| 36>   O                      -9.825208            -3.019697            -8.616828
| 37>   H                      -10.174273           -3.388339            -7.773451
| 38>   H                      -10.944124           -2.161626            -10.219072
| 39>   H                      -11.811854           -2.585806            -8.826125
| 40>   H                      -10.705842           -1.104591            -8.851052
| 41>   C                    : -10.971152           -2.665389            -4.953442
| 42>   O                    : -10.717473           -3.560666            -6.020242
| 43>   H                    : -10.533705           -4.501108            -5.707436
| 44>   H                    : -10.303741           -2.923326            -4.047030
| 45>   H                    : -10.627708           -1.688875            -5.238717
| 46>   H                    : -12.032232           -2.637491            -4.701038
| 47> *
| 48>
| 49> #Run DFT-D3 single point of the particle with dimer basis set
| 50> $new_job
| 51> %base "12-189_DFT_B"
| 52> ! wB97X-D3 def2-TZVP TIGHTSCF CHELPG PMODEL
| 53>
| 54> %scf
| 55> MaxIter 1000
| 56> end
| 57>
| 58> * xyz 0 1
| 59>   C                    : -10.870828           -2.188710            -9.133677
| 60>   O                    : -9.825208            -3.019697            -8.616828
| 61>   H                    : -10.174273           -3.388339            -7.773451
| 62>   H                    : -10.944124           -2.161626            -10.219072
| 63>   H                    : -11.811854           -2.585806            -8.826125
| 64>   H                    : -10.705842           -1.104591            -8.851052
| 65>   C                      -10.971152           -2.665389            -4.953442
| 66>   O                      -10.717473           -3.560666            -6.020242
| 67>   H                      -10.533705           -4.501108            -5.707436
| 68>   H                      -10.303741           -2.923326            -4.047030
| 69>   H                      -10.627708           -1.688875            -5.238717
| 70>   H                      -12.032232           -2.637491            -4.701038
| 71> *
| 72>
| 73>                          ****END OF INPUT****
 Total Charge           Charge          ....    0
 Multiplicity           Mult            ....    1
 Number of Electrons    NEL             ....   36
Dispersion correction           -0.001843577
FINAL SINGLE POINT ENERGY      -231.471529509451
Dispersion correction           -0.000253325
FINAL SINGLE POINT ENERGY      -115.731630262348

CARTESIAN COORDINATES (ANGSTROEM)
---------------------------------
  C    -10.870828   -2.188710   -9.133677
  O     -9.825208   -3.019697   -8.616828
  H    -10.174273   -3.388339   -7.773451
  H    -10.944124   -2.161626  -10.219072
  H    -11.811854   -2.585806   -8.826125
  H    -10.705842   -1.104591   -8.851052
  C    -10.971152   -2.665389   -4.953442
  O    -10.717473   -3.560666   -6.020242
  H    -10.533705   -4.501108   -5.707436
  H    -10.303741   -2.923326   -4.047030
  H    -10.627708   -1.688875   -5.238717
  H    -12.032232   -2.637491   -4.701038

 Multiplicity           Mult            ....    1
 Number of Electrons    NEL             ....   18
 Basis Dimension        Dim             ....  172

ORBITAL ENERGIES
----------------

  NO   OCC          E(Eh)            E(eV)
   0   2.0000     -19.232097      -523.3320
   1   2.0000     -10.317358      -280.7496
   2   2.0000      -1.124084       -30.5879
   3   2.0000      -0.791008       -21.5244
   4   2.0000      -0.600353       -16.3364
   5   2.0000      -0.547033       -14.8855
   6   2.0000      -0.524718       -14.2783
   7   2.0000      -0.420502       -11.4424
   8   2.0000      -0.373723       -10.1695
   9   0.0000       0.097137         2.6432
  10   0.0000       0.121643         3.3101
  11   0.0000       0.149841         4.0774
  12   0.0000       0.188094         5.1183
  13   0.0000       0.199241         5.4216

MULLIKEN ATOMIC CHARGES
-----------------------
   0 C :    0.004592
   1 O :   -0.000291
   2 H :   -0.010238
   3 H :   -0.000209
   4 H :   -0.004052
   5 H :   -0.000454
   6 C :   -0.147059
   7 O :   -0.486952
   8 H :    0.322530
   9 H :    0.095865
  10 H :    0.119593
  11 H :    0.106675
Sum of atomic charges:   -0.0000000

LOEWDIN ATOMIC CHARGES
----------------------
   0 C :   -0.004253
   1 O :   -0.006892
   2 H :   -0.052695
   3 H :   -0.000046
   4 H :   -0.001732
   5 H :   -0.000103
   6 C :   -0.384377
   7 O :   -0.049183
   8 H :    0.195458
   9 H :    0.106737
  10 H :    0.101451
  11 H :    0.095637

  Mayer bond orders larger than 0.1
B(  6-C ,  7-O ) :   0.9935 B(  6-C ,  9-H ) :   0.9769 B(  6-C , 10-H ) :   0.9767
B(  6-C , 11-H ) :   0.9703 B(  7-O ,  8-H ) :   0.8846

Dispersion correction           -0.000263074
FINAL SINGLE POINT ENERGY      -115.731431041652

DIPOLE MOMENT
-------------
                                X             Y             Z
Electronic contribution:      0.18689      -0.99836      -1.46309
Nuclear contribution   :     -0.15607       0.77811       2.08903
                        -----------------------------------------
Total Dipole Moment    :      0.03082      -0.22024       0.62594
                        -----------------------------------------
Magnitude (a.u.)       :      0.66427
Magnitude (Debye)      :      1.68844

Rotational constants in cm-1:     4.159556     0.818447     0.795049
Rotational constants in MHz : 124700.351795 24536.423041 23834.978418

                             ****ORCA TERMINATED NORMALLY****
TOTAL RUN TIME: 0 days 0 hours 1 minutes 7 seconds 420 msec
