                         Program Version 4.1.2  - RELEASE  -
|  1> #Run DFT-D3 single point of the dimer
|  2> ! wB97X-D3 def2-TZVP TIGHTSCF CHELPG PMODEL PAL8
|  3>
|  4> %base "12-83_DFT_AB"
|  5>
|  6> %scf
|  7> MaxIter 1000
|  8> end
|  9>
| 10> * xyz 0 1
| 11>   C                      -4.658780            -2.037883            7.649658
| 12>   O                      -5.337638            -1.572166            6.540238
| 13>   H                      -6.235660            -1.469603            6.901389
| 14>   H                      -3.612432            -1.652803            7.614765
| 15>   H                      -5.188026            -1.588476            8.460927
| 16>   H                      -4.629709            -3.094023            7.716798
| 17>   C                      -1.227382            1.883916             7.025504
| 18>   O                      -2.109309            0.916002             6.545832
| 19>   H                      -2.994278            1.074681             6.954082
| 20>   H                      -0.626202            1.323861             7.723327
| 21>   H                      -0.625857            2.383728             6.284186
| 22>   H                      -1.719954            2.729473             7.550804
| 23> *
| 24>
| 25> #Run DFT-D3 single point of the molecule with dimer basis set
| 26> $new_job
| 27> %base "12-83_DFT_A"
| 28> ! wB97X-D3 def2-TZVP TIGHTSCF CHELPG PMODEL
| 29>
| 30> %scf
| 31> MaxIter 1000
| 32> end
| 33>
| 34> * xyz 0 1
| 35>   C                      -4.658780            -2.037883            7.649658
| 36>   O                      -5.337638            -1.572166            6.540238
| 37>   H                      -6.235660            -1.469603            6.901389
| 38>   H                      -3.612432            -1.652803            7.614765
| 39>   H                      -5.188026            -1.588476            8.460927
| 40>   H                      -4.629709            -3.094023            7.716798
| 41>   C                    : -1.227382            1.883916             7.025504
| 42>   O                    : -2.109309            0.916002             6.545832
| 43>   H                    : -2.994278            1.074681             6.954082
| 44>   H                    : -0.626202            1.323861             7.723327
| 45>   H                    : -0.625857            2.383728             6.284186
| 46>   H                    : -1.719954            2.729473             7.550804
| 47> *
| 48>
| 49> #Run DFT-D3 single point of the particle with dimer basis set
| 50> $new_job
| 51> %base "12-83_DFT_B"
| 52> ! wB97X-D3 def2-TZVP TIGHTSCF CHELPG PMODEL
| 53>
| 54> %scf
| 55> MaxIter 1000
| 56> end
| 57>
| 58> * xyz 0 1
| 59>   C                    : -4.658780            -2.037883            7.649658
| 60>   O                    : -5.337638            -1.572166            6.540238
| 61>   H                    : -6.235660            -1.469603            6.901389
| 62>   H                    : -3.612432            -1.652803            7.614765
| 63>   H                    : -5.188026            -1.588476            8.460927
| 64>   H                    : -4.629709            -3.094023            7.716798
| 65>   C                      -1.227382            1.883916             7.025504
| 66>   O                      -2.109309            0.916002             6.545832
| 67>   H                      -2.994278            1.074681             6.954082
| 68>   H                      -0.626202            1.323861             7.723327
| 69>   H                      -0.625857            2.383728             6.284186
| 70>   H                      -1.719954            2.729473             7.550804
| 71> *
| 72>
| 73>                          ****END OF INPUT****
 Total Charge           Charge          ....    0
 Multiplicity           Mult            ....    1
 Number of Electrons    NEL             ....   36
Dispersion correction           -0.001124131
FINAL SINGLE POINT ENERGY      -231.459223125768
Dispersion correction           -0.000197371
FINAL SINGLE POINT ENERGY      -115.728153874553

CARTESIAN COORDINATES (ANGSTROEM)
---------------------------------
  C     -4.658780   -2.037883    7.649658
  O     -5.337638   -1.572166    6.540238
  H     -6.235660   -1.469603    6.901389
  H     -3.612432   -1.652803    7.614765
  H     -5.188026   -1.588476    8.460927
  H     -4.629709   -3.094023    7.716798
  C     -1.227382    1.883916    7.025504
  O     -2.109309    0.916002    6.545832
  H     -2.994278    1.074681    6.954082
  H     -0.626202    1.323861    7.723327
  H     -0.625857    2.383728    6.284186
  H     -1.719954    2.729473    7.550804

 Multiplicity           Mult            ....    1
 Number of Electrons    NEL             ....   18
 Basis Dimension        Dim             ....  172

ORBITAL ENERGIES
----------------

  NO   OCC          E(Eh)            E(eV)
   0   2.0000     -19.231078      -523.3042
   1   2.0000     -10.309125      -280.5255
   2   2.0000      -1.137367       -30.9493
   3   2.0000      -0.793229       -21.5849
   4   2.0000      -0.612518       -16.6675
   5   2.0000      -0.551111       -14.9965
   6   2.0000      -0.524645       -14.2763
   7   2.0000      -0.428859       -11.6698
   8   2.0000      -0.370529       -10.0826
   9   0.0000       0.083195         2.2639
  10   0.0000       0.120112         3.2684
  11   0.0000       0.155198         4.2231
  12   0.0000       0.169743         4.6189
  13   0.0000       0.191462         5.2099

MULLIKEN ATOMIC CHARGES
-----------------------
   0 C :    0.001994
   1 O :    0.000026
   2 H :    0.000007
   3 H :   -0.006906
   4 H :    0.000083
   5 H :   -0.000248
   6 C :   -0.161996
   7 O :   -0.473354
   8 H :    0.323696
   9 H :    0.107544
  10 H :    0.110805
  11 H :    0.098350
Sum of atomic charges:    0.0000000

LOEWDIN ATOMIC CHARGES
----------------------
   0 C :   -0.001280
   1 O :   -0.000072
   2 H :   -0.000009
   3 H :   -0.003418
   4 H :   -0.000030
   5 H :   -0.000015
   6 C :   -0.401004
   7 O :   -0.076523
   8 H :    0.188543
   9 H :    0.097660
  10 H :    0.097761
  11 H :    0.098387

  Mayer bond orders larger than 0.1
B(  6-C ,  7-O ) :   1.0037 B(  6-C ,  9-H ) :   0.9876 B(  6-C , 10-H ) :   0.9671
B(  6-C , 11-H ) :   0.9830 B(  7-O ,  8-H ) :   0.8910

Dispersion correction           -0.000235605
FINAL SINGLE POINT ENERGY      -115.730261375815

DIPOLE MOMENT
-------------
                                X             Y             Z
Electronic contribution:     -1.01102      -1.28629      -0.79084
Nuclear contribution   :      0.77982       1.78688       1.23162
                        -----------------------------------------
Total Dipole Moment    :     -0.23120       0.50059       0.44078
                        -----------------------------------------
Magnitude (a.u.)       :      0.70592
Magnitude (Debye)      :      1.79432

Rotational constants in cm-1:     4.313373     0.848556     0.819580
Rotational constants in MHz : 129311.680528 25439.069501 24570.379198

                             ****ORCA TERMINATED NORMALLY****
TOTAL RUN TIME: 0 days 0 hours 0 minutes 58 seconds 127 msec
