                         Program Version 4.1.2  - RELEASE  -
|  1> #Run DFT-D3 single point of the dimer
|  2> ! wB97X-D3 def2-TZVP TIGHTSCF CHELPG PMODEL PAL8
|  3>
|  4> %base "12-181_DFT_AB"
|  5>
|  6> %scf
|  7> MaxIter 1000
|  8> end
|  9>
| 10> * xyz 0 1
| 11>   C                      2.437492             -8.573819            2.382882
| 12>   O                      2.679688             -9.867566            2.905653
| 13>   H                      2.038553             -10.523822           2.595594
| 14>   H                      3.029956             -7.822040            2.875681
| 15>   H                      2.705168             -8.531699            1.278498
| 16>   H                      1.367416             -8.249438            2.468147
| 17>   C                      4.754695             -8.150541            5.270730
| 18>   O                      4.104975             -9.335210            5.323063
| 19>   H                      3.952674             -9.690733            4.421511
| 20>   H                      5.553104             -8.139365            4.569096
| 21>   H                      4.058127             -7.356867            4.934805
| 22>   H                      5.126273             -7.952244            6.256845
| 23> *
| 24>
| 25> #Run DFT-D3 single point of the molecule with dimer basis set
| 26> $new_job
| 27> %base "12-181_DFT_A"
| 28> ! wB97X-D3 def2-TZVP TIGHTSCF CHELPG PMODEL
| 29>
| 30> %scf
| 31> MaxIter 1000
| 32> end
| 33>
| 34> * xyz 0 1
| 35>   C                      2.437492             -8.573819            2.382882
| 36>   O                      2.679688             -9.867566            2.905653
| 37>   H                      2.038553             -10.523822           2.595594
| 38>   H                      3.029956             -7.822040            2.875681
| 39>   H                      2.705168             -8.531699            1.278498
| 40>   H                      1.367416             -8.249438            2.468147
| 41>   C                    : 4.754695             -8.150541            5.270730
| 42>   O                    : 4.104975             -9.335210            5.323063
| 43>   H                    : 3.952674             -9.690733            4.421511
| 44>   H                    : 5.553104             -8.139365            4.569096
| 45>   H                    : 4.058127             -7.356867            4.934805
| 46>   H                    : 5.126273             -7.952244            6.256845
| 47> *
| 48>
| 49> #Run DFT-D3 single point of the particle with dimer basis set
| 50> $new_job
| 51> %base "12-181_DFT_B"
| 52> ! wB97X-D3 def2-TZVP TIGHTSCF CHELPG PMODEL
| 53>
| 54> %scf
| 55> MaxIter 1000
| 56> end
| 57>
| 58> * xyz 0 1
| 59>   C                    : 2.437492             -8.573819            2.382882
| 60>   O                    : 2.679688             -9.867566            2.905653
| 61>   H                    : 2.038553             -10.523822           2.595594
| 62>   H                    : 3.029956             -7.822040            2.875681
| 63>   H                    : 2.705168             -8.531699            1.278498
| 64>   H                    : 1.367416             -8.249438            2.468147
| 65>   C                      4.754695             -8.150541            5.270730
| 66>   O                      4.104975             -9.335210            5.323063
| 67>   H                      3.952674             -9.690733            4.421511
| 68>   H                      5.553104             -8.139365            4.569096
| 69>   H                      4.058127             -7.356867            4.934805
| 70>   H                      5.126273             -7.952244            6.256845
| 71> *
| 72>
| 73>                          ****END OF INPUT****
 Total Charge           Charge          ....    0
 Multiplicity           Mult            ....    1
 Number of Electrons    NEL             ....   36
Dispersion correction           -0.002066046
FINAL SINGLE POINT ENERGY      -231.474377733576
Dispersion correction           -0.000268349
FINAL SINGLE POINT ENERGY      -115.734823469669

CARTESIAN COORDINATES (ANGSTROEM)
---------------------------------
  C      2.437492   -8.573819    2.382882
  O      2.679688   -9.867566    2.905653
  H      2.038553  -10.523822    2.595594
  H      3.029956   -7.822040    2.875681
  H      2.705168   -8.531699    1.278498
  H      1.367416   -8.249438    2.468147
  C      4.754695   -8.150541    5.270730
  O      4.104975   -9.335210    5.323063
  H      3.952674   -9.690733    4.421511
  H      5.553104   -8.139365    4.569096
  H      4.058127   -7.356867    4.934805
  H      5.126273   -7.952244    6.256845

 Multiplicity           Mult            ....    1
 Number of Electrons    NEL             ....   18
 Basis Dimension        Dim             ....  172

ORBITAL ENERGIES
----------------

  NO   OCC          E(Eh)            E(eV)
   0   2.0000     -19.229841      -523.2706
   1   2.0000     -10.302843      -280.3546
   2   2.0000      -1.151481       -31.3334
   3   2.0000      -0.794384       -21.6163
   4   2.0000      -0.624620       -16.9968
   5   2.0000      -0.547448       -14.8968
   6   2.0000      -0.536025       -14.5860
   7   2.0000      -0.430651       -11.7186
   8   2.0000      -0.366766        -9.9802
   9   0.0000       0.071338         1.9412
  10   0.0000       0.137899         3.7524
  11   0.0000       0.142324         3.8728
  12   0.0000       0.184490         5.0202
  13   0.0000       0.185482         5.0472

MULLIKEN ATOMIC CHARGES
-----------------------
   0 C :   -0.005758
   1 O :   -0.003115
   2 H :   -0.000427
   3 H :    0.000780
   4 H :    0.000070
   5 H :    0.000250
   6 C :   -0.142082
   7 O :   -0.462380
   8 H :    0.316894
   9 H :    0.093901
  10 H :    0.085756
  11 H :    0.116111
Sum of atomic charges:   -0.0000000

LOEWDIN ATOMIC CHARGES
----------------------
   0 C :   -0.008244
   1 O :   -0.019498
   2 H :   -0.000937
   3 H :   -0.004539
   4 H :   -0.000111
   5 H :   -0.000105
   6 C :   -0.423122
   7 O :   -0.025945
   8 H :    0.194030
   9 H :    0.086301
  10 H :    0.096493
  11 H :    0.105677

  Mayer bond orders larger than 0.1
B(  6-C ,  7-O ) :   1.0103 B(  6-C ,  9-H ) :   0.9836 B(  6-C , 10-H ) :   0.9775
B(  6-C , 11-H ) :   0.9750 B(  7-O ,  8-H ) :   0.8940

Dispersion correction           -0.000211186
FINAL SINGLE POINT ENERGY      -115.732913808641

DIPOLE MOMENT
-------------
                                X             Y             Z
Electronic contribution:     -0.77663      -1.58046       0.25224
Nuclear contribution   :      0.94328       1.77084      -0.83591
                        -----------------------------------------
Total Dipole Moment    :      0.16665       0.19038      -0.58367
                        -----------------------------------------
Magnitude (a.u.)       :      0.63615
Magnitude (Debye)      :      1.61695

Rotational constants in cm-1:     4.333648     0.899407     0.861384
Rotational constants in MHz : 129919.492264 26963.540099 25823.632291

                             ****ORCA TERMINATED NORMALLY****
TOTAL RUN TIME: 0 days 0 hours 1 minutes 14 seconds 79 msec
