                         Program Version 4.1.2  - RELEASE  -
|  1> #Run DFT-D3 single point of the dimer
|  2> ! wB97X-D3 def2-TZVP TIGHTSCF CHELPG PMODEL PAL8
|  3>
|  4> %base "3-145_DFT_AB"
|  5>
|  6> %scf
|  7> MaxIter 1000
|  8> end
|  9>
| 10> * xyz 0 1
| 11>   C                      -3.609709            -6.212238            11.084964
| 12>   O                      -4.364734            -5.445713            10.082139
| 13>   H                      -4.900436            -4.779414            10.518448
| 14>   H                      -3.996064            -6.014864            12.063790
| 15>   H                      -3.631724            -7.334633            10.985328
| 16>   H                      -2.523652            -5.863047            11.239573
| 17>   C                      -4.510023            -7.159950            6.680864
| 18>   O                      -3.454325            -7.490819            5.818674
| 19>   H                      -3.879616            -7.916174            5.083613
| 20>   H                      -4.186711            -7.055084            7.760186
| 21>   H                      -4.975949            -6.169228            6.432347
| 22>   H                      -5.285820            -7.983903            6.634104
| 23> *
| 24>
| 25> #Run DFT-D3 single point of the molecule with dimer basis set
| 26> $new_job
| 27> %base "3-145_DFT_A"
| 28> ! wB97X-D3 def2-TZVP TIGHTSCF CHELPG PMODEL
| 29>
| 30> %scf
| 31> MaxIter 1000
| 32> end
| 33>
| 34> * xyz 0 1
| 35>   C                      -3.609709            -6.212238            11.084964
| 36>   O                      -4.364734            -5.445713            10.082139
| 37>   H                      -4.900436            -4.779414            10.518448
| 38>   H                      -3.996064            -6.014864            12.063790
| 39>   H                      -3.631724            -7.334633            10.985328
| 40>   H                      -2.523652            -5.863047            11.239573
| 41>   C                    : -4.510023            -7.159950            6.680864
| 42>   O                    : -3.454325            -7.490819            5.818674
| 43>   H                    : -3.879616            -7.916174            5.083613
| 44>   H                    : -4.186711            -7.055084            7.760186
| 45>   H                    : -4.975949            -6.169228            6.432347
| 46>   H                    : -5.285820            -7.983903            6.634104
| 47> *
| 48>
| 49> #Run DFT-D3 single point of the particle with dimer basis set
| 50> $new_job
| 51> %base "3-145_DFT_B"
| 52> ! wB97X-D3 def2-TZVP TIGHTSCF CHELPG PMODEL
| 53>
| 54> %scf
| 55> MaxIter 1000
| 56> end
| 57>
| 58> * xyz 0 1
| 59>   C                    : -3.609709            -6.212238            11.084964
| 60>   O                    : -4.364734            -5.445713            10.082139
| 61>   H                    : -4.900436            -4.779414            10.518448
| 62>   H                    : -3.996064            -6.014864            12.063790
| 63>   H                    : -3.631724            -7.334633            10.985328
| 64>   H                    : -2.523652            -5.863047            11.239573
| 65>   C                      -4.510023            -7.159950            6.680864
| 66>   O                      -3.454325            -7.490819            5.818674
| 67>   H                      -3.879616            -7.916174            5.083613
| 68>   H                      -4.186711            -7.055084            7.760186
| 69>   H                      -4.975949            -6.169228            6.432347
| 70>   H                      -5.285820            -7.983903            6.634104
| 71> *
| 72>
| 73>                          ****END OF INPUT****
 Total Charge           Charge          ....    0
 Multiplicity           Mult            ....    1
 Number of Electrons    NEL             ....   36
Dispersion correction           -0.001277881
FINAL SINGLE POINT ENERGY      -231.460186073571
Dispersion correction           -0.000298218
FINAL SINGLE POINT ENERGY      -115.726014417804

CARTESIAN COORDINATES (ANGSTROEM)
---------------------------------
  C     -3.609709   -6.212238   11.084964
  O     -4.364734   -5.445713   10.082139
  H     -4.900436   -4.779414   10.518448
  H     -3.996064   -6.014864   12.063790
  H     -3.631724   -7.334633   10.985328
  H     -2.523652   -5.863047   11.239573
  C     -4.510023   -7.159950    6.680864
  O     -3.454325   -7.490819    5.818674
  H     -3.879616   -7.916174    5.083613
  H     -4.186711   -7.055084    7.760186
  H     -4.975949   -6.169228    6.432347
  H     -5.285820   -7.983903    6.634104

 Multiplicity           Mult            ....    1
 Number of Electrons    NEL             ....   18
 Basis Dimension        Dim             ....  172

ORBITAL ENERGIES
----------------

  NO   OCC          E(Eh)            E(eV)
   0   2.0000     -19.232317      -523.3380
   1   2.0000     -10.324433      -280.9421
   2   2.0000      -1.146227       -31.1904
   3   2.0000      -0.786485       -21.4014
   4   2.0000      -0.611804       -16.6480
   5   2.0000      -0.540792       -14.7157
   6   2.0000      -0.528813       -14.3897
   7   2.0000      -0.432291       -11.7632
   8   2.0000      -0.373550       -10.1648
   9   0.0000       0.083512         2.2725
  10   0.0000       0.113952         3.1008
  11   0.0000       0.150212         4.0875
  12   0.0000       0.163866         4.4590
  13   0.0000       0.187492         5.1019

MULLIKEN ATOMIC CHARGES
-----------------------
   0 C :    0.000180
   1 O :    0.000049
   2 H :   -0.000021
   3 H :   -0.000000
   4 H :   -0.000225
   5 H :   -0.000065
   6 C :   -0.176129
   7 O :   -0.457334
   8 H :    0.316836
   9 H :    0.118786
  10 H :    0.098340
  11 H :    0.099583
Sum of atomic charges:   -0.0000000

LOEWDIN ATOMIC CHARGES
----------------------
   0 C :   -0.001620
   1 O :   -0.001884
   2 H :   -0.000104
   3 H :   -0.000021
   4 H :   -0.000335
   5 H :   -0.000027
   6 C :   -0.409166
   7 O :   -0.064763
   8 H :    0.166770
   9 H :    0.112949
  10 H :    0.097615
  11 H :    0.100587

  Mayer bond orders larger than 0.1
B(  6-C ,  7-O ) :   1.0104 B(  6-C ,  9-H ) :   0.9712 B(  6-C , 10-H ) :   0.9693
B(  6-C , 11-H ) :   0.9854 B(  7-O ,  8-H ) :   0.9007

Dispersion correction           -0.000243340
FINAL SINGLE POINT ENERGY      -115.732723524152

DIPOLE MOMENT
-------------
                                X             Y             Z
Electronic contribution:      1.55318      -0.37432      -1.07783
Nuclear contribution   :     -2.20639       0.22033       0.94262
                        -----------------------------------------
Total Dipole Moment    :     -0.65321      -0.15399      -0.13522
                        -----------------------------------------
Magnitude (a.u.)       :      0.68460
Magnitude (Debye)      :      1.74012

Rotational constants in cm-1:     4.103020     0.837664     0.806303
Rotational constants in MHz : 123005.443512 25112.548404 24172.345468

                             ****ORCA TERMINATED NORMALLY****
TOTAL RUN TIME: 0 days 0 hours 6 minutes 21 seconds 779 msec
