                         Program Version 4.1.2  - RELEASE  -
|  1> #Run DFT-D3 single point of the dimer
|  2> ! wB97X-D3 def2-TZVP TIGHTSCF CHELPG PMODEL PAL8
|  3>
|  4> %base "20-65_DFT_AB"
|  5>
|  6> %scf
|  7> MaxIter 1000
|  8> end
|  9>
| 10> * xyz 0 1
| 11>   C                      0.659082             8.615269             -3.643497
| 12>   O                      0.571755             9.841283             -3.042450
| 13>   H                      0.633439             10.539445            -3.712564
| 14>   H                      1.490287             8.549697             -4.355124
| 15>   H                      0.762765             7.880298             -2.852222
| 16>   H                      -0.254403            8.351689             -4.285406
| 17>   C                      0.829014             9.682152             -8.392368
| 18>   O                      0.042463             9.828848             -7.232744
| 19>   H                      -0.519026            9.064280             -7.065889
| 20>   H                      0.225105             9.659612             -9.356101
| 21>   H                      1.633908             10.448807            -8.471243
| 22>   H                      1.253393             8.698865             -8.328509
| 23> *
| 24>
| 25> #Run DFT-D3 single point of the molecule with dimer basis set
| 26> $new_job
| 27> %base "20-65_DFT_A"
| 28> ! wB97X-D3 def2-TZVP TIGHTSCF CHELPG PMODEL
| 29>
| 30> %scf
| 31> MaxIter 1000
| 32> end
| 33>
| 34> * xyz 0 1
| 35>   C                      0.659082             8.615269             -3.643497
| 36>   O                      0.571755             9.841283             -3.042450
| 37>   H                      0.633439             10.539445            -3.712564
| 38>   H                      1.490287             8.549697             -4.355124
| 39>   H                      0.762765             7.880298             -2.852222
| 40>   H                      -0.254403            8.351689             -4.285406
| 41>   C                    : 0.829014             9.682152             -8.392368
| 42>   O                    : 0.042463             9.828848             -7.232744
| 43>   H                    : -0.519026            9.064280             -7.065889
| 44>   H                    : 0.225105             9.659612             -9.356101
| 45>   H                    : 1.633908             10.448807            -8.471243
| 46>   H                    : 1.253393             8.698865             -8.328509
| 47> *
| 48>
| 49> #Run DFT-D3 single point of the particle with dimer basis set
| 50> $new_job
| 51> %base "20-65_DFT_B"
| 52> ! wB97X-D3 def2-TZVP TIGHTSCF CHELPG PMODEL
| 53>
| 54> %scf
| 55> MaxIter 1000
| 56> end
| 57>
| 58> * xyz 0 1
| 59>   C                    : 0.659082             8.615269             -3.643497
| 60>   O                    : 0.571755             9.841283             -3.042450
| 61>   H                    : 0.633439             10.539445            -3.712564
| 62>   H                    : 1.490287             8.549697             -4.355124
| 63>   H                    : 0.762765             7.880298             -2.852222
| 64>   H                    : -0.254403            8.351689             -4.285406
| 65>   C                      0.829014             9.682152             -8.392368
| 66>   O                      0.042463             9.828848             -7.232744
| 67>   H                      -0.519026            9.064280             -7.065889
| 68>   H                      0.225105             9.659612             -9.356101
| 69>   H                      1.633908             10.448807            -8.471243
| 70>   H                      1.253393             8.698865             -8.328509
| 71> *
| 72>
| 73>                          ****END OF INPUT****
 Total Charge           Charge          ....    0
 Multiplicity           Mult            ....    1
 Number of Electrons    NEL             ....   36
Dispersion correction           -0.001349214
FINAL SINGLE POINT ENERGY      -231.468900990455
Dispersion correction           -0.000234560
FINAL SINGLE POINT ENERGY      -115.734261188161

CARTESIAN COORDINATES (ANGSTROEM)
---------------------------------
  C      0.659082    8.615269   -3.643497
  O      0.571755    9.841283   -3.042450
  H      0.633439   10.539445   -3.712564
  H      1.490287    8.549697   -4.355124
  H      0.762765    7.880298   -2.852222
  H     -0.254403    8.351689   -4.285406
  C      0.829014    9.682152   -8.392368
  O      0.042463    9.828848   -7.232744
  H     -0.519026    9.064280   -7.065889
  H      0.225105    9.659612   -9.356101
  H      1.633908   10.448807   -8.471243
  H      1.253393    8.698865   -8.328509

 Multiplicity           Mult            ....    1
 Number of Electrons    NEL             ....   18
 Basis Dimension        Dim             ....  172

ORBITAL ENERGIES
----------------

  NO   OCC          E(Eh)            E(eV)
   0   2.0000     -19.228923      -523.2456
   1   2.0000     -10.318575      -280.7827
   2   2.0000      -1.135173       -30.8896
   3   2.0000      -0.793800       -21.6004
   4   2.0000      -0.613581       -16.6964
   5   2.0000      -0.537562       -14.6278
   6   2.0000      -0.530962       -14.4482
   7   2.0000      -0.428565       -11.6619
   8   2.0000      -0.369278       -10.0486
   9   0.0000       0.086937         2.3657
  10   0.0000       0.124821         3.3965
  11   0.0000       0.150281         4.0894
  12   0.0000       0.173735         4.7276
  13   0.0000       0.195578         5.3219

MULLIKEN ATOMIC CHARGES
-----------------------
   0 C :    0.000998
   1 O :    0.000297
   2 H :   -0.001262
   3 H :   -0.002540
   4 H :   -0.000443
   5 H :   -0.002734
   6 C :   -0.153955
   7 O :   -0.481597
   8 H :    0.320444
   9 H :    0.092980
  10 H :    0.123462
  11 H :    0.104351
Sum of atomic charges:   -0.0000000

LOEWDIN ATOMIC CHARGES
----------------------
   0 C :   -0.003784
   1 O :   -0.000042
   2 H :   -0.000889
   3 H :   -0.001396
   4 H :   -0.000073
   5 H :   -0.001479
   6 C :   -0.390635
   7 O :   -0.075016
   8 H :    0.170706
   9 H :    0.099144
  10 H :    0.112723
  11 H :    0.090742

  Mayer bond orders larger than 0.1
B(  6-C ,  7-O ) :   0.9918 B(  6-C ,  9-H ) :   0.9686 B(  6-C , 10-H ) :   0.9694
B(  6-C , 11-H ) :   0.9886 B(  7-O ,  8-H ) :   0.8910

Dispersion correction           -0.000246467
FINAL SINGLE POINT ENERGY      -115.732217880960

DIPOLE MOMENT
-------------
                                X             Y             Z
Electronic contribution:     -0.90486       0.40478       1.52402
Nuclear contribution   :      0.87565      -0.97627      -1.87927
                        -----------------------------------------
Total Dipole Moment    :     -0.02920      -0.57149      -0.35525
                        -----------------------------------------
Magnitude (a.u.)       :      0.67354
Magnitude (Debye)      :      1.71200

Rotational constants in cm-1:     4.273617     0.830471     0.795947
Rotational constants in MHz : 128119.822414 24896.884942 23861.891387

                             ****ORCA TERMINATED NORMALLY****
TOTAL RUN TIME: 0 days 0 hours 1 minutes 2 seconds 503 msec
