                         Program Version 4.1.2  - RELEASE  -
|  1> #Run DFT-D3 single point of the dimer
|  2> ! wB97X-D3 def2-TZVP TIGHTSCF CHELPG PMODEL PAL8
|  3>
|  4> %base "4-51_DFT_AB"
|  5>
|  6> %scf
|  7> MaxIter 1000
|  8> end
|  9>
| 10> * xyz 0 1
| 11>   C                      4.599833             1.923888             6.602593
| 12>   O                      3.786116             2.729609             7.484004
| 13>   H                      3.607876             3.440949             6.897519
| 14>   H                      5.455821             2.534420             6.223668
| 15>   H                      5.103900             1.124986             7.097621
| 16>   H                      4.070648             1.512387             5.743250
| 17>   C                      5.023588             1.184366             10.193513
| 18>   O                      5.627676             -0.004698            10.727997
| 19>   H                      6.586629             0.186118             10.765500
| 20>   H                      5.248314             2.094102             10.890005
| 21>   H                      5.363865             1.354548             9.140093
| 22>   H                      3.958818             1.085660             10.095453
| 23> *
| 24>
| 25> #Run DFT-D3 single point of the molecule with dimer basis set
| 26> $new_job
| 27> %base "4-51_DFT_A"
| 28> ! wB97X-D3 def2-TZVP TIGHTSCF CHELPG PMODEL
| 29>
| 30> %scf
| 31> MaxIter 1000
| 32> end
| 33>
| 34> * xyz 0 1
| 35>   C                      4.599833             1.923888             6.602593
| 36>   O                      3.786116             2.729609             7.484004
| 37>   H                      3.607876             3.440949             6.897519
| 38>   H                      5.455821             2.534420             6.223668
| 39>   H                      5.103900             1.124986             7.097621
| 40>   H                      4.070648             1.512387             5.743250
| 41>   C                    : 5.023588             1.184366             10.193513
| 42>   O                    : 5.627676             -0.004698            10.727997
| 43>   H                    : 6.586629             0.186118             10.765500
| 44>   H                    : 5.248314             2.094102             10.890005
| 45>   H                    : 5.363865             1.354548             9.140093
| 46>   H                    : 3.958818             1.085660             10.095453
| 47> *
| 48>
| 49> #Run DFT-D3 single point of the particle with dimer basis set
| 50> $new_job
| 51> %base "4-51_DFT_B"
| 52> ! wB97X-D3 def2-TZVP TIGHTSCF CHELPG PMODEL
| 53>
| 54> %scf
| 55> MaxIter 1000
| 56> end
| 57>
| 58> * xyz 0 1
| 59>   C                    : 4.599833             1.923888             6.602593
| 60>   O                    : 3.786116             2.729609             7.484004
| 61>   H                    : 3.607876             3.440949             6.897519
| 62>   H                    : 5.455821             2.534420             6.223668
| 63>   H                    : 5.103900             1.124986             7.097621
| 64>   H                    : 4.070648             1.512387             5.743250
| 65>   C                      5.023588             1.184366             10.193513
| 66>   O                      5.627676             -0.004698            10.727997
| 67>   H                      6.586629             0.186118             10.765500
| 68>   H                      5.248314             2.094102             10.890005
| 69>   H                      5.363865             1.354548             9.140093
| 70>   H                      3.958818             1.085660             10.095453
| 71> *
| 72>
| 73>                          ****END OF INPUT****
 Total Charge           Charge          ....    0
 Multiplicity           Mult            ....    1
 Number of Electrons    NEL             ....   36
Dispersion correction           -0.001784533
FINAL SINGLE POINT ENERGY      -231.464227619540
Dispersion correction           -0.000234917
FINAL SINGLE POINT ENERGY      -115.731450629494

CARTESIAN COORDINATES (ANGSTROEM)
---------------------------------
  C      4.599833    1.923888    6.602593
  O      3.786116    2.729609    7.484004
  H      3.607876    3.440949    6.897519
  H      5.455821    2.534420    6.223668
  H      5.103900    1.124986    7.097621
  H      4.070648    1.512387    5.743250
  C      5.023588    1.184366   10.193513
  O      5.627676   -0.004698   10.727997
  H      6.586629    0.186118   10.765500
  H      5.248314    2.094102   10.890005
  H      5.363865    1.354548    9.140093
  H      3.958818    1.085660   10.095453

 Multiplicity           Mult            ....    1
 Number of Electrons    NEL             ....   18
 Basis Dimension        Dim             ....  172

ORBITAL ENERGIES
----------------

  NO   OCC          E(Eh)            E(eV)
   0   2.0000     -19.233607      -523.3731
   1   2.0000     -10.323645      -280.9207
   2   2.0000      -1.128092       -30.6969
   3   2.0000      -0.789402       -21.4807
   4   2.0000      -0.598151       -16.2765
   5   2.0000      -0.537707       -14.6317
   6   2.0000      -0.527230       -14.3467
   7   2.0000      -0.432865       -11.7788
   8   2.0000      -0.373917       -10.1748
   9   0.0000       0.083413         2.2698
  10   0.0000       0.113729         3.0947
  11   0.0000       0.151955         4.1349
  12   0.0000       0.166376         4.5273
  13   0.0000       0.187266         5.0958

MULLIKEN ATOMIC CHARGES
-----------------------
   0 C :   -0.007936
   1 O :   -0.000299
   2 H :   -0.000211
   3 H :    0.000393
   4 H :    0.007233
   5 H :    0.000139
   6 C :   -0.179316
   7 O :   -0.471556
   8 H :    0.317740
   9 H :    0.106024
  10 H :    0.100714
  11 H :    0.127075
Sum of atomic charges:    0.0000000

LOEWDIN ATOMIC CHARGES
----------------------
   0 C :   -0.011746
   1 O :   -0.002875
   2 H :   -0.000149
   3 H :   -0.000271
   4 H :   -0.007201
   5 H :   -0.000133
   6 C :   -0.377524
   7 O :   -0.100748
   8 H :    0.179586
   9 H :    0.108079
  10 H :    0.109475
  11 H :    0.103508

  Mayer bond orders larger than 0.1
B(  6-C ,  7-O ) :   0.9951 B(  6-C ,  9-H ) :   0.9719 B(  6-C , 10-H ) :   0.9738
B(  6-C , 11-H ) :   0.9700 B(  7-O ,  8-H ) :   0.8972

Dispersion correction           -0.000256937
FINAL SINGLE POINT ENERGY      -115.731848102599

DIPOLE MOMENT
-------------
                                X             Y             Z
Electronic contribution:      0.58216      -1.64338       0.70178
Nuclear contribution   :     -0.25593       2.20527      -0.90165
                        -----------------------------------------
Total Dipole Moment    :      0.32623       0.56189      -0.19987
                        -----------------------------------------
Magnitude (a.u.)       :      0.67977
Magnitude (Debye)      :      1.72785

Rotational constants in cm-1:     4.069501     0.801842     0.781460
Rotational constants in MHz : 122000.561465 24038.633116 23427.584226

                             ****ORCA TERMINATED NORMALLY****
TOTAL RUN TIME: 0 days 0 hours 1 minutes 28 seconds 596 msec
