                         Program Version 4.1.2  - RELEASE  -
|  1> #Run DFT-D3 single point of the dimer
|  2> ! wB97X-D3 def2-TZVP TIGHTSCF CHELPG PMODEL PAL8
|  3>
|  4> %base "10-178_DFT_AB"
|  5>
|  6> %scf
|  7> MaxIter 1000
|  8> end
|  9>
| 10> * xyz 0 1
| 11>   C                      -4.577922            7.549913             -6.259814
| 12>   O                      -5.822441            8.040496             -5.765704
| 13>   H                      -6.112907            8.734380             -6.371668
| 14>   H                      -3.982501            6.991980             -5.461943
| 15>   H                      -4.767267            6.902026             -7.134338
| 16>   H                      -3.949636            8.337608             -6.698863
| 17>   C                      -6.288479            10.601294            -8.344791
| 18>   O                      -7.071195            9.587159             -7.758031
| 19>   H                      -7.987267            9.886105             -7.871034
| 20>   H                      -6.472828            11.539576            -7.794615
| 21>   H                      -5.195671            10.418681            -8.199799
| 22>   H                      -6.465789            10.708528            -9.434871
| 23> *
| 24>
| 25> #Run DFT-D3 single point of the molecule with dimer basis set
| 26> $new_job
| 27> %base "10-178_DFT_A"
| 28> ! wB97X-D3 def2-TZVP TIGHTSCF CHELPG PMODEL
| 29>
| 30> %scf
| 31> MaxIter 1000
| 32> end
| 33>
| 34> * xyz 0 1
| 35>   C                      -4.577922            7.549913             -6.259814
| 36>   O                      -5.822441            8.040496             -5.765704
| 37>   H                      -6.112907            8.734380             -6.371668
| 38>   H                      -3.982501            6.991980             -5.461943
| 39>   H                      -4.767267            6.902026             -7.134338
| 40>   H                      -3.949636            8.337608             -6.698863
| 41>   C                    : -6.288479            10.601294            -8.344791
| 42>   O                    : -7.071195            9.587159             -7.758031
| 43>   H                    : -7.987267            9.886105             -7.871034
| 44>   H                    : -6.472828            11.539576            -7.794615
| 45>   H                    : -5.195671            10.418681            -8.199799
| 46>   H                    : -6.465789            10.708528            -9.434871
| 47> *
| 48>
| 49> #Run DFT-D3 single point of the particle with dimer basis set
| 50> $new_job
| 51> %base "10-178_DFT_B"
| 52> ! wB97X-D3 def2-TZVP TIGHTSCF CHELPG PMODEL
| 53>
| 54> %scf
| 55> MaxIter 1000
| 56> end
| 57>
| 58> * xyz 0 1
| 59>   C                    : -4.577922            7.549913             -6.259814
| 60>   O                    : -5.822441            8.040496             -5.765704
| 61>   H                    : -6.112907            8.734380             -6.371668
| 62>   H                    : -3.982501            6.991980             -5.461943
| 63>   H                    : -4.767267            6.902026             -7.134338
| 64>   H                    : -3.949636            8.337608             -6.698863
| 65>   C                      -6.288479            10.601294            -8.344791
| 66>   O                      -7.071195            9.587159             -7.758031
| 67>   H                      -7.987267            9.886105             -7.871034
| 68>   H                      -6.472828            11.539576            -7.794615
| 69>   H                      -5.195671            10.418681            -8.199799
| 70>   H                      -6.465789            10.708528            -9.434871
| 71> *
| 72>
| 73>                          ****END OF INPUT****
 Total Charge           Charge          ....    0
 Multiplicity           Mult            ....    1
 Number of Electrons    NEL             ....   36
Dispersion correction           -0.001909729
FINAL SINGLE POINT ENERGY      -231.475251154161
Dispersion correction           -0.000248812
FINAL SINGLE POINT ENERGY      -115.733343654684

CARTESIAN COORDINATES (ANGSTROEM)
---------------------------------
  C     -4.577922    7.549913   -6.259814
  O     -5.822441    8.040496   -5.765704
  H     -6.112907    8.734380   -6.371668
  H     -3.982501    6.991980   -5.461943
  H     -4.767267    6.902026   -7.134338
  H     -3.949636    8.337608   -6.698863
  C     -6.288479   10.601294   -8.344791
  O     -7.071195    9.587159   -7.758031
  H     -7.987267    9.886105   -7.871034
  H     -6.472828   11.539576   -7.794615
  H     -5.195671   10.418681   -8.199799
  H     -6.465789   10.708528   -9.434871

 Multiplicity           Mult            ....    1
 Number of Electrons    NEL             ....   18
 Basis Dimension        Dim             ....  172

ORBITAL ENERGIES
----------------

  NO   OCC          E(Eh)            E(eV)
   0   2.0000     -19.233038      -523.3576
   1   2.0000     -10.317813      -280.7620
   2   2.0000      -1.138969       -30.9929
   3   2.0000      -0.789421       -21.4812
   4   2.0000      -0.606834       -16.5128
   5   2.0000      -0.546939       -14.8830
   6   2.0000      -0.526745       -14.3335
   7   2.0000      -0.430940       -11.7265
   8   2.0000      -0.374787       -10.1985
   9   0.0000       0.097286         2.6473
  10   0.0000       0.123074         3.3490
  11   0.0000       0.151902         4.1335
  12   0.0000       0.188923         5.1409
  13   0.0000       0.199866         5.4386

MULLIKEN ATOMIC CHARGES
-----------------------
   0 C :    0.001737
   1 O :    0.001720
   2 H :   -0.011702
   3 H :   -0.000073
   4 H :   -0.000944
   5 H :   -0.000739
   6 C :   -0.177159
   7 O :   -0.462260
   8 H :    0.314426
   9 H :    0.105757
  10 H :    0.122362
  11 H :    0.106877
Sum of atomic charges:   -0.0000000

LOEWDIN ATOMIC CHARGES
----------------------
   0 C :   -0.002373
   1 O :   -0.006522
   2 H :   -0.044911
   3 H :   -0.000027
   4 H :   -0.000326
   5 H :   -0.000916
   6 C :   -0.395683
   7 O :   -0.035676
   8 H :    0.177262
   9 H :    0.097066
  10 H :    0.113930
  11 H :    0.098177

  Mayer bond orders larger than 0.1
B(  6-C ,  7-O ) :   0.9847 B(  6-C ,  9-H ) :   0.9815 B(  6-C , 10-H ) :   0.9753
B(  6-C , 11-H ) :   0.9656 B(  7-O ,  8-H ) :   0.8961

Dispersion correction           -0.000234037
FINAL SINGLE POINT ENERGY      -115.735228434868

DIPOLE MOMENT
-------------
                                X             Y             Z
Electronic contribution:     -0.92414      -1.43549       0.73931
Nuclear contribution   :      0.66771       2.01383      -1.03049
                        -----------------------------------------
Total Dipole Moment    :     -0.25644       0.57834      -0.29118
                        -----------------------------------------
Magnitude (a.u.)       :      0.69643
Magnitude (Debye)      :      1.77020

Rotational constants in cm-1:     4.166403     0.832485     0.807005
Rotational constants in MHz : 124905.612593 24957.281733 24193.400680

                             ****ORCA TERMINATED NORMALLY****
TOTAL RUN TIME: 0 days 0 hours 1 minutes 7 seconds 305 msec
