                         Program Version 4.1.2  - RELEASE  -
|  1> #Run DFT-D3 single point of the dimer
|  2> ! wB97X-D3 def2-TZVP TIGHTSCF CHELPG PMODEL PAL8
|  3>
|  4> %base "17-69_DFT_AB"
|  5>
|  6> %scf
|  7> MaxIter 1000
|  8> end
|  9>
| 10> * xyz 0 1
| 11>   C                      3.428928             8.666497             5.285069
| 12>   O                      4.762131             8.230754             5.347500
| 13>   H                      4.851017             7.570642             4.577961
| 14>   H                      3.003292             8.738284             4.342669
| 15>   H                      2.793504             7.932422             5.811546
| 16>   H                      3.320919             9.639837             5.807513
| 17>   C                      3.648857             4.630146             4.165527
| 18>   O                      4.432178             5.505500             5.003253
| 19>   H                      5.250910             5.085369             5.237563
| 20>   H                      2.797323             5.084001             3.737775
| 21>   H                      4.224799             4.180784             3.353114
| 22>   H                      3.205254             3.862384             4.819148
| 23> *
| 24>
| 25> #Run DFT-D3 single point of the molecule with dimer basis set
| 26> $new_job
| 27> %base "17-69_DFT_A"
| 28> ! wB97X-D3 def2-TZVP TIGHTSCF CHELPG PMODEL
| 29>
| 30> %scf
| 31> MaxIter 1000
| 32> end
| 33>
| 34> * xyz 0 1
| 35>   C                      3.428928             8.666497             5.285069
| 36>   O                      4.762131             8.230754             5.347500
| 37>   H                      4.851017             7.570642             4.577961
| 38>   H                      3.003292             8.738284             4.342669
| 39>   H                      2.793504             7.932422             5.811546
| 40>   H                      3.320919             9.639837             5.807513
| 41>   C                    : 3.648857             4.630146             4.165527
| 42>   O                    : 4.432178             5.505500             5.003253
| 43>   H                    : 5.250910             5.085369             5.237563
| 44>   H                    : 2.797323             5.084001             3.737775
| 45>   H                    : 4.224799             4.180784             3.353114
| 46>   H                    : 3.205254             3.862384             4.819148
| 47> *
| 48>
| 49> #Run DFT-D3 single point of the particle with dimer basis set
| 50> $new_job
| 51> %base "17-69_DFT_B"
| 52> ! wB97X-D3 def2-TZVP TIGHTSCF CHELPG PMODEL
| 53>
| 54> %scf
| 55> MaxIter 1000
| 56> end
| 57>
| 58> * xyz 0 1
| 59>   C                    : 3.428928             8.666497             5.285069
| 60>   O                    : 4.762131             8.230754             5.347500
| 61>   H                    : 4.851017             7.570642             4.577961
| 62>   H                    : 3.003292             8.738284             4.342669
| 63>   H                    : 2.793504             7.932422             5.811546
| 64>   H                    : 3.320919             9.639837             5.807513
| 65>   C                      3.648857             4.630146             4.165527
| 66>   O                      4.432178             5.505500             5.003253
| 67>   H                      5.250910             5.085369             5.237563
| 68>   H                      2.797323             5.084001             3.737775
| 69>   H                      4.224799             4.180784             3.353114
| 70>   H                      3.205254             3.862384             4.819148
| 71> *
| 72>
| 73>                          ****END OF INPUT****
 Total Charge           Charge          ....    0
 Multiplicity           Mult            ....    1
 Number of Electrons    NEL             ....   36
Dispersion correction           -0.001886713
FINAL SINGLE POINT ENERGY      -231.465974850225
Dispersion correction           -0.000231716
FINAL SINGLE POINT ENERGY      -115.729958358192

CARTESIAN COORDINATES (ANGSTROEM)
---------------------------------
  C      3.428928    8.666497    5.285069
  O      4.762131    8.230754    5.347500
  H      4.851017    7.570642    4.577961
  H      3.003292    8.738284    4.342669
  H      2.793504    7.932422    5.811546
  H      3.320919    9.639837    5.807513
  C      3.648857    4.630146    4.165527
  O      4.432178    5.505500    5.003253
  H      5.250910    5.085369    5.237563
  H      2.797323    5.084001    3.737775
  H      4.224799    4.180784    3.353114
  H      3.205254    3.862384    4.819148

 Multiplicity           Mult            ....    1
 Number of Electrons    NEL             ....   18
 Basis Dimension        Dim             ....  172

ORBITAL ENERGIES
----------------

  NO   OCC          E(Eh)            E(eV)
   0   2.0000     -19.229129      -523.2512
   1   2.0000     -10.312520      -280.6179
   2   2.0000      -1.128400       -30.7053
   3   2.0000      -0.802887       -21.8477
   4   2.0000      -0.605307       -16.4712
   5   2.0000      -0.540887       -14.7183
   6   2.0000      -0.532237       -14.4829
   7   2.0000      -0.432234       -11.7617
   8   2.0000      -0.374285       -10.1848
   9   0.0000       0.099863         2.7174
  10   0.0000       0.128885         3.5072
  11   0.0000       0.149703         4.0736
  12   0.0000       0.193127         5.2552
  13   0.0000       0.200537         5.4569

MULLIKEN ATOMIC CHARGES
-----------------------
   0 C :    0.002505
   1 O :    0.006047
   2 H :   -0.015496
   3 H :   -0.000926
   4 H :   -0.003710
   5 H :   -0.000225
   6 C :   -0.165312
   7 O :   -0.475337
   8 H :    0.313520
   9 H :    0.126218
  10 H :    0.108001
  11 H :    0.104716
Sum of atomic charges:    0.0000000

LOEWDIN ATOMIC CHARGES
----------------------
   0 C :   -0.006573
   1 O :   -0.009768
   2 H :   -0.028327
   3 H :   -0.000180
   4 H :   -0.002278
   5 H :   -0.000079
   6 C :   -0.357347
   7 O :   -0.054165
   8 H :    0.160345
   9 H :    0.100052
  10 H :    0.097378
  11 H :    0.100942

  Mayer bond orders larger than 0.1
B(  6-C ,  7-O ) :   0.9868 B(  6-C ,  9-H ) :   0.9742 B(  6-C , 10-H ) :   0.9738
B(  6-C , 11-H ) :   0.9797 B(  7-O ,  8-H ) :   0.8986

Dispersion correction           -0.000254395
FINAL SINGLE POINT ENERGY      -115.733162757637

DIPOLE MOMENT
-------------
                                X             Y             Z
Electronic contribution:      0.91215       1.24305       0.95363
Nuclear contribution   :     -0.73833      -1.88623      -1.16557
                        -----------------------------------------
Total Dipole Moment    :      0.17382      -0.64318      -0.21194
                        -----------------------------------------
Magnitude (a.u.)       :      0.69915
Magnitude (Debye)      :      1.77710

Rotational constants in cm-1:     4.454328     0.797931     0.776588
Rotational constants in MHz : 133537.400218 23921.366193 23281.516971

                             ****ORCA TERMINATED NORMALLY****
TOTAL RUN TIME: 0 days 0 hours 1 minutes 11 seconds 843 msec
