                         Program Version 4.1.2  - RELEASE  -
|  1> #Run DFT-D3 single point of the dimer
|  2> ! wB97X-D3 def2-TZVP TIGHTSCF CHELPG PMODEL PAL8
|  3>
|  4> %base "20-209_DFT_AB"
|  5>
|  6> %scf
|  7> MaxIter 1000
|  8> end
|  9>
| 10> * xyz 0 1
| 11>   C                      5.421601             2.703210             -10.180060
| 12>   O                      5.608552             1.804198             -11.122969
| 13>   H                      6.310818             1.332435             -10.691831
| 14>   H                      6.405950             3.097264             -9.888662
| 15>   H                      4.898594             3.542927             -10.643198
| 16>   H                      4.797134             2.230353             -9.310910
| 17>   C                      6.675724             -0.882406            -10.583256
| 18>   O                      7.626104             0.160383             -10.565423
| 19>   H                      8.464580             -0.106487            -11.018586
| 20>   H                      7.195414             -1.819896            -10.391075
| 21>   H                      5.801201             -0.758020            -9.898554
| 22>   H                      6.280561             -0.935155            -11.523284
| 23> *
| 24>
| 25> #Run DFT-D3 single point of the molecule with dimer basis set
| 26> $new_job
| 27> %base "20-209_DFT_A"
| 28> ! wB97X-D3 def2-TZVP TIGHTSCF CHELPG PMODEL
| 29>
| 30> %scf
| 31> MaxIter 1000
| 32> end
| 33>
| 34> * xyz 0 1
| 35>   C                      5.421601             2.703210             -10.180060
| 36>   O                      5.608552             1.804198             -11.122969
| 37>   H                      6.310818             1.332435             -10.691831
| 38>   H                      6.405950             3.097264             -9.888662
| 39>   H                      4.898594             3.542927             -10.643198
| 40>   H                      4.797134             2.230353             -9.310910
| 41>   C                    : 6.675724             -0.882406            -10.583256
| 42>   O                    : 7.626104             0.160383             -10.565423
| 43>   H                    : 8.464580             -0.106487            -11.018586
| 44>   H                    : 7.195414             -1.819896            -10.391075
| 45>   H                    : 5.801201             -0.758020            -9.898554
| 46>   H                    : 6.280561             -0.935155            -11.523284
| 47> *
| 48>
| 49> #Run DFT-D3 single point of the particle with dimer basis set
| 50> $new_job
| 51> %base "20-209_DFT_B"
| 52> ! wB97X-D3 def2-TZVP TIGHTSCF CHELPG PMODEL
| 53>
| 54> %scf
| 55> MaxIter 1000
| 56> end
| 57>
| 58> * xyz 0 1
| 59>   C                    : 5.421601             2.703210             -10.180060
| 60>   O                    : 5.608552             1.804198             -11.122969
| 61>   H                    : 6.310818             1.332435             -10.691831
| 62>   H                    : 6.405950             3.097264             -9.888662
| 63>   H                    : 4.898594             3.542927             -10.643198
| 64>   H                    : 4.797134             2.230353             -9.310910
| 65>   C                      6.675724             -0.882406            -10.583256
| 66>   O                      7.626104             0.160383             -10.565423
| 67>   H                      8.464580             -0.106487            -11.018586
| 68>   H                      7.195414             -1.819896            -10.391075
| 69>   H                      5.801201             -0.758020            -9.898554
| 70>   H                      6.280561             -0.935155            -11.523284
| 71> *
| 72>
| 73>                          ****END OF INPUT****
 Total Charge           Charge          ....    0
 Multiplicity           Mult            ....    1
 Number of Electrons    NEL             ....   36
Dispersion correction           -0.001985111
FINAL SINGLE POINT ENERGY      -231.450950095523
Dispersion correction           -0.000173669
FINAL SINGLE POINT ENERGY      -115.717722285419

CARTESIAN COORDINATES (ANGSTROEM)
---------------------------------
  C      5.421601    2.703210  -10.180060
  O      5.608552    1.804198  -11.122969
  H      6.310818    1.332435  -10.691831
  H      6.405950    3.097264   -9.888662
  H      4.898594    3.542927  -10.643198
  H      4.797134    2.230353   -9.310910
  C      6.675724   -0.882406  -10.583256
  O      7.626104    0.160383  -10.565423
  H      8.464580   -0.106487  -11.018586
  H      7.195414   -1.819896  -10.391075
  H      5.801201   -0.758020   -9.898554
  H      6.280561   -0.935155  -11.523284

 Multiplicity           Mult            ....    1
 Number of Electrons    NEL             ....   18
 Basis Dimension        Dim             ....  172

ORBITAL ENERGIES
----------------

  NO   OCC          E(Eh)            E(eV)
   0   2.0000     -19.228513      -523.2344
   1   2.0000     -10.306247      -280.4472
   2   2.0000      -1.128479       -30.7075
   3   2.0000      -0.798162       -21.7191
   4   2.0000      -0.607857       -16.5406
   5   2.0000      -0.547691       -14.9034
   6   2.0000      -0.531849       -14.4723
   7   2.0000      -0.425561       -11.5801
   8   2.0000      -0.369871       -10.0647
   9   0.0000       0.098306         2.6750
  10   0.0000       0.122612         3.3364
  11   0.0000       0.151014         4.1093
  12   0.0000       0.191466         5.2101
  13   0.0000       0.198516         5.4019

MULLIKEN ATOMIC CHARGES
-----------------------
   0 C :    0.000103
   1 O :   -0.001840
   2 H :    0.006568
   3 H :   -0.002450
   4 H :   -0.000097
   5 H :   -0.000311
   6 C :   -0.169071
   7 O :   -0.493805
   8 H :    0.318406
   9 H :    0.107108
  10 H :    0.118253
  11 H :    0.117135
Sum of atomic charges:   -0.0000000

LOEWDIN ATOMIC CHARGES
----------------------
   0 C :   -0.004107
   1 O :   -0.010954
   2 H :   -0.054838
   3 H :   -0.001098
   4 H :   -0.000032
   5 H :   -0.000247
   6 C :   -0.367065
   7 O :   -0.044937
   8 H :    0.186188
   9 H :    0.097784
  10 H :    0.117702
  11 H :    0.081607

  Mayer bond orders larger than 0.1
B(  6-C ,  7-O ) :   0.9789 B(  6-C ,  9-H ) :   0.9807 B(  6-C , 10-H ) :   0.9732
B(  6-C , 11-H ) :   0.9868 B(  7-O ,  8-H ) :   0.8881

Dispersion correction           -0.000228275
FINAL SINGLE POINT ENERGY      -115.728096346974

DIPOLE MOMENT
-------------
                                X             Y             Z
Electronic contribution:      1.05668       1.40694       0.12580
Nuclear contribution   :     -0.92225      -2.01995      -0.44186
                        -----------------------------------------
Total Dipole Moment    :      0.13443      -0.61301      -0.31606
                        -----------------------------------------
Magnitude (a.u.)       :      0.70267
Magnitude (Debye)      :      1.78605

Rotational constants in cm-1:     4.434194     0.836869     0.797295
Rotational constants in MHz : 132933.805845 25088.696186 23902.291253

                             ****ORCA TERMINATED NORMALLY****
TOTAL RUN TIME: 0 days 0 hours 1 minutes 4 seconds 567 msec
