                         Program Version 4.1.2  - RELEASE  -
|  1> #Run DFT-D3 single point of the dimer
|  2> ! wB97X-D3 def2-TZVP TIGHTSCF CHELPG PMODEL PAL8
|  3>
|  4> %base "12-13_DFT_AB"
|  5>
|  6> %scf
|  7> MaxIter 1000
|  8> end
|  9>
| 10> * xyz 0 1
| 11>   C                      7.783129             -4.327830            -2.139949
| 12>   O                      8.538829             -3.183352            -2.235793
| 13>   H                      9.186373             -3.113510            -1.593900
| 14>   H                      8.386808             -5.185219            -2.334048
| 15>   H                      7.505781             -4.489280            -1.123958
| 16>   H                      6.890016             -4.297037            -2.756172
| 17>   C                      5.213601             -6.424230            1.445439
| 18>   O                      5.630218             -5.208946            2.075847
| 19>   H                      5.563530             -4.576802            1.354313
| 20>   H                      5.329758             -7.331916            2.140380
| 21>   H                      4.144093             -6.377885            1.182249
| 22>   H                      5.866397             -6.714165            0.524728
| 23> *
| 24>
| 25> #Run DFT-D3 single point of the molecule with dimer basis set
| 26> $new_job
| 27> %base "12-13_DFT_A"
| 28> ! wB97X-D3 def2-TZVP TIGHTSCF CHELPG PMODEL
| 29>
| 30> %scf
| 31> MaxIter 1000
| 32> end
| 33>
| 34> * xyz 0 1
| 35>   C                      7.783129             -4.327830            -2.139949
| 36>   O                      8.538829             -3.183352            -2.235793
| 37>   H                      9.186373             -3.113510            -1.593900
| 38>   H                      8.386808             -5.185219            -2.334048
| 39>   H                      7.505781             -4.489280            -1.123958
| 40>   H                      6.890016             -4.297037            -2.756172
| 41>   C                    : 5.213601             -6.424230            1.445439
| 42>   O                    : 5.630218             -5.208946            2.075847
| 43>   H                    : 5.563530             -4.576802            1.354313
| 44>   H                    : 5.329758             -7.331916            2.140380
| 45>   H                    : 4.144093             -6.377885            1.182249
| 46>   H                    : 5.866397             -6.714165            0.524728
| 47> *
| 48>
| 49> #Run DFT-D3 single point of the particle with dimer basis set
| 50> $new_job
| 51> %base "12-13_DFT_B"
| 52> ! wB97X-D3 def2-TZVP TIGHTSCF CHELPG PMODEL
| 53>
| 54> %scf
| 55> MaxIter 1000
| 56> end
| 57>
| 58> * xyz 0 1
| 59>   C                    : 7.783129             -4.327830            -2.139949
| 60>   O                    : 8.538829             -3.183352            -2.235793
| 61>   H                    : 9.186373             -3.113510            -1.593900
| 62>   H                    : 8.386808             -5.185219            -2.334048
| 63>   H                    : 7.505781             -4.489280            -1.123958
| 64>   H                    : 6.890016             -4.297037            -2.756172
| 65>   C                      5.213601             -6.424230            1.445439
| 66>   O                      5.630218             -5.208946            2.075847
| 67>   H                      5.563530             -4.576802            1.354313
| 68>   H                      5.329758             -7.331916            2.140380
| 69>   H                      4.144093             -6.377885            1.182249
| 70>   H                      5.866397             -6.714165            0.524728
| 71> *
| 72>
| 73>                          ****END OF INPUT****
 Total Charge           Charge          ....    0
 Multiplicity           Mult            ....    1
 Number of Electrons    NEL             ....   36
Dispersion correction           -0.001011702
FINAL SINGLE POINT ENERGY      -231.461129746906
Dispersion correction           -0.000211017
FINAL SINGLE POINT ENERGY      -115.729705886021

CARTESIAN COORDINATES (ANGSTROEM)
---------------------------------
  C      7.783129   -4.327830   -2.139949
  O      8.538829   -3.183352   -2.235793
  H      9.186373   -3.113510   -1.593900
  H      8.386808   -5.185219   -2.334048
  H      7.505781   -4.489280   -1.123958
  H      6.890016   -4.297037   -2.756172
  C      5.213601   -6.424230    1.445439
  O      5.630218   -5.208946    2.075847
  H      5.563530   -4.576802    1.354313
  H      5.329758   -7.331916    2.140380
  H      4.144093   -6.377885    1.182249
  H      5.866397   -6.714165    0.524728

 Multiplicity           Mult            ....    1
 Number of Electrons    NEL             ....   18
 Basis Dimension        Dim             ....  172

ORBITAL ENERGIES
----------------

  NO   OCC          E(Eh)            E(eV)
   0   2.0000     -19.236632      -523.4554
   1   2.0000     -10.328939      -281.0647
   2   2.0000      -1.137393       -30.9500
   3   2.0000      -0.784310       -21.3422
   4   2.0000      -0.603355       -16.4181
   5   2.0000      -0.540377       -14.7044
   6   2.0000      -0.520937       -14.1754
   7   2.0000      -0.433339       -11.7917
   8   2.0000      -0.377716       -10.2782
   9   0.0000       0.076563         2.0834
  10   0.0000       0.119397         3.2490
  11   0.0000       0.144369         3.9285
  12   0.0000       0.164017         4.4631
  13   0.0000       0.181343         4.9346

MULLIKEN ATOMIC CHARGES
-----------------------
   0 C :    0.000287
   1 O :   -0.000014
   2 H :   -0.000015
   3 H :    0.000069
   4 H :   -0.002022
   5 H :    0.000007
   6 C :   -0.189735
   7 O :   -0.457817
   8 H :    0.316014
   9 H :    0.120005
  10 H :    0.111791
  11 H :    0.101430
Sum of atomic charges:   -0.0000000

LOEWDIN ATOMIC CHARGES
----------------------
   0 C :   -0.000416
   1 O :   -0.000009
   2 H :   -0.000001
   3 H :   -0.000021
   4 H :   -0.000851
   5 H :   -0.000016
   6 C :   -0.398955
   7 O :   -0.087277
   8 H :    0.171455
   9 H :    0.116471
  10 H :    0.095205
  11 H :    0.104415

  Mayer bond orders larger than 0.1
B(  6-C ,  7-O ) :   1.0031 B(  6-C ,  9-H ) :   0.9712 B(  6-C , 10-H ) :   0.9735
B(  6-C , 11-H ) :   0.9675 B(  7-O ,  8-H ) :   0.9013

Dispersion correction           -0.000260361
FINAL SINGLE POINT ENERGY      -115.730742300415

DIPOLE MOMENT
-------------
                                X             Y             Z
Electronic contribution:      0.52619       1.61751       0.98518
Nuclear contribution   :     -0.73709      -1.69757      -1.65205
                        -----------------------------------------
Total Dipole Moment    :     -0.21090      -0.08006      -0.66686
                        -----------------------------------------
Magnitude (a.u.)       :      0.70399
Magnitude (Debye)      :      1.78939

Rotational constants in cm-1:     4.031105     0.804619     0.780115
Rotational constants in MHz : 120849.499699 24121.866009 23387.255529

                             ****ORCA TERMINATED NORMALLY****
TOTAL RUN TIME: 0 days 0 hours 0 minutes 55 seconds 825 msec
