                         Program Version 4.1.2  - RELEASE  -
|  1> #Run DFT-D3 single point of the dimer
|  2> ! wB97X-D3 def2-TZVP TIGHTSCF CHELPG PMODEL PAL8
|  3>
|  4> %base "4-129_DFT_AB"
|  5>
|  6> %scf
|  7> MaxIter 1000
|  8> end
|  9>
| 10> * xyz 0 1
| 11>   C                      6.954746             7.491548             2.890849
| 12>   O                      6.315243             6.971353             1.717059
| 13>   H                      5.920077             7.735909             1.324826
| 14>   H                      7.605254             6.722106             3.359889
| 15>   H                      7.647488             8.305513             2.508878
| 16>   H                      6.250953             7.862724             3.602146
| 17>   C                      7.388625             9.304116             -0.362198
| 18>   O                      6.555717             10.139447            0.407611
| 19>   H                      6.192975             10.799792            -0.243925
| 20>   H                      7.672126             8.444837             0.222729
| 21>   H                      6.882733             8.918819             -1.198655
| 22>   H                      8.359015             9.795671             -0.648308
| 23> *
| 24>
| 25> #Run DFT-D3 single point of the molecule with dimer basis set
| 26> $new_job
| 27> %base "4-129_DFT_A"
| 28> ! wB97X-D3 def2-TZVP TIGHTSCF CHELPG PMODEL
| 29>
| 30> %scf
| 31> MaxIter 1000
| 32> end
| 33>
| 34> * xyz 0 1
| 35>   C                      6.954746             7.491548             2.890849
| 36>   O                      6.315243             6.971353             1.717059
| 37>   H                      5.920077             7.735909             1.324826
| 38>   H                      7.605254             6.722106             3.359889
| 39>   H                      7.647488             8.305513             2.508878
| 40>   H                      6.250953             7.862724             3.602146
| 41>   C                    : 7.388625             9.304116             -0.362198
| 42>   O                    : 6.555717             10.139447            0.407611
| 43>   H                    : 6.192975             10.799792            -0.243925
| 44>   H                    : 7.672126             8.444837             0.222729
| 45>   H                    : 6.882733             8.918819             -1.198655
| 46>   H                    : 8.359015             9.795671             -0.648308
| 47> *
| 48>
| 49> #Run DFT-D3 single point of the particle with dimer basis set
| 50> $new_job
| 51> %base "4-129_DFT_B"
| 52> ! wB97X-D3 def2-TZVP TIGHTSCF CHELPG PMODEL
| 53>
| 54> %scf
| 55> MaxIter 1000
| 56> end
| 57>
| 58> * xyz 0 1
| 59>   C                    : 6.954746             7.491548             2.890849
| 60>   O                    : 6.315243             6.971353             1.717059
| 61>   H                    : 5.920077             7.735909             1.324826
| 62>   H                    : 7.605254             6.722106             3.359889
| 63>   H                    : 7.647488             8.305513             2.508878
| 64>   H                    : 6.250953             7.862724             3.602146
| 65>   C                      7.388625             9.304116             -0.362198
| 66>   O                      6.555717             10.139447            0.407611
| 67>   H                      6.192975             10.799792            -0.243925
| 68>   H                      7.672126             8.444837             0.222729
| 69>   H                      6.882733             8.918819             -1.198655
| 70>   H                      8.359015             9.795671             -0.648308
| 71> *
| 72>
| 73>                          ****END OF INPUT****
 Total Charge           Charge          ....    0
 Multiplicity           Mult            ....    1
 Number of Electrons    NEL             ....   36
Dispersion correction           -0.002125110
FINAL SINGLE POINT ENERGY      -231.471672324273
Dispersion correction           -0.000225224
FINAL SINGLE POINT ENERGY      -115.733629385388

CARTESIAN COORDINATES (ANGSTROEM)
---------------------------------
  C      6.954746    7.491548    2.890849
  O      6.315243    6.971353    1.717059
  H      5.920077    7.735909    1.324826
  H      7.605254    6.722106    3.359889
  H      7.647488    8.305513    2.508878
  H      6.250953    7.862724    3.602146
  C      7.388625    9.304116   -0.362198
  O      6.555717   10.139447    0.407611
  H      6.192975   10.799792   -0.243925
  H      7.672126    8.444837    0.222729
  H      6.882733    8.918819   -1.198655
  H      8.359015    9.795671   -0.648308

 Multiplicity           Mult            ....    1
 Number of Electrons    NEL             ....   18
 Basis Dimension        Dim             ....  172

ORBITAL ENERGIES
----------------

  NO   OCC          E(Eh)            E(eV)
   0   2.0000     -19.234991      -523.4107
   1   2.0000     -10.307511      -280.4816
   2   2.0000      -1.133767       -30.8514
   3   2.0000      -0.793839       -21.6015
   4   2.0000      -0.607087       -16.5197
   5   2.0000      -0.545506       -14.8440
   6   2.0000      -0.526896       -14.3376
   7   2.0000      -0.434443       -11.8218
   8   2.0000      -0.374477       -10.1900
   9   0.0000       0.094712         2.5772
  10   0.0000       0.120753         3.2859
  11   0.0000       0.155210         4.2235
  12   0.0000       0.184561         5.0222
  13   0.0000       0.199387         5.4256

MULLIKEN ATOMIC CHARGES
-----------------------
   0 C :   -0.001527
   1 O :    0.000940
   2 H :   -0.000902
   3 H :    0.000151
   4 H :    0.001447
   5 H :   -0.000322
   6 C :   -0.171312
   7 O :   -0.463821
   8 H :    0.313530
   9 H :    0.113424
  10 H :    0.109915
  11 H :    0.098477
Sum of atomic charges:   -0.0000000

LOEWDIN ATOMIC CHARGES
----------------------
   0 C :   -0.006144
   1 O :   -0.004447
   2 H :   -0.008597
   3 H :   -0.000034
   4 H :   -0.003626
   5 H :   -0.000084
   6 C :   -0.388472
   7 O :   -0.078647
   8 H :    0.191717
   9 H :    0.110697
  10 H :    0.087088
  11 H :    0.100548

  Mayer bond orders larger than 0.1
B(  6-C ,  7-O ) :   0.9983 B(  6-C ,  9-H ) :   0.9805 B(  6-C , 10-H ) :   0.9811
B(  6-C , 11-H ) :   0.9734 B(  7-O ,  8-H ) :   0.8964

Dispersion correction           -0.000233516
FINAL SINGLE POINT ENERGY      -115.733522004359

DIPOLE MOMENT
-------------
                                X             Y             Z
Electronic contribution:     -1.10607       1.00636       1.08656
Nuclear contribution   :      1.18760      -0.95032      -1.78049
                        -----------------------------------------
Total Dipole Moment    :      0.08153       0.05604      -0.69392
                        -----------------------------------------
Magnitude (a.u.)       :      0.70094
Magnitude (Debye)      :      1.78165

Rotational constants in cm-1:     4.282939     0.835733     0.810127
Rotational constants in MHz : 128399.286655 25054.634590 24286.983568

                             ****ORCA TERMINATED NORMALLY****
TOTAL RUN TIME: 0 days 0 hours 1 minutes 29 seconds 655 msec
