                         Program Version 4.1.2  - RELEASE  -
|  1> #Run DFT-D3 single point of the dimer
|  2> ! wB97X-D3 def2-TZVP TIGHTSCF CHELPG PMODEL PAL8
|  3>
|  4> %base "21-113_DFT_AB"
|  5>
|  6> %scf
|  7> MaxIter 1000
|  8> end
|  9>
| 10> * xyz 0 1
| 11>   C                      11.122431            -6.628041            -1.890317
| 12>   O                      9.905243             -7.179315            -1.501402
| 13>   H                      10.068682            -7.746275            -0.749948
| 14>   H                      10.926274            -6.025471            -2.797524
| 15>   H                      11.515017            -5.906287            -1.184463
| 16>   H                      11.829085            -7.345357            -2.185761
| 17>   C                      10.950155            -6.017595            2.400506
| 18>   O                      11.913432            -5.611608            1.430271
| 19>   H                      11.646689            -4.726728            1.192226
| 20>   H                      9.987018             -6.287923            1.945562
| 21>   H                      11.254205            -6.912668            2.977580
| 22>   H                      10.753921            -5.240413            3.152481
| 23> *
| 24>
| 25> #Run DFT-D3 single point of the molecule with dimer basis set
| 26> $new_job
| 27> %base "21-113_DFT_A"
| 28> ! wB97X-D3 def2-TZVP TIGHTSCF CHELPG PMODEL
| 29>
| 30> %scf
| 31> MaxIter 1000
| 32> end
| 33>
| 34> * xyz 0 1
| 35>   C                      11.122431            -6.628041            -1.890317
| 36>   O                      9.905243             -7.179315            -1.501402
| 37>   H                      10.068682            -7.746275            -0.749948
| 38>   H                      10.926274            -6.025471            -2.797524
| 39>   H                      11.515017            -5.906287            -1.184463
| 40>   H                      11.829085            -7.345357            -2.185761
| 41>   C                    : 10.950155            -6.017595            2.400506
| 42>   O                    : 11.913432            -5.611608            1.430271
| 43>   H                    : 11.646689            -4.726728            1.192226
| 44>   H                    : 9.987018             -6.287923            1.945562
| 45>   H                    : 11.254205            -6.912668            2.977580
| 46>   H                    : 10.753921            -5.240413            3.152481
| 47> *
| 48>
| 49> #Run DFT-D3 single point of the particle with dimer basis set
| 50> $new_job
| 51> %base "21-113_DFT_B"
| 52> ! wB97X-D3 def2-TZVP TIGHTSCF CHELPG PMODEL
| 53>
| 54> %scf
| 55> MaxIter 1000
| 56> end
| 57>
| 58> * xyz 0 1
| 59>   C                    : 11.122431            -6.628041            -1.890317
| 60>   O                    : 9.905243             -7.179315            -1.501402
| 61>   H                    : 10.068682            -7.746275            -0.749948
| 62>   H                    : 10.926274            -6.025471            -2.797524
| 63>   H                    : 11.515017            -5.906287            -1.184463
| 64>   H                    : 11.829085            -7.345357            -2.185761
| 65>   C                      10.950155            -6.017595            2.400506
| 66>   O                      11.913432            -5.611608            1.430271
| 67>   H                      11.646689            -4.726728            1.192226
| 68>   H                      9.987018             -6.287923            1.945562
| 69>   H                      11.254205            -6.912668            2.977580
| 70>   H                      10.753921            -5.240413            3.152481
| 71> *
| 72>
| 73>                          ****END OF INPUT****
 Total Charge           Charge          ....    0
 Multiplicity           Mult            ....    1
 Number of Electrons    NEL             ....   36
Dispersion correction           -0.001740569
FINAL SINGLE POINT ENERGY      -231.472658319819
Dispersion correction           -0.000228908
FINAL SINGLE POINT ENERGY      -115.734943947189

CARTESIAN COORDINATES (ANGSTROEM)
---------------------------------
  C     11.122431   -6.628041   -1.890317
  O      9.905243   -7.179315   -1.501402
  H     10.068682   -7.746275   -0.749948
  H     10.926274   -6.025471   -2.797524
  H     11.515017   -5.906287   -1.184463
  H     11.829085   -7.345357   -2.185761
  C     10.950155   -6.017595    2.400506
  O     11.913432   -5.611608    1.430271
  H     11.646689   -4.726728    1.192226
  H      9.987018   -6.287923    1.945562
  H     11.254205   -6.912668    2.977580
  H     10.753921   -5.240413    3.152481

 Multiplicity           Mult            ....    1
 Number of Electrons    NEL             ....   18
 Basis Dimension        Dim             ....  172

ORBITAL ENERGIES
----------------

  NO   OCC          E(Eh)            E(eV)
   0   2.0000     -19.234796      -523.4054
   1   2.0000     -10.317297      -280.7479
   2   2.0000      -1.138161       -30.9709
   3   2.0000      -0.794886       -21.6299
   4   2.0000      -0.610031       -16.5998
   5   2.0000      -0.539346       -14.6763
   6   2.0000      -0.527375       -14.3506
   7   2.0000      -0.438123       -11.9219
   8   2.0000      -0.376805       -10.2534
   9   0.0000       0.091803         2.4981
  10   0.0000       0.126571         3.4442
  11   0.0000       0.145018         3.9461
  12   0.0000       0.174542         4.7495
  13   0.0000       0.199545         5.4299

MULLIKEN ATOMIC CHARGES
-----------------------
   0 C :    0.008499
   1 O :   -0.000204
   2 H :   -0.000127
   3 H :   -0.000334
   4 H :   -0.017206
   5 H :   -0.000803
   6 C :   -0.183411
   7 O :   -0.457570
   8 H :    0.317104
   9 H :    0.104121
  10 H :    0.120391
  11 H :    0.109540
Sum of atomic charges:    0.0000000

LOEWDIN ATOMIC CHARGES
----------------------
   0 C :   -0.005649
   1 O :   -0.000135
   2 H :   -0.000539
   3 H :   -0.000047
   4 H :   -0.009999
   5 H :   -0.000144
   6 C :   -0.385857
   7 O :   -0.067840
   8 H :    0.168534
   9 H :    0.094652
  10 H :    0.110684
  11 H :    0.096340

  Mayer bond orders larger than 0.1
B(  6-C ,  7-O ) :   1.0015 B(  6-C ,  9-H ) :   0.9729 B(  6-C , 10-H ) :   0.9740
B(  6-C , 11-H ) :   0.9771 B(  7-O ,  8-H ) :   0.8992

Dispersion correction           -0.000247642
FINAL SINGLE POINT ENERGY      -115.735614375292

DIPOLE MOMENT
-------------
                                X             Y             Z
Electronic contribution:      1.38484       0.41173      -1.27507
Nuclear contribution   :     -1.92798      -0.01786       1.53691
                        -----------------------------------------
Total Dipole Moment    :     -0.54314       0.39387       0.26184
                        -----------------------------------------
Magnitude (a.u.)       :      0.72020
Magnitude (Debye)      :      1.83061

Rotational constants in cm-1:     4.317231     0.814109     0.785649
Rotational constants in MHz : 129427.332108 24406.374294 23553.166756

                             ****ORCA TERMINATED NORMALLY****
TOTAL RUN TIME: 0 days 0 hours 0 minutes 59 seconds 535 msec
