                         Program Version 4.1.2  - RELEASE  -
|  1> #Run DFT-D3 single point of the dimer
|  2> ! wB97X-D3 def2-TZVP TIGHTSCF CHELPG PMODEL PAL8
|  3>
|  4> %base "20-145_DFT_AB"
|  5>
|  6> %scf
|  7> MaxIter 1000
|  8> end
|  9>
| 10> * xyz 0 1
| 11>   C                      3.421083             7.210072             4.473973
| 12>   O                      4.589934             8.015579             4.515994
| 13>   H                      4.448920             8.817756             4.027650
| 14>   H                      2.520643             7.794429             4.744338
| 15>   H                      3.176166             6.680159             3.580771
| 16>   H                      3.413371             6.403529             5.216325
| 17>   C                      6.941858             4.561202             3.819420
| 18>   O                      6.036226             3.829826             4.629647
| 19>   H                      6.490337             3.212845             5.236488
| 20>   H                      7.585249             5.221053             4.391091
| 21>   H                      7.546627             3.978698             3.156488
| 22>   H                      6.367427             5.198605             3.139385
| 23> *
| 24>
| 25> #Run DFT-D3 single point of the molecule with dimer basis set
| 26> $new_job
| 27> %base "20-145_DFT_A"
| 28> ! wB97X-D3 def2-TZVP TIGHTSCF CHELPG PMODEL
| 29>
| 30> %scf
| 31> MaxIter 1000
| 32> end
| 33>
| 34> * xyz 0 1
| 35>   C                      3.421083             7.210072             4.473973
| 36>   O                      4.589934             8.015579             4.515994
| 37>   H                      4.448920             8.817756             4.027650
| 38>   H                      2.520643             7.794429             4.744338
| 39>   H                      3.176166             6.680159             3.580771
| 40>   H                      3.413371             6.403529             5.216325
| 41>   C                    : 6.941858             4.561202             3.819420
| 42>   O                    : 6.036226             3.829826             4.629647
| 43>   H                    : 6.490337             3.212845             5.236488
| 44>   H                    : 7.585249             5.221053             4.391091
| 45>   H                    : 7.546627             3.978698             3.156488
| 46>   H                    : 6.367427             5.198605             3.139385
| 47> *
| 48>
| 49> #Run DFT-D3 single point of the particle with dimer basis set
| 50> $new_job
| 51> %base "20-145_DFT_B"
| 52> ! wB97X-D3 def2-TZVP TIGHTSCF CHELPG PMODEL
| 53>
| 54> %scf
| 55> MaxIter 1000
| 56> end
| 57>
| 58> * xyz 0 1
| 59>   C                    : 3.421083             7.210072             4.473973
| 60>   O                    : 4.589934             8.015579             4.515994
| 61>   H                    : 4.448920             8.817756             4.027650
| 62>   H                    : 2.520643             7.794429             4.744338
| 63>   H                    : 3.176166             6.680159             3.580771
| 64>   H                    : 3.413371             6.403529             5.216325
| 65>   C                      6.941858             4.561202             3.819420
| 66>   O                      6.036226             3.829826             4.629647
| 67>   H                      6.490337             3.212845             5.236488
| 68>   H                      7.585249             5.221053             4.391091
| 69>   H                      7.546627             3.978698             3.156488
| 70>   H                      6.367427             5.198605             3.139385
| 71> *
| 72>
| 73>                          ****END OF INPUT****
 Total Charge           Charge          ....    0
 Multiplicity           Mult            ....    1
 Number of Electrons    NEL             ....   36
Dispersion correction           -0.001274465
FINAL SINGLE POINT ENERGY      -231.468795065691
Dispersion correction           -0.000268473
FINAL SINGLE POINT ENERGY      -115.732298976807

CARTESIAN COORDINATES (ANGSTROEM)
---------------------------------
  C      3.421083    7.210072    4.473973
  O      4.589934    8.015579    4.515994
  H      4.448920    8.817756    4.027650
  H      2.520643    7.794429    4.744338
  H      3.176166    6.680159    3.580771
  H      3.413371    6.403529    5.216325
  C      6.941858    4.561202    3.819420
  O      6.036226    3.829826    4.629647
  H      6.490337    3.212845    5.236488
  H      7.585249    5.221053    4.391091
  H      7.546627    3.978698    3.156488
  H      6.367427    5.198605    3.139385

 Multiplicity           Mult            ....    1
 Number of Electrons    NEL             ....   18
 Basis Dimension        Dim             ....  172

ORBITAL ENERGIES
----------------

  NO   OCC          E(Eh)            E(eV)
   0   2.0000     -19.231810      -523.3242
   1   2.0000     -10.310031      -280.5502
   2   2.0000      -1.128951       -30.7203
   3   2.0000      -0.800263       -21.7763
   4   2.0000      -0.611037       -16.6272
   5   2.0000      -0.543190       -14.7810
   6   2.0000      -0.524054       -14.2602
   7   2.0000      -0.427809       -11.6413
   8   2.0000      -0.375942       -10.2299
   9   0.0000       0.089638         2.4392
  10   0.0000       0.118553         3.2260
  11   0.0000       0.150543         4.0965
  12   0.0000       0.172140         4.6842
  13   0.0000       0.188674         5.1341

MULLIKEN ATOMIC CHARGES
-----------------------
   0 C :    0.001260
   1 O :   -0.000142
   2 H :   -0.000024
   3 H :   -0.000047
   4 H :   -0.000300
   5 H :   -0.001780
   6 C :   -0.150709
   7 O :   -0.483691
   8 H :    0.316553
   9 H :    0.099560
  10 H :    0.103284
  11 H :    0.116035
Sum of atomic charges:   -0.0000000

LOEWDIN ATOMIC CHARGES
----------------------
   0 C :   -0.000736
   1 O :   -0.000108
   2 H :   -0.000014
   3 H :   -0.000007
   4 H :   -0.000104
   5 H :   -0.000744
   6 C :   -0.381251
   7 O :   -0.085708
   8 H :    0.176814
   9 H :    0.092486
  10 H :    0.088951
  11 H :    0.110420

  Mayer bond orders larger than 0.1
B(  6-C ,  7-O ) :   1.0017 B(  6-C ,  9-H ) :   0.9785 B(  6-C , 10-H ) :   0.9741
B(  6-C , 11-H ) :   0.9754 B(  7-O ,  8-H ) :   0.8929

Dispersion correction           -0.000263671
FINAL SINGLE POINT ENERGY      -115.735358945229

DIPOLE MOMENT
-------------
                                X             Y             Z
Electronic contribution:     -1.21257      -0.94475       1.02556
Nuclear contribution   :      1.87238       0.84568      -0.98287
                        -----------------------------------------
Total Dipole Moment    :      0.65981      -0.09907       0.04269
                        -----------------------------------------
Magnitude (a.u.)       :      0.66857
Magnitude (Debye)      :      1.69937

Rotational constants in cm-1:     4.480875     0.814838     0.789219
Rotational constants in MHz : 134333.246929 24428.240239 23660.190324

                             ****ORCA TERMINATED NORMALLY****
TOTAL RUN TIME: 0 days 0 hours 1 minutes 6 seconds 622 msec
