                         Program Version 4.1.2  - RELEASE  -
|  1> #Run DFT-D3 single point of the dimer
|  2> ! wB97X-D3 def2-TZVP TIGHTSCF CHELPG PMODEL PAL8
|  3>
|  4> %base "12-35_DFT_AB"
|  5>
|  6> %scf
|  7> MaxIter 1000
|  8> end
|  9>
| 10> * xyz 0 1
| 11>   C                      -8.068520            9.350120             1.189583
| 12>   O                      -8.752625            10.376869            1.873308
| 13>   H                      -8.135761            11.181691            1.909176
| 14>   H                      -6.977706            9.408543             1.361703
| 15>   H                      -8.315950            8.386054             1.585649
| 16>   H                      -8.351789            9.399995             0.160666
| 17>   C                      -10.925620           11.028684            5.607531
| 18>   O                      -9.934726            10.286416            6.302170
| 19>   H                      -10.283144           9.986644             7.197027
| 20>   H                      -10.519624           11.692370            4.792547
| 21>   H                      -11.713673           10.380244            5.160018
| 22>   H                      -11.410883           11.691452            6.391193
| 23> *
| 24>
| 25> #Run DFT-D3 single point of the molecule with dimer basis set
| 26> $new_job
| 27> %base "12-35_DFT_A"
| 28> ! wB97X-D3 def2-TZVP TIGHTSCF CHELPG PMODEL
| 29>
| 30> %scf
| 31> MaxIter 1000
| 32> end
| 33>
| 34> * xyz 0 1
| 35>   C                      -8.068520            9.350120             1.189583
| 36>   O                      -8.752625            10.376869            1.873308
| 37>   H                      -8.135761            11.181691            1.909176
| 38>   H                      -6.977706            9.408543             1.361703
| 39>   H                      -8.315950            8.386054             1.585649
| 40>   H                      -8.351789            9.399995             0.160666
| 41>   C                    : -10.925620           11.028684            5.607531
| 42>   O                    : -9.934726            10.286416            6.302170
| 43>   H                    : -10.283144           9.986644             7.197027
| 44>   H                    : -10.519624           11.692370            4.792547
| 45>   H                    : -11.713673           10.380244            5.160018
| 46>   H                    : -11.410883           11.691452            6.391193
| 47> *
| 48>
| 49> #Run DFT-D3 single point of the particle with dimer basis set
| 50> $new_job
| 51> %base "12-35_DFT_B"
| 52> ! wB97X-D3 def2-TZVP TIGHTSCF CHELPG PMODEL
| 53>
| 54> %scf
| 55> MaxIter 1000
| 56> end
| 57>
| 58> * xyz 0 1
| 59>   C                    : -8.068520            9.350120             1.189583
| 60>   O                    : -8.752625            10.376869            1.873308
| 61>   H                    : -8.135761            11.181691            1.909176
| 62>   H                    : -6.977706            9.408543             1.361703
| 63>   H                    : -8.315950            8.386054             1.585649
| 64>   H                    : -8.351789            9.399995             0.160666
| 65>   C                      -10.925620           11.028684            5.607531
| 66>   O                      -9.934726            10.286416            6.302170
| 67>   H                      -10.283144           9.986644             7.197027
| 68>   H                      -10.519624           11.692370            4.792547
| 69>   H                      -11.713673           10.380244            5.160018
| 70>   H                      -11.410883           11.691452            6.391193
| 71> *
| 72>
| 73>                          ****END OF INPUT****
 Total Charge           Charge          ....    0
 Multiplicity           Mult            ....    1
 Number of Electrons    NEL             ....   36
Dispersion correction           -0.000837356
FINAL SINGLE POINT ENERGY      -231.461392626463
Dispersion correction           -0.000235555
FINAL SINGLE POINT ENERGY      -115.731236008138

CARTESIAN COORDINATES (ANGSTROEM)
---------------------------------
  C     -8.068520    9.350120    1.189583
  O     -8.752625   10.376869    1.873308
  H     -8.135761   11.181691    1.909176
  H     -6.977706    9.408543    1.361703
  H     -8.315950    8.386054    1.585649
  H     -8.351789    9.399995    0.160666
  C    -10.925620   11.028684    5.607531
  O     -9.934726   10.286416    6.302170
  H    -10.283144    9.986644    7.197027
  H    -10.519624   11.692370    4.792547
  H    -11.713673   10.380244    5.160018
  H    -11.410883   11.691452    6.391193

 Multiplicity           Mult            ....    1
 Number of Electrons    NEL             ....   18
 Basis Dimension        Dim             ....  172

ORBITAL ENERGIES
----------------

  NO   OCC          E(Eh)            E(eV)
   0   2.0000     -19.232858      -523.3527
   1   2.0000     -10.323971      -280.9295
   2   2.0000      -1.125075       -30.6149
   3   2.0000      -0.784758       -21.3544
   4   2.0000      -0.601315       -16.3626
   5   2.0000      -0.536540       -14.6000
   6   2.0000      -0.528538       -14.3823
   7   2.0000      -0.423327       -11.5193
   8   2.0000      -0.370402       -10.0791
   9   0.0000       0.089926         2.4470
  10   0.0000       0.107414         2.9229
  11   0.0000       0.142873         3.8878
  12   0.0000       0.170062         4.6276
  13   0.0000       0.198567         5.4033

MULLIKEN ATOMIC CHARGES
-----------------------
   0 C :   -0.000004
   1 O :    0.000041
   2 H :   -0.000037
   3 H :    0.000002
   4 H :   -0.000001
   5 H :   -0.000001
   6 C :   -0.167429
   7 O :   -0.483648
   8 H :    0.323052
   9 H :    0.124929
  10 H :    0.103137
  11 H :    0.099959
Sum of atomic charges:   -0.0000000

LOEWDIN ATOMIC CHARGES
----------------------
   0 C :   -0.000016
   1 O :   -0.000103
   2 H :   -0.000073
   3 H :   -0.000000
   4 H :   -0.000002
   5 H :   -0.000001
   6 C :   -0.396502
   7 O :   -0.108401
   8 H :    0.195384
   9 H :    0.112877
  10 H :    0.095410
  11 H :    0.101427

  Mayer bond orders larger than 0.1
B(  6-C ,  7-O ) :   0.9965 B(  6-C ,  9-H ) :   0.9662 B(  6-C , 10-H ) :   0.9679
B(  6-C , 11-H ) :   0.9887 B(  7-O ,  8-H ) :   0.8867

Dispersion correction           -0.000257698
FINAL SINGLE POINT ENERGY      -115.729967557500

DIPOLE MOMENT
-------------
                                X             Y             Z
Electronic contribution:      1.42940      -0.97129       0.67316
Nuclear contribution   :     -2.03367       1.08697      -0.38609
                        -----------------------------------------
Total Dipole Moment    :     -0.60427       0.11568       0.28707
                        -----------------------------------------
Magnitude (a.u.)       :      0.67892
Magnitude (Debye)      :      1.72568

Rotational constants in cm-1:     4.076622     0.814799     0.784052
Rotational constants in MHz : 122214.051556 24427.064597 23505.298451

                             ****ORCA TERMINATED NORMALLY****
TOTAL RUN TIME: 0 days 0 hours 1 minutes 11 seconds 227 msec
