                         Program Version 4.1.2  - RELEASE  -
|  1> #Run DFT-D3 single point of the dimer
|  2> ! wB97X-D3 def2-TZVP TIGHTSCF CHELPG PMODEL PAL8
|  3>
|  4> %base "18-63_DFT_AB"
|  5>
|  6> %scf
|  7> MaxIter 1000
|  8> end
|  9>
| 10> * xyz 0 1
| 11>   C                      1.360282             -4.777872            -0.154041
| 12>   O                      0.112124             -4.454516            0.466890
| 13>   H                      0.255263             -3.645348            0.929075
| 14>   H                      1.579164             -4.006664            -0.829384
| 15>   H                      2.089112             -4.804114            0.602860
| 16>   H                      1.466500             -5.741228            -0.685839
| 17>   C                      -2.821279            -4.018960            3.426932
| 18>   O                      -1.694309            -4.510608            4.047991
| 19>   H                      -0.937718            -4.038095            3.738168
| 20>   H                      -2.660955            -4.031095            2.353406
| 21>   H                      -3.755240            -4.648577            3.567780
| 22>   H                      -3.052784            -2.989722            3.669558
| 23> *
| 24>
| 25> #Run DFT-D3 single point of the molecule with dimer basis set
| 26> $new_job
| 27> %base "18-63_DFT_A"
| 28> ! wB97X-D3 def2-TZVP TIGHTSCF CHELPG PMODEL
| 29>
| 30> %scf
| 31> MaxIter 1000
| 32> end
| 33>
| 34> * xyz 0 1
| 35>   C                      1.360282             -4.777872            -0.154041
| 36>   O                      0.112124             -4.454516            0.466890
| 37>   H                      0.255263             -3.645348            0.929075
| 38>   H                      1.579164             -4.006664            -0.829384
| 39>   H                      2.089112             -4.804114            0.602860
| 40>   H                      1.466500             -5.741228            -0.685839
| 41>   C                    : -2.821279            -4.018960            3.426932
| 42>   O                    : -1.694309            -4.510608            4.047991
| 43>   H                    : -0.937718            -4.038095            3.738168
| 44>   H                    : -2.660955            -4.031095            2.353406
| 45>   H                    : -3.755240            -4.648577            3.567780
| 46>   H                    : -3.052784            -2.989722            3.669558
| 47> *
| 48>
| 49> #Run DFT-D3 single point of the particle with dimer basis set
| 50> $new_job
| 51> %base "18-63_DFT_B"
| 52> ! wB97X-D3 def2-TZVP TIGHTSCF CHELPG PMODEL
| 53>
| 54> %scf
| 55> MaxIter 1000
| 56> end
| 57>
| 58> * xyz 0 1
| 59>   C                    : 1.360282             -4.777872            -0.154041
| 60>   O                    : 0.112124             -4.454516            0.466890
| 61>   H                    : 0.255263             -3.645348            0.929075
| 62>   H                    : 1.579164             -4.006664            -0.829384
| 63>   H                    : 2.089112             -4.804114            0.602860
| 64>   H                    : 1.466500             -5.741228            -0.685839
| 65>   C                      -2.821279            -4.018960            3.426932
| 66>   O                      -1.694309            -4.510608            4.047991
| 67>   H                      -0.937718            -4.038095            3.738168
| 68>   H                      -2.660955            -4.031095            2.353406
| 69>   H                      -3.755240            -4.648577            3.567780
| 70>   H                      -3.052784            -2.989722            3.669558
| 71> *
| 72>
| 73>                          ****END OF INPUT****
 Total Charge           Charge          ....    0
 Multiplicity           Mult            ....    1
 Number of Electrons    NEL             ....   36
Dispersion correction           -0.001125609
FINAL SINGLE POINT ENERGY      -231.461168286450
Dispersion correction           -0.000217386
FINAL SINGLE POINT ENERGY      -115.728682188004

CARTESIAN COORDINATES (ANGSTROEM)
---------------------------------
  C      1.360282   -4.777872   -0.154041
  O      0.112124   -4.454516    0.466890
  H      0.255263   -3.645348    0.929075
  H      1.579164   -4.006664   -0.829384
  H      2.089112   -4.804114    0.602860
  H      1.466500   -5.741228   -0.685839
  C     -2.821279   -4.018960    3.426932
  O     -1.694309   -4.510608    4.047991
  H     -0.937718   -4.038095    3.738168
  H     -2.660955   -4.031095    2.353406
  H     -3.755240   -4.648577    3.567780
  H     -3.052784   -2.989722    3.669558

 Multiplicity           Mult            ....    1
 Number of Electrons    NEL             ....   18
 Basis Dimension        Dim             ....  172

ORBITAL ENERGIES
----------------

  NO   OCC          E(Eh)            E(eV)
   0   2.0000     -19.229634      -523.2649
   1   2.0000     -10.312258      -280.6108
   2   2.0000      -1.151272       -31.3277
   3   2.0000      -0.795219       -21.6390
   4   2.0000      -0.622733       -16.9454
   5   2.0000      -0.545540       -14.8449
   6   2.0000      -0.532117       -14.4796
   7   2.0000      -0.427587       -11.6352
   8   2.0000      -0.371963       -10.1216
   9   0.0000       0.076169         2.0727
  10   0.0000       0.117008         3.1839
  11   0.0000       0.152841         4.1590
  12   0.0000       0.176416         4.8005
  13   0.0000       0.190645         5.1877

MULLIKEN ATOMIC CHARGES
-----------------------
   0 C :    0.000053
   1 O :   -0.000050
   2 H :   -0.000449
   3 H :   -0.000002
   4 H :   -0.000021
   5 H :    0.000006
   6 C :   -0.162253
   7 O :   -0.466042
   8 H :    0.316371
   9 H :    0.099453
  10 H :    0.116684
  11 H :    0.096249
Sum of atomic charges:    0.0000000

LOEWDIN ATOMIC CHARGES
----------------------
   0 C :   -0.000035
   1 O :   -0.000433
   2 H :   -0.000618
   3 H :   -0.000001
   4 H :   -0.000004
   5 H :   -0.000001
   6 C :   -0.417095
   7 O :   -0.041921
   8 H :    0.163314
   9 H :    0.091018
  10 H :    0.117027
  11 H :    0.088748

  Mayer bond orders larger than 0.1
B(  6-C ,  7-O ) :   1.0007 B(  6-C ,  9-H ) :   0.9849 B(  6-C , 10-H ) :   0.9694
B(  6-C , 11-H ) :   0.9751 B(  7-O ,  8-H ) :   0.8988

Dispersion correction           -0.000227561
FINAL SINGLE POINT ENERGY      -115.732573184950

DIPOLE MOMENT
-------------
                                X             Y             Z
Electronic contribution:      1.45204      -0.73119       1.01698
Nuclear contribution   :     -1.38334       1.21952      -1.46963
                        -----------------------------------------
Total Dipole Moment    :      0.06869       0.48832      -0.45265
                        -----------------------------------------
Magnitude (a.u.)       :      0.66938
Magnitude (Debye)      :      1.70143

Rotational constants in cm-1:     4.398391     0.859720     0.825497
Rotational constants in MHz : 131860.430756 25773.770942 24747.782847

                             ****ORCA TERMINATED NORMALLY****
TOTAL RUN TIME: 0 days 0 hours 0 minutes 55 seconds 133 msec
