                         Program Version 4.1.2  - RELEASE  -
|  1> #Run DFT-D3 single point of the dimer
|  2> ! wB97X-D3 def2-TZVP TIGHTSCF CHELPG PMODEL PAL8
|  3>
|  4> %base "17-78_DFT_AB"
|  5>
|  6> %scf
|  7> MaxIter 1000
|  8> end
|  9>
| 10> * xyz 0 1
| 11>   C                      -1.143472            3.251015             -8.383428
| 12>   O                      -1.942154            2.903486             -9.464382
| 13>   H                      -1.698939            3.509440             -10.183064
| 14>   H                      -1.426148            2.504044             -7.571571
| 15>   H                      -0.084644            3.152513             -8.594473
| 16>   H                      -1.392792            4.268874             -8.070492
| 17>   C                      -3.203362            6.192710             -9.145522
| 18>   O                      -3.831210            7.290211             -9.826184
| 19>   H                      -3.923112            7.162933             -10.773128
| 20>   H                      -3.149242            6.536447             -8.116004
| 21>   H                      -3.900862            5.323204             -9.227978
| 22>   H                      -2.193706            6.016158             -9.562401
| 23> *
| 24>
| 25> #Run DFT-D3 single point of the molecule with dimer basis set
| 26> $new_job
| 27> %base "17-78_DFT_A"
| 28> ! wB97X-D3 def2-TZVP TIGHTSCF CHELPG PMODEL
| 29>
| 30> %scf
| 31> MaxIter 1000
| 32> end
| 33>
| 34> * xyz 0 1
| 35>   C                      -1.143472            3.251015             -8.383428
| 36>   O                      -1.942154            2.903486             -9.464382
| 37>   H                      -1.698939            3.509440             -10.183064
| 38>   H                      -1.426148            2.504044             -7.571571
| 39>   H                      -0.084644            3.152513             -8.594473
| 40>   H                      -1.392792            4.268874             -8.070492
| 41>   C                    : -3.203362            6.192710             -9.145522
| 42>   O                    : -3.831210            7.290211             -9.826184
| 43>   H                    : -3.923112            7.162933             -10.773128
| 44>   H                    : -3.149242            6.536447             -8.116004
| 45>   H                    : -3.900862            5.323204             -9.227978
| 46>   H                    : -2.193706            6.016158             -9.562401
| 47> *
| 48>
| 49> #Run DFT-D3 single point of the particle with dimer basis set
| 50> $new_job
| 51> %base "17-78_DFT_B"
| 52> ! wB97X-D3 def2-TZVP TIGHTSCF CHELPG PMODEL
| 53>
| 54> %scf
| 55> MaxIter 1000
| 56> end
| 57>
| 58> * xyz 0 1
| 59>   C                    : -1.143472            3.251015             -8.383428
| 60>   O                    : -1.942154            2.903486             -9.464382
| 61>   H                    : -1.698939            3.509440             -10.183064
| 62>   H                    : -1.426148            2.504044             -7.571571
| 63>   H                    : -0.084644            3.152513             -8.594473
| 64>   H                    : -1.392792            4.268874             -8.070492
| 65>   C                      -3.203362            6.192710             -9.145522
| 66>   O                      -3.831210            7.290211             -9.826184
| 67>   H                      -3.923112            7.162933             -10.773128
| 68>   H                      -3.149242            6.536447             -8.116004
| 69>   H                      -3.900862            5.323204             -9.227978
| 70>   H                      -2.193706            6.016158             -9.562401
| 71> *
| 72>
| 73>                          ****END OF INPUT****
 Total Charge           Charge          ....    0
 Multiplicity           Mult            ....    1
 Number of Electrons    NEL             ....   36
Dispersion correction           -0.001881516
FINAL SINGLE POINT ENERGY      -231.469903068691
Dispersion correction           -0.000216689
FINAL SINGLE POINT ENERGY      -115.734860504201

CARTESIAN COORDINATES (ANGSTROEM)
---------------------------------
  C     -1.143472    3.251015   -8.383428
  O     -1.942154    2.903486   -9.464382
  H     -1.698939    3.509440  -10.183064
  H     -1.426148    2.504044   -7.571571
  H     -0.084644    3.152513   -8.594473
  H     -1.392792    4.268874   -8.070492
  C     -3.203362    6.192710   -9.145522
  O     -3.831210    7.290211   -9.826184
  H     -3.923112    7.162933  -10.773128
  H     -3.149242    6.536447   -8.116004
  H     -3.900862    5.323204   -9.227978
  H     -2.193706    6.016158   -9.562401

 Multiplicity           Mult            ....    1
 Number of Electrons    NEL             ....   18
 Basis Dimension        Dim             ....  172

ORBITAL ENERGIES
----------------

  NO   OCC          E(Eh)            E(eV)
   0   2.0000     -19.222150      -523.0613
   1   2.0000     -10.318334      -280.7761
   2   2.0000      -1.123397       -30.5692
   3   2.0000      -0.794460       -21.6184
   4   2.0000      -0.600871       -16.3505
   5   2.0000      -0.543392       -14.7864
   6   2.0000      -0.523914       -14.2564
   7   2.0000      -0.424962       -11.5638
   8   2.0000      -0.370899       -10.0927
   9   0.0000       0.084647         2.3034
  10   0.0000       0.115643         3.1468
  11   0.0000       0.159664         4.3447
  12   0.0000       0.169331         4.6077
  13   0.0000       0.178051         4.8450

MULLIKEN ATOMIC CHARGES
-----------------------
   0 C :   -0.000343
   1 O :   -0.000638
   2 H :   -0.000992
   3 H :    0.000002
   4 H :    0.000099
   5 H :   -0.001181
   6 C :   -0.142105
   7 O :   -0.496220
   8 H :    0.311553
   9 H :    0.124945
  10 H :    0.101860
  11 H :    0.103020
Sum of atomic charges:   -0.0000000

LOEWDIN ATOMIC CHARGES
----------------------
   0 C :   -0.004763
   1 O :   -0.001244
   2 H :   -0.002685
   3 H :   -0.000027
   4 H :   -0.000036
   5 H :   -0.004429
   6 C :   -0.361267
   7 O :   -0.100644
   8 H :    0.160145
   9 H :    0.110863
  10 H :    0.102445
  11 H :    0.101641

  Mayer bond orders larger than 0.1
B(  6-C ,  7-O ) :   0.9924 B(  6-C ,  9-H ) :   0.9689 B(  6-C , 10-H ) :   0.9767
B(  6-C , 11-H ) :   0.9724 B(  7-O ,  8-H ) :   0.8983

Dispersion correction           -0.000248306
FINAL SINGLE POINT ENERGY      -115.734254454586

DIPOLE MOMENT
-------------
                                X             Y             Z
Electronic contribution:     -0.67912       1.30383      -0.68623
Nuclear contribution   :      0.88207      -1.82876       0.37086
                        -----------------------------------------
Total Dipole Moment    :      0.20295      -0.52493      -0.31537
                        -----------------------------------------
Magnitude (a.u.)       :      0.64513
Magnitude (Debye)      :      1.63980

Rotational constants in cm-1:     4.137755     0.813638     0.792874
Rotational constants in MHz : 124046.779181 24392.239060 23769.751116

                             ****ORCA TERMINATED NORMALLY****
TOTAL RUN TIME: 0 days 0 hours 1 minutes 12 seconds 91 msec
