                         Program Version 4.1.2  - RELEASE  -
|  1> #Run DFT-D3 single point of the dimer
|  2> ! wB97X-D3 def2-TZVP TIGHTSCF CHELPG PMODEL PAL8
|  3>
|  4> %base "20-104_DFT_AB"
|  5>
|  6> %scf
|  7> MaxIter 1000
|  8> end
|  9>
| 10> * xyz 0 1
| 11>   C                      9.120961             -6.849547            -2.911448
| 12>   O                      8.104281             -5.987390            -3.377930
| 13>   H                      7.520534             -6.399815            -3.979803
| 14>   H                      9.537305             -6.457883            -1.999201
| 15>   H                      8.666208             -7.838895            -2.838411
| 16>   H                      9.986982             -7.033741            -3.580794
| 17>   C                      7.744184             -10.654787           -3.444805
| 18>   O                      6.586102             -10.333390           -4.132204
| 19>   H                      5.925763             -10.827691           -3.628894
| 20>   H                      8.707866             -10.479906           -3.960858
| 21>   H                      7.903785             -9.976957            -2.584237
| 22>   H                      7.646756             -11.684471           -3.155189
| 23> *
| 24>
| 25> #Run DFT-D3 single point of the molecule with dimer basis set
| 26> $new_job
| 27> %base "20-104_DFT_A"
| 28> ! wB97X-D3 def2-TZVP TIGHTSCF CHELPG PMODEL
| 29>
| 30> %scf
| 31> MaxIter 1000
| 32> end
| 33>
| 34> * xyz 0 1
| 35>   C                      9.120961             -6.849547            -2.911448
| 36>   O                      8.104281             -5.987390            -3.377930
| 37>   H                      7.520534             -6.399815            -3.979803
| 38>   H                      9.537305             -6.457883            -1.999201
| 39>   H                      8.666208             -7.838895            -2.838411
| 40>   H                      9.986982             -7.033741            -3.580794
| 41>   C                    : 7.744184             -10.654787           -3.444805
| 42>   O                    : 6.586102             -10.333390           -4.132204
| 43>   H                    : 5.925763             -10.827691           -3.628894
| 44>   H                    : 8.707866             -10.479906           -3.960858
| 45>   H                    : 7.903785             -9.976957            -2.584237
| 46>   H                    : 7.646756             -11.684471           -3.155189
| 47> *
| 48>
| 49> #Run DFT-D3 single point of the particle with dimer basis set
| 50> $new_job
| 51> %base "20-104_DFT_B"
| 52> ! wB97X-D3 def2-TZVP TIGHTSCF CHELPG PMODEL
| 53>
| 54> %scf
| 55> MaxIter 1000
| 56> end
| 57>
| 58> * xyz 0 1
| 59>   C                    : 9.120961             -6.849547            -2.911448
| 60>   O                    : 8.104281             -5.987390            -3.377930
| 61>   H                    : 7.520534             -6.399815            -3.979803
| 62>   H                    : 9.537305             -6.457883            -1.999201
| 63>   H                    : 8.666208             -7.838895            -2.838411
| 64>   H                    : 9.986982             -7.033741            -3.580794
| 65>   C                      7.744184             -10.654787           -3.444805
| 66>   O                      6.586102             -10.333390           -4.132204
| 67>   H                      5.925763             -10.827691           -3.628894
| 68>   H                      8.707866             -10.479906           -3.960858
| 69>   H                      7.903785             -9.976957            -2.584237
| 70>   H                      7.646756             -11.684471           -3.155189
| 71> *
| 72>
| 73>                          ****END OF INPUT****
 Total Charge           Charge          ....    0
 Multiplicity           Mult            ....    1
 Number of Electrons    NEL             ....   36
Dispersion correction           -0.001428875
FINAL SINGLE POINT ENERGY      -231.461534765384
Dispersion correction           -0.000248629
FINAL SINGLE POINT ENERGY      -115.731657957850

CARTESIAN COORDINATES (ANGSTROEM)
---------------------------------
  C      9.120961   -6.849547   -2.911448
  O      8.104281   -5.987390   -3.377930
  H      7.520534   -6.399815   -3.979803
  H      9.537305   -6.457883   -1.999201
  H      8.666208   -7.838895   -2.838411
  H      9.986982   -7.033741   -3.580794
  C      7.744184  -10.654787   -3.444805
  O      6.586102  -10.333390   -4.132204
  H      5.925763  -10.827691   -3.628894
  H      8.707866  -10.479906   -3.960858
  H      7.903785   -9.976957   -2.584237
  H      7.646756  -11.684471   -3.155189

 Multiplicity           Mult            ....    1
 Number of Electrons    NEL             ....   18
 Basis Dimension        Dim             ....  172

ORBITAL ENERGIES
----------------

  NO   OCC          E(Eh)            E(eV)
   0   2.0000     -19.232549      -523.3443
   1   2.0000     -10.311514      -280.5906
   2   2.0000      -1.150562       -31.3084
   3   2.0000      -0.790145       -21.5009
   4   2.0000      -0.614920       -16.7328
   5   2.0000      -0.553979       -15.0745
   6   2.0000      -0.530699       -14.4410
   7   2.0000      -0.433411       -11.7937
   8   2.0000      -0.369865       -10.0645
   9   0.0000       0.089122         2.4251
  10   0.0000       0.117423         3.1952
  11   0.0000       0.153644         4.1809
  12   0.0000       0.174688         4.7535
  13   0.0000       0.184689         5.0256

MULLIKEN ATOMIC CHARGES
-----------------------
   0 C :   -0.003744
   1 O :    0.000051
   2 H :   -0.000476
   3 H :    0.000189
   4 H :    0.007462
   5 H :    0.000004
   6 C :   -0.176014
   7 O :   -0.456968
   8 H :    0.318291
   9 H :    0.112163
  10 H :    0.089313
  11 H :    0.109730
Sum of atomic charges:    0.0000000

LOEWDIN ATOMIC CHARGES
----------------------
   0 C :   -0.001645
   1 O :   -0.000030
   2 H :   -0.000325
   3 H :   -0.000008
   4 H :   -0.004819
   5 H :   -0.000065
   6 C :   -0.416027
   7 O :   -0.057390
   8 H :    0.181633
   9 H :    0.109232
  10 H :    0.096756
  11 H :    0.092687

  Mayer bond orders larger than 0.1
B(  6-C ,  7-O ) :   1.0029 B(  6-C ,  9-H ) :   0.9735 B(  6-C , 10-H ) :   0.9728
B(  6-C , 11-H ) :   0.9933 B(  7-O ,  8-H ) :   0.8990

Dispersion correction           -0.000215378
FINAL SINGLE POINT ENERGY      -115.728339884694

DIPOLE MOMENT
-------------
                                X             Y             Z
Electronic contribution:     -1.48477       0.45646      -1.09785
Nuclear contribution   :      1.51178      -0.88662       1.65182
                        -----------------------------------------
Total Dipole Moment    :      0.02701      -0.43016       0.55397
                        -----------------------------------------
Magnitude (a.u.)       :      0.70189
Magnitude (Debye)      :      1.78406

Rotational constants in cm-1:     4.298954     0.866232     0.829110
Rotational constants in MHz : 128879.384501 25968.982964 24856.086907

                             ****ORCA TERMINATED NORMALLY****
TOTAL RUN TIME: 0 days 0 hours 1 minutes 4 seconds 113 msec
