                         Program Version 4.1.2  - RELEASE  -
|  1> #Run DFT-D3 single point of the dimer
|  2> ! wB97X-D3 def2-TZVP TIGHTSCF CHELPG PMODEL PAL8
|  3>
|  4> %base "12-169_DFT_AB"
|  5>
|  6> %scf
|  7> MaxIter 1000
|  8> end
|  9>
| 10> * xyz 0 1
| 11>   C                      1.318860             -1.697899            7.856992
| 12>   O                      2.557502             -1.449032            7.253354
| 13>   H                      2.770151             -2.195870            6.654337
| 14>   H                      0.580318             -2.107661            7.192586
| 15>   H                      1.329808             -2.414898            8.723583
| 16>   H                      0.808461             -0.750369            8.075413
| 17>   C                      2.485700             -4.194704            5.209325
| 18>   O                      3.663128             -3.523521            5.620104
| 19>   H                      4.428387             -4.028100            5.328446
| 20>   H                      1.622021             -3.552528            4.937602
| 21>   H                      2.732808             -4.689680            4.272178
| 22>   H                      2.145667             -4.967365            5.780073
| 23> *
| 24>
| 25> #Run DFT-D3 single point of the molecule with dimer basis set
| 26> $new_job
| 27> %base "12-169_DFT_A"
| 28> ! wB97X-D3 def2-TZVP TIGHTSCF CHELPG PMODEL
| 29>
| 30> %scf
| 31> MaxIter 1000
| 32> end
| 33>
| 34> * xyz 0 1
| 35>   C                      1.318860             -1.697899            7.856992
| 36>   O                      2.557502             -1.449032            7.253354
| 37>   H                      2.770151             -2.195870            6.654337
| 38>   H                      0.580318             -2.107661            7.192586
| 39>   H                      1.329808             -2.414898            8.723583
| 40>   H                      0.808461             -0.750369            8.075413
| 41>   C                    : 2.485700             -4.194704            5.209325
| 42>   O                    : 3.663128             -3.523521            5.620104
| 43>   H                    : 4.428387             -4.028100            5.328446
| 44>   H                    : 1.622021             -3.552528            4.937602
| 45>   H                    : 2.732808             -4.689680            4.272178
| 46>   H                    : 2.145667             -4.967365            5.780073
| 47> *
| 48>
| 49> #Run DFT-D3 single point of the particle with dimer basis set
| 50> $new_job
| 51> %base "12-169_DFT_B"
| 52> ! wB97X-D3 def2-TZVP TIGHTSCF CHELPG PMODEL
| 53>
| 54> %scf
| 55> MaxIter 1000
| 56> end
| 57>
| 58> * xyz 0 1
| 59>   C                    : 1.318860             -1.697899            7.856992
| 60>   O                    : 2.557502             -1.449032            7.253354
| 61>   H                    : 2.770151             -2.195870            6.654337
| 62>   H                    : 0.580318             -2.107661            7.192586
| 63>   H                    : 1.329808             -2.414898            8.723583
| 64>   H                    : 0.808461             -0.750369            8.075413
| 65>   C                      2.485700             -4.194704            5.209325
| 66>   O                      3.663128             -3.523521            5.620104
| 67>   H                      4.428387             -4.028100            5.328446
| 68>   H                      1.622021             -3.552528            4.937602
| 69>   H                      2.732808             -4.689680            4.272178
| 70>   H                      2.145667             -4.967365            5.780073
| 71> *
| 72>
| 73>                          ****END OF INPUT****
 Total Charge           Charge          ....    0
 Multiplicity           Mult            ....    1
 Number of Electrons    NEL             ....   36
Dispersion correction           -0.001963420
FINAL SINGLE POINT ENERGY      -231.463678960500
Dispersion correction           -0.000257668
FINAL SINGLE POINT ENERGY      -115.731837846690

CARTESIAN COORDINATES (ANGSTROEM)
---------------------------------
  C      1.318860   -1.697899    7.856992
  O      2.557502   -1.449032    7.253354
  H      2.770151   -2.195870    6.654337
  H      0.580318   -2.107661    7.192586
  H      1.329808   -2.414898    8.723583
  H      0.808461   -0.750369    8.075413
  C      2.485700   -4.194704    5.209325
  O      3.663128   -3.523521    5.620104
  H      4.428387   -4.028100    5.328446
  H      1.622021   -3.552528    4.937602
  H      2.732808   -4.689680    4.272178
  H      2.145667   -4.967365    5.780073

 Multiplicity           Mult            ....    1
 Number of Electrons    NEL             ....   18
 Basis Dimension        Dim             ....  172

ORBITAL ENERGIES
----------------

  NO   OCC          E(Eh)            E(eV)
   0   2.0000     -19.231743      -523.3223
   1   2.0000     -10.306663      -280.4586
   2   2.0000      -1.135452       -30.8972
   3   2.0000      -0.803797       -21.8724
   4   2.0000      -0.616316       -16.7708
   5   2.0000      -0.545068       -14.8320
   6   2.0000      -0.530627       -14.4391
   7   2.0000      -0.427079       -11.6214
   8   2.0000      -0.376548       -10.2464
   9   0.0000       0.095247         2.5918
  10   0.0000       0.120355         3.2750
  11   0.0000       0.151351         4.1185
  12   0.0000       0.190032         5.1710
  13   0.0000       0.200603         5.4587

MULLIKEN ATOMIC CHARGES
-----------------------
   0 C :    0.001079
   1 O :    0.001649
   2 H :   -0.010885
   3 H :   -0.000275
   4 H :   -0.000306
   5 H :    0.000026
   6 C :   -0.175614
   7 O :   -0.467806
   8 H :    0.313768
   9 H :    0.122564
  10 H :    0.100999
  11 H :    0.114801
Sum of atomic charges:    0.0000000

LOEWDIN ATOMIC CHARGES
----------------------
   0 C :   -0.002049
   1 O :   -0.004983
   2 H :   -0.038651
   3 H :   -0.001094
   4 H :   -0.000045
   5 H :   -0.000018
   6 C :   -0.371781
   7 O :   -0.045628
   8 H :    0.171392
   9 H :    0.115052
  10 H :    0.099467
  11 H :    0.078340

  Mayer bond orders larger than 0.1
B(  6-C ,  7-O ) :   0.9915 B(  6-C ,  9-H ) :   0.9767 B(  6-C , 10-H ) :   0.9898
B(  6-C , 11-H ) :   0.9678 B(  7-O ,  8-H ) :   0.8973

Dispersion correction           -0.000240664
FINAL SINGLE POINT ENERGY      -115.726367438814

DIPOLE MOMENT
-------------
                                X             Y             Z
Electronic contribution:      1.40813       1.00339       0.80859
Nuclear contribution   :     -1.38927      -1.62878      -1.19207
                        -----------------------------------------
Total Dipole Moment    :      0.01886      -0.62539      -0.38348
                        -----------------------------------------
Magnitude (a.u.)       :      0.73384
Magnitude (Debye)      :      1.86528

Rotational constants in cm-1:     4.607197     0.824320     0.791461
Rotational constants in MHz : 138120.303290 24712.480664 23727.411534

                             ****ORCA TERMINATED NORMALLY****
TOTAL RUN TIME: 0 days 0 hours 1 minutes 16 seconds 803 msec
