                         Program Version 4.1.2  - RELEASE  -
|  1> #Run DFT-D3 single point of the dimer
|  2> ! wB97X-D3 def2-TZVP TIGHTSCF CHELPG PMODEL PAL8
|  3>
|  4> %base "20-111_DFT_AB"
|  5>
|  6> %scf
|  7> MaxIter 1000
|  8> end
|  9>
| 10> * xyz 0 1
| 11>   C                      8.561412             8.547478             4.824897
| 12>   O                      9.910336             8.738627             5.198127
| 13>   H                      10.345457            7.856624             5.169852
| 14>   H                      8.078113             7.916050             5.563454
| 15>   H                      7.927140             9.450870             4.820817
| 16>   H                      8.344884             8.088721             3.855047
| 17>   C                      10.919950            5.229899             4.053784
| 18>   O                      11.224414            5.982413             5.237065
| 19>   H                      11.046507            5.502677             6.047237
| 20>   H                      10.228900            4.416066             4.252768
| 21>   H                      10.352604            5.947194             3.401604
| 22>   H                      11.862323            4.890610             3.525476
| 23> *
| 24>
| 25> #Run DFT-D3 single point of the molecule with dimer basis set
| 26> $new_job
| 27> %base "20-111_DFT_A"
| 28> ! wB97X-D3 def2-TZVP TIGHTSCF CHELPG PMODEL
| 29>
| 30> %scf
| 31> MaxIter 1000
| 32> end
| 33>
| 34> * xyz 0 1
| 35>   C                      8.561412             8.547478             4.824897
| 36>   O                      9.910336             8.738627             5.198127
| 37>   H                      10.345457            7.856624             5.169852
| 38>   H                      8.078113             7.916050             5.563454
| 39>   H                      7.927140             9.450870             4.820817
| 40>   H                      8.344884             8.088721             3.855047
| 41>   C                    : 10.919950            5.229899             4.053784
| 42>   O                    : 11.224414            5.982413             5.237065
| 43>   H                    : 11.046507            5.502677             6.047237
| 44>   H                    : 10.228900            4.416066             4.252768
| 45>   H                    : 10.352604            5.947194             3.401604
| 46>   H                    : 11.862323            4.890610             3.525476
| 47> *
| 48>
| 49> #Run DFT-D3 single point of the particle with dimer basis set
| 50> $new_job
| 51> %base "20-111_DFT_B"
| 52> ! wB97X-D3 def2-TZVP TIGHTSCF CHELPG PMODEL
| 53>
| 54> %scf
| 55> MaxIter 1000
| 56> end
| 57>
| 58> * xyz 0 1
| 59>   C                    : 8.561412             8.547478             4.824897
| 60>   O                    : 9.910336             8.738627             5.198127
| 61>   H                    : 10.345457            7.856624             5.169852
| 62>   H                    : 8.078113             7.916050             5.563454
| 63>   H                    : 7.927140             9.450870             4.820817
| 64>   H                    : 8.344884             8.088721             3.855047
| 65>   C                      10.919950            5.229899             4.053784
| 66>   O                      11.224414            5.982413             5.237065
| 67>   H                      11.046507            5.502677             6.047237
| 68>   H                      10.228900            4.416066             4.252768
| 69>   H                      10.352604            5.947194             3.401604
| 70>   H                      11.862323            4.890610             3.525476
| 71> *
| 72>
| 73>                          ****END OF INPUT****
 Total Charge           Charge          ....    0
 Multiplicity           Mult            ....    1
 Number of Electrons    NEL             ....   36
Dispersion correction           -0.001942280
FINAL SINGLE POINT ENERGY      -231.474359094334
Dispersion correction           -0.000255533
FINAL SINGLE POINT ENERGY      -115.732180461768

CARTESIAN COORDINATES (ANGSTROEM)
---------------------------------
  C      8.561412    8.547478    4.824897
  O      9.910336    8.738627    5.198127
  H     10.345457    7.856624    5.169852
  H      8.078113    7.916050    5.563454
  H      7.927140    9.450870    4.820817
  H      8.344884    8.088721    3.855047
  C     10.919950    5.229899    4.053784
  O     11.224414    5.982413    5.237065
  H     11.046507    5.502677    6.047237
  H     10.228900    4.416066    4.252768
  H     10.352604    5.947194    3.401604
  H     11.862323    4.890610    3.525476

 Multiplicity           Mult            ....    1
 Number of Electrons    NEL             ....   18
 Basis Dimension        Dim             ....  172

ORBITAL ENERGIES
----------------

  NO   OCC          E(Eh)            E(eV)
   0   2.0000     -19.227374      -523.2034
   1   2.0000     -10.321900      -280.8732
   2   2.0000      -1.126777       -30.6612
   3   2.0000      -0.793584       -21.5945
   4   2.0000      -0.608573       -16.5601
   5   2.0000      -0.537963       -14.6387
   6   2.0000      -0.519228       -14.1289
   7   2.0000      -0.428997       -11.6736
   8   2.0000      -0.372624       -10.1396
   9   0.0000       0.092495         2.5169
  10   0.0000       0.124377         3.3845
  11   0.0000       0.150247         4.0884
  12   0.0000       0.182294         4.9605
  13   0.0000       0.197921         5.3857

MULLIKEN ATOMIC CHARGES
-----------------------
   0 C :   -0.001129
   1 O :   -0.001186
   2 H :   -0.003470
   3 H :   -0.001155
   4 H :   -0.000209
   5 H :   -0.000494
   6 C :   -0.164235
   7 O :   -0.485626
   8 H :    0.315529
   9 H :    0.112010
  10 H :    0.118439
  11 H :    0.111526
Sum of atomic charges:   -0.0000000

LOEWDIN ATOMIC CHARGES
----------------------
   0 C :   -0.002710
   1 O :   -0.003135
   2 H :   -0.032885
   3 H :   -0.000443
   4 H :   -0.000047
   5 H :   -0.000634
   6 C :   -0.370980
   7 O :   -0.064821
   8 H :    0.162755
   9 H :    0.094979
  10 H :    0.111624
  11 H :    0.106299

  Mayer bond orders larger than 0.1
B(  6-C ,  7-O ) :   0.9870 B(  6-C ,  9-H ) :   0.9751 B(  6-C , 10-H ) :   0.9801
B(  6-C , 11-H ) :   0.9695 B(  7-O ,  8-H ) :   0.8965

Dispersion correction           -0.000269662
FINAL SINGLE POINT ENERGY      -115.733370705303

DIPOLE MOMENT
-------------
                                X             Y             Z
Electronic contribution:      0.45678       0.89809       1.43311
Nuclear contribution   :     -0.72354      -1.53811      -1.37899
                        -----------------------------------------
Total Dipole Moment    :     -0.26676      -0.64002       0.05412
                        -----------------------------------------
Magnitude (a.u.)       :      0.69550
Magnitude (Debye)      :      1.76782

Rotational constants in cm-1:     4.178434     0.802463     0.782943
Rotational constants in MHz : 125266.300418 24057.221817 23472.035323

                             ****ORCA TERMINATED NORMALLY****
TOTAL RUN TIME: 0 days 0 hours 1 minutes 6 seconds 985 msec
