                         Program Version 4.1.2  - RELEASE  -
|  1> #Run DFT-D3 single point of the dimer
|  2> ! wB97X-D3 def2-TZVP TIGHTSCF CHELPG PMODEL PAL8
|  3>
|  4> %base "11-205_DFT_AB"
|  5>
|  6> %scf
|  7> MaxIter 1000
|  8> end
|  9>
| 10> * xyz 0 1
| 11>   C                      -6.042309            8.145452             10.483026
| 12>   O                      -5.589518            9.375689             9.877691
| 13>   H                      -4.830529            9.137405             9.341089
| 14>   H                      -5.184120            7.503864             10.640316
| 15>   H                      -6.559645            8.211914             11.418018
| 16>   H                      -6.702280            7.647566             9.807251
| 17>   C                      -3.570713            9.075903             6.490492
| 18>   O                      -3.728157            9.556461             7.780645
| 19>   H                      -4.106973            10.421844            7.695995
| 20>   H                      -4.541362            8.784192             6.088251
| 21>   H                      -3.087843            9.791033             5.843062
| 22>   H                      -3.000787            8.172280             6.479971
| 23> *
| 24>
| 25> #Run DFT-D3 single point of the molecule with dimer basis set
| 26> $new_job
| 27> %base "11-205_DFT_A"
| 28> ! wB97X-D3 def2-TZVP TIGHTSCF CHELPG PMODEL
| 29>
| 30> %scf
| 31> MaxIter 1000
| 32> end
| 33>
| 34> * xyz 0 1
| 35>   C                      -6.042309            8.145452             10.483026
| 36>   O                      -5.589518            9.375689             9.877691
| 37>   H                      -4.830529            9.137405             9.341089
| 38>   H                      -5.184120            7.503864             10.640316
| 39>   H                      -6.559645            8.211914             11.418018
| 40>   H                      -6.702280            7.647566             9.807251
| 41>   C                    : -3.570713            9.075903             6.490492
| 42>   O                    : -3.728157            9.556461             7.780645
| 43>   H                    : -4.106973            10.421844            7.695995
| 44>   H                    : -4.541362            8.784192             6.088251
| 45>   H                    : -3.087843            9.791033             5.843062
| 46>   H                    : -3.000787            8.172280             6.479971
| 47> *
| 48>
| 49> #Run DFT-D3 single point of the particle with dimer basis set
| 50> $new_job
| 51> %base "11-205_DFT_B"
| 52> ! wB97X-D3 def2-TZVP TIGHTSCF CHELPG PMODEL
| 53>
| 54> %scf
| 55> MaxIter 1000
| 56> end
| 57>
| 58> * xyz 0 1
| 59>   C                    : -6.042309            8.145452             10.483026
| 60>   O                    : -5.589518            9.375689             9.877691
| 61>   H                    : -4.830529            9.137405             9.341089
| 62>   H                    : -5.184120            7.503864             10.640316
| 63>   H                    : -6.559645            8.211914             11.418018
| 64>   H                    : -6.702280            7.647566             9.807251
| 65>   C                      -3.570713            9.075903             6.490492
| 66>   O                      -3.728157            9.556461             7.780645
| 67>   H                      -4.106973            10.421844            7.695995
| 68>   H                      -4.541362            8.784192             6.088251
| 69>   H                      -3.087843            9.791033             5.843062
| 70>   H                      -3.000787            8.172280             6.479971
| 71> *
| 72>
| 73>                          ****END OF INPUT****
 Total Charge           Charge          ....    0
 Multiplicity           Mult            ....    1
 Number of Electrons    NEL             ....   36
Dispersion correction           -0.001474025
FINAL SINGLE POINT ENERGY      -231.475343963774
Dispersion correction           -0.000237087
FINAL SINGLE POINT ENERGY      -115.732326439463

CARTESIAN COORDINATES (ANGSTROEM)
---------------------------------
  C     -6.042309    8.145452   10.483026
  O     -5.589518    9.375689    9.877691
  H     -4.830529    9.137405    9.341089
  H     -5.184120    7.503864   10.640316
  H     -6.559645    8.211914   11.418018
  H     -6.702280    7.647566    9.807251
  C     -3.570713    9.075903    6.490492
  O     -3.728157    9.556461    7.780645
  H     -4.106973   10.421844    7.695995
  H     -4.541362    8.784192    6.088251
  H     -3.087843    9.791033    5.843062
  H     -3.000787    8.172280    6.479971

 Multiplicity           Mult            ....    1
 Number of Electrons    NEL             ....   18
 Basis Dimension        Dim             ....  172

ORBITAL ENERGIES
----------------

  NO   OCC          E(Eh)            E(eV)
   0   2.0000     -19.229313      -523.2562
   1   2.0000     -10.305773      -280.4343
   2   2.0000      -1.148914       -31.2635
   3   2.0000      -0.798536       -21.7293
   4   2.0000      -0.616782       -16.7835
   5   2.0000      -0.549341       -14.9483
   6   2.0000      -0.535324       -14.5669
   7   2.0000      -0.434533       -11.8242
   8   2.0000      -0.372747       -10.1430
   9   0.0000       0.097620         2.6564
  10   0.0000       0.123623         3.3640
  11   0.0000       0.157635         4.2895
  12   0.0000       0.195047         5.3075
  13   0.0000       0.200870         5.4660

MULLIKEN ATOMIC CHARGES
-----------------------
   0 C :   -0.001555
   1 O :   -0.002458
   2 H :   -0.006909
   3 H :   -0.000272
   4 H :   -0.000097
   5 H :   -0.000031
   6 C :   -0.150146
   7 O :   -0.461756
   8 H :    0.314975
   9 H :    0.091783
  10 H :    0.100384
  11 H :    0.116082
Sum of atomic charges:   -0.0000000

LOEWDIN ATOMIC CHARGES
----------------------
   0 C :   -0.001490
   1 O :   -0.008070
   2 H :   -0.041471
   3 H :   -0.000139
   4 H :   -0.000035
   5 H :   -0.000069
   6 C :   -0.398807
   7 O :   -0.009216
   8 H :    0.168663
   9 H :    0.093562
  10 H :    0.093485
  11 H :    0.103589

  Mayer bond orders larger than 0.1
B(  6-C ,  7-O ) :   0.9932 B(  6-C ,  9-H ) :   0.9825 B(  6-C , 10-H ) :   0.9756
B(  6-C , 11-H ) :   0.9769 B(  7-O ,  8-H ) :   0.8986

Dispersion correction           -0.000213769
FINAL SINGLE POINT ENERGY      -115.735607580560

DIPOLE MOMENT
-------------
                                X             Y             Z
Electronic contribution:     -0.07856       0.54363       1.73122
Nuclear contribution   :     -0.07837      -0.18729      -2.28880
                        -----------------------------------------
Total Dipole Moment    :     -0.15693       0.35633      -0.55758
                        -----------------------------------------
Magnitude (a.u.)       :      0.68007
Magnitude (Debye)      :      1.72859

Rotational constants in cm-1:     4.406363     0.863286     0.834710
Rotational constants in MHz : 132099.434305 25880.662402 25023.966106

                             ****ORCA TERMINATED NORMALLY****
TOTAL RUN TIME: 0 days 0 hours 1 minutes 8 seconds 314 msec
