                         Program Version 4.1.2  - RELEASE  -
|  1> #Run DFT-D3 single point of the dimer
|  2> ! wB97X-D3 def2-TZVP TIGHTSCF CHELPG PMODEL PAL8
|  3>
|  4> %base "15-203_DFT_AB"
|  5>
|  6> %scf
|  7> MaxIter 1000
|  8> end
|  9>
| 10> * xyz 0 1
| 11>   C                      8.801717             7.016015             9.246804
| 12>   O                      7.755388             6.219266             8.845088
| 13>   H                      7.295070             5.892641             9.580147
| 14>   H                      9.336976             6.494440             10.057822
| 15>   H                      9.570985             7.269247             8.465971
| 16>   H                      8.421084             8.041279             9.507340
| 17>   C                      5.691484             3.687589             9.924490
| 18>   O                      6.258085             4.825600             10.501742
| 19>   H                      6.803785             4.441316             11.184949
| 20>   H                      4.910656             3.932939             9.158652
| 21>   H                      6.429347             3.084495             9.375911
| 22>   H                      5.196778             2.975778             10.677494
| 23> *
| 24>
| 25> #Run DFT-D3 single point of the molecule with dimer basis set
| 26> $new_job
| 27> %base "15-203_DFT_A"
| 28> ! wB97X-D3 def2-TZVP TIGHTSCF CHELPG PMODEL
| 29>
| 30> %scf
| 31> MaxIter 1000
| 32> end
| 33>
| 34> * xyz 0 1
| 35>   C                      8.801717             7.016015             9.246804
| 36>   O                      7.755388             6.219266             8.845088
| 37>   H                      7.295070             5.892641             9.580147
| 38>   H                      9.336976             6.494440             10.057822
| 39>   H                      9.570985             7.269247             8.465971
| 40>   H                      8.421084             8.041279             9.507340
| 41>   C                    : 5.691484             3.687589             9.924490
| 42>   O                    : 6.258085             4.825600             10.501742
| 43>   H                    : 6.803785             4.441316             11.184949
| 44>   H                    : 4.910656             3.932939             9.158652
| 45>   H                    : 6.429347             3.084495             9.375911
| 46>   H                    : 5.196778             2.975778             10.677494
| 47> *
| 48>
| 49> #Run DFT-D3 single point of the particle with dimer basis set
| 50> $new_job
| 51> %base "15-203_DFT_B"
| 52> ! wB97X-D3 def2-TZVP TIGHTSCF CHELPG PMODEL
| 53>
| 54> %scf
| 55> MaxIter 1000
| 56> end
| 57>
| 58> * xyz 0 1
| 59>   C                    : 8.801717             7.016015             9.246804
| 60>   O                    : 7.755388             6.219266             8.845088
| 61>   H                    : 7.295070             5.892641             9.580147
| 62>   H                    : 9.336976             6.494440             10.057822
| 63>   H                    : 9.570985             7.269247             8.465971
| 64>   H                    : 8.421084             8.041279             9.507340
| 65>   C                      5.691484             3.687589             9.924490
| 66>   O                      6.258085             4.825600             10.501742
| 67>   H                      6.803785             4.441316             11.184949
| 68>   H                      4.910656             3.932939             9.158652
| 69>   H                      6.429347             3.084495             9.375911
| 70>   H                      5.196778             2.975778             10.677494
| 71> *
| 72>
| 73>                          ****END OF INPUT****
 Total Charge           Charge          ....    0
 Multiplicity           Mult            ....    1
 Number of Electrons    NEL             ....   36
Dispersion correction           -0.001680740
FINAL SINGLE POINT ENERGY      -231.468383690819
Dispersion correction           -0.000233370
FINAL SINGLE POINT ENERGY      -115.730001315052

CARTESIAN COORDINATES (ANGSTROEM)
---------------------------------
  C      8.801717    7.016015    9.246804
  O      7.755388    6.219266    8.845088
  H      7.295070    5.892641    9.580147
  H      9.336976    6.494440   10.057822
  H      9.570985    7.269247    8.465971
  H      8.421084    8.041279    9.507340
  C      5.691484    3.687589    9.924490
  O      6.258085    4.825600   10.501742
  H      6.803785    4.441316   11.184949
  H      4.910656    3.932939    9.158652
  H      6.429347    3.084495    9.375911
  H      5.196778    2.975778   10.677494

 Multiplicity           Mult            ....    1
 Number of Electrons    NEL             ....   18
 Basis Dimension        Dim             ....  172

ORBITAL ENERGIES
----------------

  NO   OCC          E(Eh)            E(eV)
   0   2.0000     -19.237507      -523.4792
   1   2.0000     -10.321484      -280.8619
   2   2.0000      -1.150866       -31.3166
   3   2.0000      -0.787883       -21.4394
   4   2.0000      -0.615358       -16.7447
   5   2.0000      -0.539096       -14.6695
   6   2.0000      -0.530152       -14.4262
   7   2.0000      -0.438244       -11.9252
   8   2.0000      -0.375094       -10.2068
   9   0.0000       0.096073         2.6143
  10   0.0000       0.122551         3.3348
  11   0.0000       0.150882         4.1057
  12   0.0000       0.188338         5.1249
  13   0.0000       0.197720         5.3802

MULLIKEN ATOMIC CHARGES
-----------------------
   0 C :    0.001732
   1 O :    0.000658
   2 H :   -0.009897
   3 H :   -0.001431
   4 H :   -0.000133
   5 H :   -0.000285
   6 C :   -0.184503
   7 O :   -0.450669
   8 H :    0.318039
   9 H :    0.121166
  10 H :    0.105077
  11 H :    0.100248
Sum of atomic charges:    0.0000000

LOEWDIN ATOMIC CHARGES
----------------------
   0 C :   -0.002589
   1 O :   -0.012459
   2 H :   -0.065582
   3 H :   -0.000518
   4 H :   -0.000046
   5 H :   -0.000066
   6 C :   -0.415281
   7 O :    0.011197
   8 H :    0.175410
   9 H :    0.113014
  10 H :    0.093354
  11 H :    0.103566

  Mayer bond orders larger than 0.1
B(  6-C ,  7-O ) :   0.9874 B(  6-C ,  9-H ) :   0.9753 B(  6-C , 10-H ) :   0.9751
B(  6-C , 11-H ) :   0.9686 B(  7-O ,  8-H ) :   0.8979

Dispersion correction           -0.000237865
FINAL SINGLE POINT ENERGY      -115.733351371977

DIPOLE MOMENT
-------------
                                X             Y             Z
Electronic contribution:      0.71204       1.72999       0.70483
Nuclear contribution   :     -0.58649      -2.38282      -0.50439
                        -----------------------------------------
Total Dipole Moment    :      0.12555      -0.65283       0.20044
                        -----------------------------------------
Magnitude (a.u.)       :      0.69436
Magnitude (Debye)      :      1.76492

Rotational constants in cm-1:     4.174570     0.842442     0.808530
Rotational constants in MHz : 125150.458725 25255.769473 24239.105894

                             ****ORCA TERMINATED NORMALLY****
TOTAL RUN TIME: 0 days 0 hours 1 minutes 6 seconds 353 msec
