                         Program Version 4.1.2  - RELEASE  -
|  1> #Run DFT-D3 single point of the dimer
|  2> ! wB97X-D3 def2-TZVP TIGHTSCF CHELPG PMODEL PAL8
|  3>
|  4> %base "10-148_DFT_AB"
|  5>
|  6> %scf
|  7> MaxIter 1000
|  8> end
|  9>
| 10> * xyz 0 1
| 11>   C                      -2.728455            -8.294067            -3.970005
| 12>   O                      -1.346350            -8.753726            -4.049427
| 13>   H                      -1.341560            -9.587864            -3.613665
| 14>   H                      -3.399248            -9.087153            -4.171375
| 15>   H                      -2.930991            -7.956123            -2.995674
| 16>   H                      -2.988727            -7.505298            -4.671363
| 17>   C                      -0.044900            -8.393597            0.078068
| 18>   O                      -1.382602            -8.831808            -0.218528
| 19>   H                      -1.320086            -9.328021            -0.996402
| 20>   H                      0.416591             -8.024864            -0.837655
| 21>   H                      -0.006257            -7.610653            0.880495
| 22>   H                      0.607919             -9.246314            0.494425
| 23> *
| 24>
| 25> #Run DFT-D3 single point of the molecule with dimer basis set
| 26> $new_job
| 27> %base "10-148_DFT_A"
| 28> ! wB97X-D3 def2-TZVP TIGHTSCF CHELPG PMODEL
| 29>
| 30> %scf
| 31> MaxIter 1000
| 32> end
| 33>
| 34> * xyz 0 1
| 35>   C                      -2.728455            -8.294067            -3.970005
| 36>   O                      -1.346350            -8.753726            -4.049427
| 37>   H                      -1.341560            -9.587864            -3.613665
| 38>   H                      -3.399248            -9.087153            -4.171375
| 39>   H                      -2.930991            -7.956123            -2.995674
| 40>   H                      -2.988727            -7.505298            -4.671363
| 41>   C                    : -0.044900            -8.393597            0.078068
| 42>   O                    : -1.382602            -8.831808            -0.218528
| 43>   H                    : -1.320086            -9.328021            -0.996402
| 44>   H                    : 0.416591             -8.024864            -0.837655
| 45>   H                    : -0.006257            -7.610653            0.880495
| 46>   H                    : 0.607919             -9.246314            0.494425
| 47> *
| 48>
| 49> #Run DFT-D3 single point of the particle with dimer basis set
| 50> $new_job
| 51> %base "10-148_DFT_B"
| 52> ! wB97X-D3 def2-TZVP TIGHTSCF CHELPG PMODEL
| 53>
| 54> %scf
| 55> MaxIter 1000
| 56> end
| 57>
| 58> * xyz 0 1
| 59>   C                    : -2.728455            -8.294067            -3.970005
| 60>   O                    : -1.346350            -8.753726            -4.049427
| 61>   H                    : -1.341560            -9.587864            -3.613665
| 62>   H                    : -3.399248            -9.087153            -4.171375
| 63>   H                    : -2.930991            -7.956123            -2.995674
| 64>   H                    : -2.988727            -7.505298            -4.671363
| 65>   C                      -0.044900            -8.393597            0.078068
| 66>   O                      -1.382602            -8.831808            -0.218528
| 67>   H                      -1.320086            -9.328021            -0.996402
| 68>   H                      0.416591             -8.024864            -0.837655
| 69>   H                      -0.006257            -7.610653            0.880495
| 70>   H                      0.607919             -9.246314            0.494425
| 71> *
| 72>
| 73>                          ****END OF INPUT****
 Total Charge           Charge          ....    0
 Multiplicity           Mult            ....    1
 Number of Electrons    NEL             ....   36
Dispersion correction           -0.001572053
FINAL SINGLE POINT ENERGY      -231.464812788921
Dispersion correction           -0.000236137
FINAL SINGLE POINT ENERGY      -115.731922755549

CARTESIAN COORDINATES (ANGSTROEM)
---------------------------------
  C     -2.728455   -8.294067   -3.970005
  O     -1.346350   -8.753726   -4.049427
  H     -1.341560   -9.587864   -3.613665
  H     -3.399248   -9.087153   -4.171375
  H     -2.930991   -7.956123   -2.995674
  H     -2.988727   -7.505298   -4.671363
  C     -0.044900   -8.393597    0.078068
  O     -1.382602   -8.831808   -0.218528
  H     -1.320086   -9.328021   -0.996402
  H      0.416591   -8.024864   -0.837655
  H     -0.006257   -7.610653    0.880495
  H      0.607919   -9.246314    0.494425

 Multiplicity           Mult            ....    1
 Number of Electrons    NEL             ....   18
 Basis Dimension        Dim             ....  172

ORBITAL ENERGIES
----------------

  NO   OCC          E(Eh)            E(eV)
   0   2.0000     -19.230094      -523.2775
   1   2.0000     -10.325516      -280.9716
   2   2.0000      -1.139506       -31.0075
   3   2.0000      -0.793291       -21.5865
   4   2.0000      -0.610006       -16.5991
   5   2.0000      -0.538022       -14.6403
   6   2.0000      -0.524057       -14.2603
   7   2.0000      -0.438303       -11.9268
   8   2.0000      -0.375072       -10.2062
   9   0.0000       0.076666         2.0862
  10   0.0000       0.127639         3.4732
  11   0.0000       0.149957         4.0805
  12   0.0000       0.174566         4.7502
  13   0.0000       0.188118         5.1189

MULLIKEN ATOMIC CHARGES
-----------------------
   0 C :    0.001599
   1 O :   -0.000345
   2 H :   -0.000641
   3 H :    0.000006
   4 H :   -0.005805
   5 H :   -0.000179
   6 C :   -0.178976
   7 O :   -0.460358
   8 H :    0.309626
   9 H :    0.110717
  10 H :    0.122717
  11 H :    0.101638
Sum of atomic charges:   -0.0000000

LOEWDIN ATOMIC CHARGES
----------------------
   0 C :   -0.001739
   1 O :   -0.000505
   2 H :   -0.001458
   3 H :   -0.000013
   4 H :   -0.002660
   5 H :   -0.000018
   6 C :   -0.375048
   7 O :   -0.072427
   8 H :    0.143957
   9 H :    0.094172
  10 H :    0.112440
  11 H :    0.103299

  Mayer bond orders larger than 0.1
B(  6-C ,  7-O ) :   0.9937 B(  6-C ,  9-H ) :   0.9774 B(  6-C , 10-H ) :   0.9721
B(  6-C , 11-H ) :   0.9719 B(  7-O ,  8-H ) :   0.9095

Dispersion correction           -0.000255542
FINAL SINGLE POINT ENERGY      -115.732129038620

DIPOLE MOMENT
-------------
                                X             Y             Z
Electronic contribution:     -1.81458      -0.42027      -0.29717
Nuclear contribution   :      2.39646       0.29700      -0.07873
                        -----------------------------------------
Total Dipole Moment    :      0.58188      -0.12327      -0.37590
                        -----------------------------------------
Magnitude (a.u.)       :      0.70361
Magnitude (Debye)      :      1.78845

Rotational constants in cm-1:     4.200882     0.803136     0.776548
Rotational constants in MHz : 125939.282865 24077.398771 23280.312449

                             ****ORCA TERMINATED NORMALLY****
TOTAL RUN TIME: 0 days 0 hours 1 minutes 4 seconds 614 msec
