                         Program Version 4.1.2  - RELEASE  -
|  1> #Run DFT-D3 single point of the dimer
|  2> ! wB97X-D3 def2-TZVP TIGHTSCF CHELPG PMODEL PAL8
|  3>
|  4> %base "22-152_DFT_AB"
|  5>
|  6> %scf
|  7> MaxIter 1000
|  8> end
|  9>
| 10> * xyz 0 1
| 11>   C                      7.365350             5.125921             -5.338019
| 12>   O                      8.689824             5.141311             -4.611010
| 13>   H                      9.239684             4.501322             -4.999733
| 14>   H                      7.687627             5.210151             -6.452757
| 15>   H                      6.816516             4.190270             -5.134899
| 16>   H                      6.715848             6.006609             -5.067874
| 17>   C                      7.574667             3.752111             -1.261682
| 18>   O                      9.029965             3.918598             -1.638505
| 19>   H                      9.057636             4.427649             -2.475635
| 20>   H                      6.872869             4.605150             -1.513020
| 21>   H                      7.229245             2.833688             -1.760961
| 22>   H                      7.528767             3.614182             -0.165421
| 23> *
| 24>
| 25> #Run DFT-D3 single point of the molecule with dimer basis set
| 26> $new_job
| 27> %base "22-152_DFT_A"
| 28> ! wB97X-D3 def2-TZVP TIGHTSCF CHELPG PMODEL
| 29>
| 30> %scf
| 31> MaxIter 1000
| 32> end
| 33>
| 34> * xyz 0 1
| 35>   C                      7.365350             5.125921             -5.338019
| 36>   O                      8.689824             5.141311             -4.611010
| 37>   H                      9.239684             4.501322             -4.999733
| 38>   H                      7.687627             5.210151             -6.452757
| 39>   H                      6.816516             4.190270             -5.134899
| 40>   H                      6.715848             6.006609             -5.067874
| 41>   C                    : 7.574667             3.752111             -1.261682
| 42>   O                    : 9.029965             3.918598             -1.638505
| 43>   H                    : 9.057636             4.427649             -2.475635
| 44>   H                    : 6.872869             4.605150             -1.513020
| 45>   H                    : 7.229245             2.833688             -1.760961
| 46>   H                    : 7.528767             3.614182             -0.165421
| 47> *
| 48>
| 49> #Run DFT-D3 single point of the particle with dimer basis set
| 50> $new_job
| 51> %base "22-152_DFT_B"
| 52> ! wB97X-D3 def2-TZVP TIGHTSCF CHELPG PMODEL
| 53>
| 54> %scf
| 55> MaxIter 1000
| 56> end
| 57>
| 58> * xyz 0 1
| 59>   C                    : 7.365350             5.125921             -5.338019
| 60>   O                    : 8.689824             5.141311             -4.611010
| 61>   H                    : 9.239684             4.501322             -4.999733
| 62>   H                    : 7.687627             5.210151             -6.452757
| 63>   H                    : 6.816516             4.190270             -5.134899
| 64>   H                    : 6.715848             6.006609             -5.067874
| 65>   C                      7.574667             3.752111             -1.261682
| 66>   O                      9.029965             3.918598             -1.638505
| 67>   H                      9.057636             4.427649             -2.475635
| 68>   H                      6.872869             4.605150             -1.513020
| 69>   H                      7.229245             2.833688             -1.760961
| 70>   H                      7.528767             3.614182             -0.165421
| 71> *
| 72>
| 73>                          ****END OF INPUT****
 Total Charge           Charge          ....    0
 Multiplicity           Mult            ....    1
 Number of Electrons    NEL             ....   36
Dispersion correction           -0.001803202
FINAL SINGLE POINT ENERGY      -231.461468302648
Dispersion correction           -0.000280108
FINAL SINGLE POINT ENERGY      -115.725216903476

CARTESIAN COORDINATES (ANGSTROEM)
---------------------------------
  C      7.365350    5.125921   -5.338019
  O      8.689824    5.141311   -4.611010
  H      9.239684    4.501322   -4.999733
  H      7.687627    5.210151   -6.452757
  H      6.816516    4.190270   -5.134899
  H      6.715848    6.006609   -5.067874
  C      7.574667    3.752111   -1.261682
  O      9.029965    3.918598   -1.638505
  H      9.057636    4.427649   -2.475635
  H      6.872869    4.605150   -1.513020
  H      7.229245    2.833688   -1.760961
  H      7.528767    3.614182   -0.165421

 Multiplicity           Mult            ....    1
 Number of Electrons    NEL             ....   18
 Basis Dimension        Dim             ....  172

ORBITAL ENERGIES
----------------

  NO   OCC          E(Eh)            E(eV)
   0   2.0000     -19.232820      -523.3517
   1   2.0000     -10.327788      -281.0334
   2   2.0000      -1.105662       -30.0866
   3   2.0000      -0.793384       -21.5891
   4   2.0000      -0.589661       -16.0455
   5   2.0000      -0.533413       -14.5149
   6   2.0000      -0.508315       -13.8320
   7   2.0000      -0.440971       -11.9994
   8   2.0000      -0.375911       -10.2290
   9   0.0000       0.068529         1.8648
  10   0.0000       0.127410         3.4670
  11   0.0000       0.135492         3.6869
  12   0.0000       0.168092         4.5740
  13   0.0000       0.175708         4.7813

MULLIKEN ATOMIC CHARGES
-----------------------
   0 C :   -0.000168
   1 O :   -0.002018
   2 H :   -0.001038
   3 H :    0.000019
   4 H :   -0.000078
   5 H :   -0.000067
   6 C :   -0.193030
   7 O :   -0.484974
   8 H :    0.311996
   9 H :    0.118356
  10 H :    0.118692
  11 H :    0.132309
Sum of atomic charges:   -0.0000000

LOEWDIN ATOMIC CHARGES
----------------------
   0 C :   -0.001405
   1 O :   -0.008687
   2 H :   -0.001993
   3 H :   -0.000021
   4 H :   -0.000145
   5 H :   -0.000057
   6 C :   -0.330921
   7 O :   -0.147405
   8 H :    0.174329
   9 H :    0.105367
  10 H :    0.100675
  11 H :    0.110263

  Mayer bond orders larger than 0.1
B(  6-C ,  7-O ) :   0.9844 B(  6-C ,  9-H ) :   0.9645 B(  6-C , 10-H ) :   0.9742
B(  6-C , 11-H ) :   0.9729 B(  7-O ,  8-H ) :   0.9070

Dispersion correction           -0.000305908
FINAL SINGLE POINT ENERGY      -115.729114342165

DIPOLE MOMENT
-------------
                                X             Y             Z
Electronic contribution:      1.77111       0.16241      -0.33213
Nuclear contribution   :     -2.39658       0.07634      -0.00842
                        -----------------------------------------
Total Dipole Moment    :     -0.62547       0.23875      -0.34055
                        -----------------------------------------
Magnitude (a.u.)       :      0.75113
Magnitude (Debye)      :      1.90921

Rotational constants in cm-1:     4.127822     0.739590     0.715444
Rotational constants in MHz : 123748.988710 22172.350654 21448.456993

                             ****ORCA TERMINATED NORMALLY****
TOTAL RUN TIME: 0 days 0 hours 1 minutes 2 seconds 851 msec
