                         Program Version 4.1.2  - RELEASE  -
|  1> #Run DFT-D3 single point of the dimer
|  2> ! wB97X-D3 def2-TZVP TIGHTSCF CHELPG PMODEL PAL8
|  3>
|  4> %base "7-36_DFT_AB"
|  5>
|  6> %scf
|  7> MaxIter 1000
|  8> end
|  9>
| 10> * xyz 0 1
| 11>   C                      4.287323             3.811473             -10.095497
| 12>   O                      5.437001             3.561698             -10.899745
| 13>   H                      5.610883             2.637790             -10.816381
| 14>   H                      3.601199             4.500166             -10.683801
| 15>   H                      3.740410             2.909689             -9.881101
| 16>   H                      4.471084             4.301608             -9.117160
| 17>   C                      0.571452             5.757147             -9.310984
| 18>   O                      0.521628             4.402486             -9.201155
| 19>   H                      0.086074             4.339337             -8.344764
| 20>   H                      0.854972             6.019808             -10.346947
| 21>   H                      -0.502939            6.082742             -9.134544
| 22>   H                      1.119985             6.190823             -8.585950
| 23> *
| 24>
| 25> #Run DFT-D3 single point of the molecule with dimer basis set
| 26> $new_job
| 27> %base "7-36_DFT_A"
| 28> ! wB97X-D3 def2-TZVP TIGHTSCF CHELPG PMODEL
| 29>
| 30> %scf
| 31> MaxIter 1000
| 32> end
| 33>
| 34> * xyz 0 1
| 35>   C                      4.287323             3.811473             -10.095497
| 36>   O                      5.437001             3.561698             -10.899745
| 37>   H                      5.610883             2.637790             -10.816381
| 38>   H                      3.601199             4.500166             -10.683801
| 39>   H                      3.740410             2.909689             -9.881101
| 40>   H                      4.471084             4.301608             -9.117160
| 41>   C                    : 0.571452             5.757147             -9.310984
| 42>   O                    : 0.521628             4.402486             -9.201155
| 43>   H                    : 0.086074             4.339337             -8.344764
| 44>   H                    : 0.854972             6.019808             -10.346947
| 45>   H                    : -0.502939            6.082742             -9.134544
| 46>   H                    : 1.119985             6.190823             -8.585950
| 47> *
| 48>
| 49> #Run DFT-D3 single point of the particle with dimer basis set
| 50> $new_job
| 51> %base "7-36_DFT_B"
| 52> ! wB97X-D3 def2-TZVP TIGHTSCF CHELPG PMODEL
| 53>
| 54> %scf
| 55> MaxIter 1000
| 56> end
| 57>
| 58> * xyz 0 1
| 59>   C                    : 4.287323             3.811473             -10.095497
| 60>   O                    : 5.437001             3.561698             -10.899745
| 61>   H                    : 5.610883             2.637790             -10.816381
| 62>   H                    : 3.601199             4.500166             -10.683801
| 63>   H                    : 3.740410             2.909689             -9.881101
| 64>   H                    : 4.471084             4.301608             -9.117160
| 65>   C                      0.571452             5.757147             -9.310984
| 66>   O                      0.521628             4.402486             -9.201155
| 67>   H                      0.086074             4.339337             -8.344764
| 68>   H                      0.854972             6.019808             -10.346947
| 69>   H                      -0.502939            6.082742             -9.134544
| 70>   H                      1.119985             6.190823             -8.585950
| 71> *
| 72>
| 73>                          ****END OF INPUT****
 Total Charge           Charge          ....    0
 Multiplicity           Mult            ....    1
 Number of Electrons    NEL             ....   36
Dispersion correction           -0.001268537
FINAL SINGLE POINT ENERGY      -231.455980661492
Dispersion correction           -0.000258314
FINAL SINGLE POINT ENERGY      -115.733429730437

CARTESIAN COORDINATES (ANGSTROEM)
---------------------------------
  C      4.287323    3.811473  -10.095497
  O      5.437001    3.561698  -10.899745
  H      5.610883    2.637790  -10.816381
  H      3.601199    4.500166  -10.683801
  H      3.740410    2.909689   -9.881101
  H      4.471084    4.301608   -9.117160
  C      0.571452    5.757147   -9.310984
  O      0.521628    4.402486   -9.201155
  H      0.086074    4.339337   -8.344764
  H      0.854972    6.019808  -10.346947
  H     -0.502939    6.082742   -9.134544
  H      1.119985    6.190823   -8.585950

 Multiplicity           Mult            ....    1
 Number of Electrons    NEL             ....   18
 Basis Dimension        Dim             ....  172

ORBITAL ENERGIES
----------------

  NO   OCC          E(Eh)            E(eV)
   0   2.0000     -19.229070      -523.2496
   1   2.0000     -10.305269      -280.4206
   2   2.0000      -1.160928       -31.5905
   3   2.0000      -0.789441       -21.4818
   4   2.0000      -0.626520       -17.0485
   5   2.0000      -0.556187       -15.1346
   6   2.0000      -0.530671       -14.4403
   7   2.0000      -0.439311       -11.9543
   8   2.0000      -0.367258        -9.9936
   9   0.0000       0.090974         2.4755
  10   0.0000       0.114705         3.1213
  11   0.0000       0.159992         4.3536
  12   0.0000       0.177168         4.8210
  13   0.0000       0.187499         5.1021

MULLIKEN ATOMIC CHARGES
-----------------------
   0 C :   -0.000355
   1 O :   -0.000035
   2 H :   -0.000013
   3 H :   -0.000053
   4 H :   -0.001296
   5 H :   -0.000424
   6 C :   -0.164829
   7 O :   -0.448962
   8 H :    0.312124
   9 H :    0.111642
  10 H :    0.083821
  11 H :    0.108379
Sum of atomic charges:    0.0000000

LOEWDIN ATOMIC CHARGES
----------------------
   0 C :   -0.002513
   1 O :   -0.000022
   2 H :   -0.000005
   3 H :   -0.000574
   4 H :   -0.000904
   5 H :   -0.000149
   6 C :   -0.423260
   7 O :   -0.037422
   8 H :    0.180695
   9 H :    0.111660
  10 H :    0.101067
  11 H :    0.071428

  Mayer bond orders larger than 0.1
B(  6-C ,  7-O ) :   0.9881 B(  6-C ,  9-H ) :   0.9744 B(  6-C , 10-H ) :   0.9963
B(  6-C , 11-H ) :   0.9737 B(  7-O ,  8-H ) :   0.9032

Dispersion correction           -0.000171135
FINAL SINGLE POINT ENERGY      -115.721103942167

DIPOLE MOMENT
-------------
                                X             Y             Z
Electronic contribution:      0.27103      -1.76481       0.01992
Nuclear contribution   :     -0.50349       2.20382       0.47675
                        -----------------------------------------
Total Dipole Moment    :     -0.23245       0.43901       0.49667
                        -----------------------------------------
Magnitude (a.u.)       :      0.70246
Magnitude (Debye)      :      1.78551

Rotational constants in cm-1:     4.177254     0.919981     0.870153
Rotational constants in MHz : 125230.922228 27580.347841 26086.526466

                             ****ORCA TERMINATED NORMALLY****
TOTAL RUN TIME: 0 days 0 hours 1 minutes 0 seconds 29 msec
