                         Program Version 4.1.2  - RELEASE  -
|  1> #Run DFT-D3 single point of the dimer
|  2> ! wB97X-D3 def2-TZVP TIGHTSCF CHELPG PMODEL PAL8
|  3>
|  4> %base "17-62_DFT_AB"
|  5>
|  6> %scf
|  7> MaxIter 1000
|  8> end
|  9>
| 10> * xyz 0 1
| 11>   C                      -8.719428            -0.806688            2.256153
| 12>   O                      -10.041191           -1.234781            2.494380
| 13>   H                      -10.144787           -1.521010            3.361301
| 14>   H                      -8.220031            -0.383521            3.209562
| 15>   H                      -8.128405            -1.587988            1.732554
| 16>   H                      -8.726105            0.059084             1.528395
| 17>   C                      -4.294630            2.636762             2.112842
| 18>   O                      -2.945016            2.913256             2.396499
| 19>   H                      -2.375241            2.588121             1.690587
| 20>   H                      -4.235161            1.715632             1.468674
| 21>   H                      -4.920146            2.517834             3.005229
| 22>   H                      -4.786454            3.438552             1.510866
| 23> *
| 24>
| 25> #Run DFT-D3 single point of the molecule with dimer basis set
| 26> $new_job
| 27> %base "17-62_DFT_A"
| 28> ! wB97X-D3 def2-TZVP TIGHTSCF CHELPG PMODEL
| 29>
| 30> %scf
| 31> MaxIter 1000
| 32> end
| 33>
| 34> * xyz 0 1
| 35>   C                      -8.719428            -0.806688            2.256153
| 36>   O                      -10.041191           -1.234781            2.494380
| 37>   H                      -10.144787           -1.521010            3.361301
| 38>   H                      -8.220031            -0.383521            3.209562
| 39>   H                      -8.128405            -1.587988            1.732554
| 40>   H                      -8.726105            0.059084             1.528395
| 41>   C                    : -4.294630            2.636762             2.112842
| 42>   O                    : -2.945016            2.913256             2.396499
| 43>   H                    : -2.375241            2.588121             1.690587
| 44>   H                    : -4.235161            1.715632             1.468674
| 45>   H                    : -4.920146            2.517834             3.005229
| 46>   H                    : -4.786454            3.438552             1.510866
| 47> *
| 48>
| 49> #Run DFT-D3 single point of the particle with dimer basis set
| 50> $new_job
| 51> %base "17-62_DFT_B"
| 52> ! wB97X-D3 def2-TZVP TIGHTSCF CHELPG PMODEL
| 53>
| 54> %scf
| 55> MaxIter 1000
| 56> end
| 57>
| 58> * xyz 0 1
| 59>   C                    : -8.719428            -0.806688            2.256153
| 60>   O                    : -10.041191           -1.234781            2.494380
| 61>   H                    : -10.144787           -1.521010            3.361301
| 62>   H                    : -8.220031            -0.383521            3.209562
| 63>   H                    : -8.128405            -1.587988            1.732554
| 64>   H                    : -8.726105            0.059084             1.528395
| 65>   C                      -4.294630            2.636762             2.112842
| 66>   O                      -2.945016            2.913256             2.396499
| 67>   H                      -2.375241            2.588121             1.690587
| 68>   H                      -4.235161            1.715632             1.468674
| 69>   H                      -4.920146            2.517834             3.005229
| 70>   H                      -4.786454            3.438552             1.510866
| 71> *
| 72>
| 73>                          ****END OF INPUT****
 Total Charge           Charge          ....    0
 Multiplicity           Mult            ....    1
 Number of Electrons    NEL             ....   36
Dispersion correction           -0.000648541
FINAL SINGLE POINT ENERGY      -231.461586927138
Dispersion correction           -0.000267392
FINAL SINGLE POINT ENERGY      -115.730444596832

CARTESIAN COORDINATES (ANGSTROEM)
---------------------------------
  C     -8.719428   -0.806688    2.256153
  O    -10.041191   -1.234781    2.494380
  H    -10.144787   -1.521010    3.361301
  H     -8.220031   -0.383521    3.209562
  H     -8.128405   -1.587988    1.732554
  H     -8.726105    0.059084    1.528395
  C     -4.294630    2.636762    2.112842
  O     -2.945016    2.913256    2.396499
  H     -2.375241    2.588121    1.690587
  H     -4.235161    1.715632    1.468674
  H     -4.920146    2.517834    3.005229
  H     -4.786454    3.438552    1.510866

 Multiplicity           Mult            ....    1
 Number of Electrons    NEL             ....   18
 Basis Dimension        Dim             ....  172

ORBITAL ENERGIES
----------------

  NO   OCC          E(Eh)            E(eV)
   0   2.0000     -19.227445      -523.2054
   1   2.0000     -10.319576      -280.8099
   2   2.0000      -1.136163       -30.9166
   3   2.0000      -0.790803       -21.5188
   4   2.0000      -0.609428       -16.5834
   5   2.0000      -0.542731       -14.7685
   6   2.0000      -0.531791       -14.4708
   7   2.0000      -0.424877       -11.5615
   8   2.0000      -0.368909       -10.0385
   9   0.0000       0.084363         2.2956
  10   0.0000       0.109967         2.9924
  11   0.0000       0.143724         3.9109
  12   0.0000       0.167763         4.5651
  13   0.0000       0.191306         5.2057

MULLIKEN ATOMIC CHARGES
-----------------------
   0 C :    0.000002
   1 O :   -0.000001
   2 H :   -0.000000
   3 H :   -0.000051
   4 H :   -0.000003
   5 H :   -0.000006
   6 C :   -0.160453
   7 O :   -0.474937
   8 H :    0.319314
   9 H :    0.096641
  10 H :    0.121091
  11 H :    0.098404
Sum of atomic charges:   -0.0000000

LOEWDIN ATOMIC CHARGES
----------------------
   0 C :   -0.000032
   1 O :   -0.000001
   2 H :   -0.000000
   3 H :   -0.000024
   4 H :   -0.000002
   5 H :   -0.000008
   6 C :   -0.394292
   7 O :   -0.080459
   8 H :    0.171384
   9 H :    0.102458
  10 H :    0.105258
  11 H :    0.095717

  Mayer bond orders larger than 0.1
B(  6-C ,  7-O ) :   1.0025 B(  6-C ,  9-H ) :   0.9958 B(  6-C , 10-H ) :   0.9699
B(  6-C , 11-H ) :   0.9677 B(  7-O ,  8-H ) :   0.8960

Dispersion correction           -0.000241892
FINAL SINGLE POINT ENERGY      -115.731021612645

DIPOLE MOMENT
-------------
                                X             Y             Z
Electronic contribution:      1.65255       0.42592       0.60962
Nuclear contribution   :     -1.81273      -0.75121      -1.16547
                        -----------------------------------------
Total Dipole Moment    :     -0.16019      -0.32529      -0.55585
                        -----------------------------------------
Magnitude (a.u.)       :      0.66366
Magnitude (Debye)      :      1.68689

Rotational constants in cm-1:     4.197086     0.838288     0.801856
Rotational constants in MHz : 125825.480443 25131.249410 24039.027160

                             ****ORCA TERMINATED NORMALLY****
TOTAL RUN TIME: 0 days 0 hours 1 minutes 5 seconds 460 msec
