                         Program Version 4.1.2  - RELEASE  -
|  1> #Run DFT-D3 single point of the dimer
|  2> ! wB97X-D3 def2-TZVP TIGHTSCF CHELPG PMODEL PAL8
|  3>
|  4> %base "18-111_DFT_AB"
|  5>
|  6> %scf
|  7> MaxIter 1000
|  8> end
|  9>
| 10> * xyz 0 1
| 11>   C                      -6.192142            3.316149             -6.809267
| 12>   O                      -7.336972            3.537002             -7.548146
| 13>   H                      -7.789556            2.702504             -7.730848
| 14>   H                      -5.550803            2.508840             -7.203394
| 15>   H                      -5.617500            4.249866             -6.681300
| 16>   H                      -6.487296            3.059654             -5.826811
| 17>   C                      -6.079436            4.146608             -2.729976
| 18>   O                      -5.389488            4.637872             -3.875073
| 19>   H                      -5.028886            3.885787             -4.348644
| 20>   H                      -6.994678            3.663562             -3.009391
| 21>   H                      -5.483287            3.360420             -2.209580
| 22>   H                      -6.265662            4.907287             -2.035100
| 23> *
| 24>
| 25> #Run DFT-D3 single point of the molecule with dimer basis set
| 26> $new_job
| 27> %base "18-111_DFT_A"
| 28> ! wB97X-D3 def2-TZVP TIGHTSCF CHELPG PMODEL
| 29>
| 30> %scf
| 31> MaxIter 1000
| 32> end
| 33>
| 34> * xyz 0 1
| 35>   C                      -6.192142            3.316149             -6.809267
| 36>   O                      -7.336972            3.537002             -7.548146
| 37>   H                      -7.789556            2.702504             -7.730848
| 38>   H                      -5.550803            2.508840             -7.203394
| 39>   H                      -5.617500            4.249866             -6.681300
| 40>   H                      -6.487296            3.059654             -5.826811
| 41>   C                    : -6.079436            4.146608             -2.729976
| 42>   O                    : -5.389488            4.637872             -3.875073
| 43>   H                    : -5.028886            3.885787             -4.348644
| 44>   H                    : -6.994678            3.663562             -3.009391
| 45>   H                    : -5.483287            3.360420             -2.209580
| 46>   H                    : -6.265662            4.907287             -2.035100
| 47> *
| 48>
| 49> #Run DFT-D3 single point of the particle with dimer basis set
| 50> $new_job
| 51> %base "18-111_DFT_B"
| 52> ! wB97X-D3 def2-TZVP TIGHTSCF CHELPG PMODEL
| 53>
| 54> %scf
| 55> MaxIter 1000
| 56> end
| 57>
| 58> * xyz 0 1
| 59>   C                    : -6.192142            3.316149             -6.809267
| 60>   O                    : -7.336972            3.537002             -7.548146
| 61>   H                    : -7.789556            2.702504             -7.730848
| 62>   H                    : -5.550803            2.508840             -7.203394
| 63>   H                    : -5.617500            4.249866             -6.681300
| 64>   H                    : -6.487296            3.059654             -5.826811
| 65>   C                      -6.079436            4.146608             -2.729976
| 66>   O                      -5.389488            4.637872             -3.875073
| 67>   H                      -5.028886            3.885787             -4.348644
| 68>   H                      -6.994678            3.663562             -3.009391
| 69>   H                      -5.483287            3.360420             -2.209580
| 70>   H                      -6.265662            4.907287             -2.035100
| 71> *
| 72>
| 73>                          ****END OF INPUT****
 Total Charge           Charge          ....    0
 Multiplicity           Mult            ....    1
 Number of Electrons    NEL             ....   36
Dispersion correction           -0.001694248
FINAL SINGLE POINT ENERGY      -231.468445205255
Dispersion correction           -0.000224915
FINAL SINGLE POINT ENERGY      -115.733712726229

CARTESIAN COORDINATES (ANGSTROEM)
---------------------------------
  C     -6.192142    3.316149   -6.809267
  O     -7.336972    3.537002   -7.548146
  H     -7.789556    2.702504   -7.730848
  H     -5.550803    2.508840   -7.203394
  H     -5.617500    4.249866   -6.681300
  H     -6.487296    3.059654   -5.826811
  C     -6.079436    4.146608   -2.729976
  O     -5.389488    4.637872   -3.875073
  H     -5.028886    3.885787   -4.348644
  H     -6.994678    3.663562   -3.009391
  H     -5.483287    3.360420   -2.209580
  H     -6.265662    4.907287   -2.035100

 Multiplicity           Mult            ....    1
 Number of Electrons    NEL             ....   18
 Basis Dimension        Dim             ....  172

ORBITAL ENERGIES
----------------

  NO   OCC          E(Eh)            E(eV)
   0   2.0000     -19.230825      -523.2973
   1   2.0000     -10.309552      -280.5372
   2   2.0000      -1.133621       -30.8474
   3   2.0000      -0.801105       -21.7992
   4   2.0000      -0.610383       -16.6094
   5   2.0000      -0.542920       -14.7736
   6   2.0000      -0.531023       -14.4499
   7   2.0000      -0.437462       -11.9039
   8   2.0000      -0.373740       -10.1700
   9   0.0000       0.081736         2.2241
  10   0.0000       0.129686         3.5289
  11   0.0000       0.149056         4.0560
  12   0.0000       0.183768         5.0006
  13   0.0000       0.190622         5.1871

MULLIKEN ATOMIC CHARGES
-----------------------
   0 C :   -0.002525
   1 O :   -0.000065
   2 H :   -0.000068
   3 H :   -0.000328
   4 H :   -0.001109
   5 H :   -0.007413
   6 C :   -0.169156
   7 O :   -0.470086
   8 H :    0.318083
   9 H :    0.104652
  10 H :    0.099667
  11 H :    0.128347
Sum of atomic charges:    0.0000000

LOEWDIN ATOMIC CHARGES
----------------------
   0 C :   -0.011570
   1 O :   -0.000033
   2 H :   -0.000015
   3 H :   -0.000170
   4 H :   -0.004166
   5 H :   -0.006003
   6 C :   -0.368080
   7 O :   -0.069348
   8 H :    0.170853
   9 H :    0.090803
  10 H :    0.100044
  11 H :    0.097683

  Mayer bond orders larger than 0.1
B(  6-C ,  7-O ) :   1.0025 B(  6-C ,  9-H ) :   0.9729 B(  6-C , 10-H ) :   0.9840
B(  6-C , 11-H ) :   0.9749 B(  7-O ,  8-H ) :   0.8982

Dispersion correction           -0.000235004
FINAL SINGLE POINT ENERGY      -115.735234198940

DIPOLE MOMENT
-------------
                                X             Y             Z
Electronic contribution:      0.78920       0.88497      -1.38745
Nuclear contribution   :     -0.84080      -1.54750       1.57751
                        -----------------------------------------
Total Dipole Moment    :     -0.05159      -0.66254       0.19005
                        -----------------------------------------
Magnitude (a.u.)       :      0.69119
Magnitude (Debye)      :      1.75685

Rotational constants in cm-1:     4.407738     0.824062     0.793611
Rotational constants in MHz : 132140.659984 24704.754563 23791.865142

                             ****ORCA TERMINATED NORMALLY****
TOTAL RUN TIME: 0 days 0 hours 1 minutes 6 seconds 710 msec
