                         Program Version 4.1.2  - RELEASE  -
|  1> #Run DFT-D3 single point of the dimer
|  2> ! wB97X-D3 def2-TZVP TIGHTSCF CHELPG PMODEL PAL8
|  3>
|  4> %base "6-8_DFT_AB"
|  5>
|  6> %scf
|  7> MaxIter 1000
|  8> end
|  9>
| 10> * xyz 0 1
| 11>   C                      -8.943252            -7.348248            2.064146
| 12>   O                      -8.854877            -8.616783            1.511822
| 13>   H                      -9.785357            -8.938947            1.557192
| 14>   H                      -7.983475            -6.876313            1.956709
| 15>   H                      -9.635888            -6.670991            1.500144
| 16>   H                      -9.236388            -7.364689            3.074729
| 17>   C                      -6.106169            -7.139025            5.478536
| 18>   O                      -7.250673            -6.358448            5.904261
| 19>   H                      -7.580413            -5.854131            5.158850
| 20>   H                      -5.225424            -6.537199            5.228452
| 21>   H                      -5.853161            -7.888103            6.266709
| 22>   H                      -6.381485            -7.683977            4.536477
| 23> *
| 24>
| 25> #Run DFT-D3 single point of the molecule with dimer basis set
| 26> $new_job
| 27> %base "6-8_DFT_A"
| 28> ! wB97X-D3 def2-TZVP TIGHTSCF CHELPG PMODEL
| 29>
| 30> %scf
| 31> MaxIter 1000
| 32> end
| 33>
| 34> * xyz 0 1
| 35>   C                      -8.943252            -7.348248            2.064146
| 36>   O                      -8.854877            -8.616783            1.511822
| 37>   H                      -9.785357            -8.938947            1.557192
| 38>   H                      -7.983475            -6.876313            1.956709
| 39>   H                      -9.635888            -6.670991            1.500144
| 40>   H                      -9.236388            -7.364689            3.074729
| 41>   C                    : -6.106169            -7.139025            5.478536
| 42>   O                    : -7.250673            -6.358448            5.904261
| 43>   H                    : -7.580413            -5.854131            5.158850
| 44>   H                    : -5.225424            -6.537199            5.228452
| 45>   H                    : -5.853161            -7.888103            6.266709
| 46>   H                    : -6.381485            -7.683977            4.536477
| 47> *
| 48>
| 49> #Run DFT-D3 single point of the particle with dimer basis set
| 50> $new_job
| 51> %base "6-8_DFT_B"
| 52> ! wB97X-D3 def2-TZVP TIGHTSCF CHELPG PMODEL
| 53>
| 54> %scf
| 55> MaxIter 1000
| 56> end
| 57>
| 58> * xyz 0 1
| 59>   C                    : -8.943252            -7.348248            2.064146
| 60>   O                    : -8.854877            -8.616783            1.511822
| 61>   H                    : -9.785357            -8.938947            1.557192
| 62>   H                    : -7.983475            -6.876313            1.956709
| 63>   H                    : -9.635888            -6.670991            1.500144
| 64>   H                    : -9.236388            -7.364689            3.074729
| 65>   C                      -6.106169            -7.139025            5.478536
| 66>   O                      -7.250673            -6.358448            5.904261
| 67>   H                      -7.580413            -5.854131            5.158850
| 68>   H                      -5.225424            -6.537199            5.228452
| 69>   H                      -5.853161            -7.888103            6.266709
| 70>   H                      -6.381485            -7.683977            4.536477
| 71> *
| 72>
| 73>                          ****END OF INPUT****
 Total Charge           Charge          ....    0
 Multiplicity           Mult            ....    1
 Number of Electrons    NEL             ....   36
Dispersion correction           -0.001341027
FINAL SINGLE POINT ENERGY      -231.469277571080
Dispersion correction           -0.000214062
FINAL SINGLE POINT ENERGY      -115.733310640150

CARTESIAN COORDINATES (ANGSTROEM)
---------------------------------
  C     -8.943252   -7.348248    2.064146
  O     -8.854877   -8.616783    1.511822
  H     -9.785357   -8.938947    1.557192
  H     -7.983475   -6.876313    1.956709
  H     -9.635888   -6.670991    1.500144
  H     -9.236388   -7.364689    3.074729
  C     -6.106169   -7.139025    5.478536
  O     -7.250673   -6.358448    5.904261
  H     -7.580413   -5.854131    5.158850
  H     -5.225424   -6.537199    5.228452
  H     -5.853161   -7.888103    6.266709
  H     -6.381485   -7.683977    4.536477

 Multiplicity           Mult            ....    1
 Number of Electrons    NEL             ....   18
 Basis Dimension        Dim             ....  172

ORBITAL ENERGIES
----------------

  NO   OCC          E(Eh)            E(eV)
   0   2.0000     -19.230022      -523.2755
   1   2.0000     -10.322553      -280.8909
   2   2.0000      -1.125673       -30.6311
   3   2.0000      -0.793157       -21.5829
   4   2.0000      -0.605284       -16.4706
   5   2.0000      -0.533507       -14.5175
   6   2.0000      -0.523210       -14.2373
   7   2.0000      -0.435151       -11.8411
   8   2.0000      -0.374028       -10.1778
   9   0.0000       0.075381         2.0512
  10   0.0000       0.122365         3.3297
  11   0.0000       0.147405         4.0111
  12   0.0000       0.172178         4.6852
  13   0.0000       0.182108         4.9554

MULLIKEN ATOMIC CHARGES
-----------------------
   0 C :    0.001125
   1 O :   -0.000056
   2 H :   -0.000006
   3 H :   -0.000162
   4 H :   -0.000035
   5 H :   -0.002972
   6 C :   -0.172793
   7 O :   -0.481232
   8 H :    0.314266
   9 H :    0.110663
  10 H :    0.127979
  11 H :    0.103224
Sum of atomic charges:   -0.0000000

LOEWDIN ATOMIC CHARGES
----------------------
   0 C :   -0.001516
   1 O :   -0.000031
   2 H :   -0.000002
   3 H :   -0.000467
   4 H :   -0.000005
   5 H :   -0.001194
   6 C :   -0.365123
   7 O :   -0.102612
   8 H :    0.163003
   9 H :    0.094178
  10 H :    0.114016
  11 H :    0.099752

  Mayer bond orders larger than 0.1
B(  6-C ,  7-O ) :   0.9913 B(  6-C ,  9-H ) :   0.9688 B(  6-C , 10-H ) :   0.9716
B(  6-C , 11-H ) :   0.9781 B(  7-O ,  8-H ) :   0.9003

Dispersion correction           -0.000261243
FINAL SINGLE POINT ENERGY      -115.734939014310

DIPOLE MOMENT
-------------
                                X             Y             Z
Electronic contribution:     -1.36265       0.96536       0.73871
Nuclear contribution   :      1.63132      -0.97104      -1.38771
                        -----------------------------------------
Total Dipole Moment    :      0.26867      -0.00569      -0.64900
                        -----------------------------------------
Magnitude (a.u.)       :      0.70244
Magnitude (Debye)      :      1.78546

Rotational constants in cm-1:     4.186773     0.796420     0.764954
Rotational constants in MHz : 125516.298171 23876.084308 22932.730065

                             ****ORCA TERMINATED NORMALLY****
TOTAL RUN TIME: 0 days 0 hours 1 minutes 4 seconds 557 msec
