                         Program Version 4.1.2  - RELEASE  -
|  1> #Run DFT-D3 single point of the dimer
|  2> ! wB97X-D3 def2-TZVP TIGHTSCF CHELPG PMODEL PAL8
|  3>
|  4> %base "7-81_DFT_AB"
|  5>
|  6> %scf
|  7> MaxIter 1000
|  8> end
|  9>
| 10> * xyz 0 1
| 11>   C                      7.285926             0.821066             2.316241
| 12>   O                      7.532912             0.471736             1.007627
| 13>   H                      8.045949             -0.406475            0.930814
| 14>   H                      7.486048             -0.087081            3.004934
| 15>   H                      7.841240             1.695538             2.765298
| 16>   H                      6.188296             0.937388             2.320612
| 17>   C                      6.993456             2.479457             -2.172974
| 18>   O                      6.418240             1.516134             -1.316965
| 19>   H                      6.912548             1.584507             -0.524388
| 20>   H                      7.367645             3.342233             -1.621654
| 21>   H                      7.825218             2.200421             -2.765918
| 22>   H                      6.334212             2.904831             -2.911894
| 23> *
| 24>
| 25> #Run DFT-D3 single point of the molecule with dimer basis set
| 26> $new_job
| 27> %base "7-81_DFT_A"
| 28> ! wB97X-D3 def2-TZVP TIGHTSCF CHELPG PMODEL
| 29>
| 30> %scf
| 31> MaxIter 1000
| 32> end
| 33>
| 34> * xyz 0 1
| 35>   C                      7.285926             0.821066             2.316241
| 36>   O                      7.532912             0.471736             1.007627
| 37>   H                      8.045949             -0.406475            0.930814
| 38>   H                      7.486048             -0.087081            3.004934
| 39>   H                      7.841240             1.695538             2.765298
| 40>   H                      6.188296             0.937388             2.320612
| 41>   C                    : 6.993456             2.479457             -2.172974
| 42>   O                    : 6.418240             1.516134             -1.316965
| 43>   H                    : 6.912548             1.584507             -0.524388
| 44>   H                    : 7.367645             3.342233             -1.621654
| 45>   H                    : 7.825218             2.200421             -2.765918
| 46>   H                    : 6.334212             2.904831             -2.911894
| 47> *
| 48>
| 49> #Run DFT-D3 single point of the particle with dimer basis set
| 50> $new_job
| 51> %base "7-81_DFT_B"
| 52> ! wB97X-D3 def2-TZVP TIGHTSCF CHELPG PMODEL
| 53>
| 54> %scf
| 55> MaxIter 1000
| 56> end
| 57>
| 58> * xyz 0 1
| 59>   C                    : 7.285926             0.821066             2.316241
| 60>   O                    : 7.532912             0.471736             1.007627
| 61>   H                    : 8.045949             -0.406475            0.930814
| 62>   H                    : 7.486048             -0.087081            3.004934
| 63>   H                    : 7.841240             1.695538             2.765298
| 64>   H                    : 6.188296             0.937388             2.320612
| 65>   C                      6.993456             2.479457             -2.172974
| 66>   O                      6.418240             1.516134             -1.316965
| 67>   H                      6.912548             1.584507             -0.524388
| 68>   H                      7.367645             3.342233             -1.621654
| 69>   H                      7.825218             2.200421             -2.765918
| 70>   H                      6.334212             2.904831             -2.911894
| 71> *
| 72>
| 73>                          ****END OF INPUT****
 Total Charge           Charge          ....    0
 Multiplicity           Mult            ....    1
 Number of Electrons    NEL             ....   36
Dispersion correction           -0.001519080
FINAL SINGLE POINT ENERGY      -231.459848303433
Dispersion correction           -0.000256815
FINAL SINGLE POINT ENERGY      -115.723788919973

CARTESIAN COORDINATES (ANGSTROEM)
---------------------------------
  C      7.285926    0.821066    2.316241
  O      7.532912    0.471736    1.007627
  H      8.045949   -0.406475    0.930814
  H      7.486048   -0.087081    3.004934
  H      7.841240    1.695538    2.765298
  H      6.188296    0.937388    2.320612
  C      6.993456    2.479457   -2.172974
  O      6.418240    1.516134   -1.316965
  H      6.912548    1.584507   -0.524388
  H      7.367645    3.342233   -1.621654
  H      7.825218    2.200421   -2.765918
  H      6.334212    2.904831   -2.911894

 Multiplicity           Mult            ....    1
 Number of Electrons    NEL             ....   18
 Basis Dimension        Dim             ....  172

ORBITAL ENERGIES
----------------

  NO   OCC          E(Eh)            E(eV)
   0   2.0000     -19.234597      -523.4000
   1   2.0000     -10.307660      -280.4857
   2   2.0000      -1.146570       -31.1997
   3   2.0000      -0.804914       -21.9028
   4   2.0000      -0.619946       -16.8696
   5   2.0000      -0.540521       -14.7083
   6   2.0000      -0.532708       -14.4957
   7   2.0000      -0.438833       -11.9412
   8   2.0000      -0.377880       -10.2827
   9   0.0000       0.073837         2.0092
  10   0.0000       0.129715         3.5297
  11   0.0000       0.151791         4.1304
  12   0.0000       0.166905         4.5417
  13   0.0000       0.194739         5.2991

MULLIKEN ATOMIC CHARGES
-----------------------
   0 C :   -0.000957
   1 O :   -0.002933
   2 H :   -0.000536
   3 H :    0.000030
   4 H :    0.000013
   5 H :   -0.000363
   6 C :   -0.184487
   7 O :   -0.449881
   8 H :    0.311939
   9 H :    0.102844
  10 H :    0.105183
  11 H :    0.119149
Sum of atomic charges:    0.0000000

LOEWDIN ATOMIC CHARGES
----------------------
   0 C :   -0.003016
   1 O :   -0.018421
   2 H :   -0.001325
   3 H :   -0.000067
   4 H :   -0.000070
   5 H :   -0.000364
   6 C :   -0.388832
   7 O :   -0.043962
   8 H :    0.166221
   9 H :    0.097405
  10 H :    0.088107
  11 H :    0.104324

  Mayer bond orders larger than 0.1
B(  6-C ,  7-O ) :   1.0154 B(  6-C ,  9-H ) :   0.9906 B(  6-C , 10-H ) :   0.9687
B(  6-C , 11-H ) :   0.9765 B(  7-O ,  8-H ) :   0.9060

Dispersion correction           -0.000245555
FINAL SINGLE POINT ENERGY      -115.730499966123

DIPOLE MOMENT
-------------
                                X             Y             Z
Electronic contribution:     -0.91398      -1.45266       1.04477
Nuclear contribution   :      1.45536       1.89149      -0.88614
                        -----------------------------------------
Total Dipole Moment    :      0.54138       0.43883       0.15864
                        -----------------------------------------
Magnitude (a.u.)       :      0.71473
Magnitude (Debye)      :      1.81670

Rotational constants in cm-1:     4.673979     0.827237     0.794044
Rotational constants in MHz : 140122.367660 24799.951812 23804.838430

                             ****ORCA TERMINATED NORMALLY****
TOTAL RUN TIME: 0 days 0 hours 1 minutes 2 seconds 765 msec
