                         Program Version 4.1.2  - RELEASE  -
|  1> #Run DFT-D3 single point of the dimer
|  2> ! wB97X-D3 def2-TZVP TIGHTSCF CHELPG PMODEL PAL8
|  3>
|  4> %base "22-139_DFT_AB"
|  5>
|  6> %scf
|  7> MaxIter 1000
|  8> end
|  9>
| 10> * xyz 0 1
| 11>   C                      0.527698             1.859503             9.663229
| 12>   O                      0.594535             0.604207             10.339565
| 13>   H                      1.417129             0.142972             9.950281
| 14>   H                      0.246686             1.908735             8.587147
| 15>   H                      -0.322910            2.327679             10.124349
| 16>   H                      1.373423             2.534069             9.816187
| 17>   C                      3.964316             3.347006             8.560207
| 18>   O                      2.798326             3.703831             7.869844
| 19>   H                      2.181258             4.153824             8.473695
| 20>   H                      4.313658             4.116674             9.230770
| 21>   H                      3.796506             2.467997             9.113621
| 22>   H                      4.797698             3.092619             7.910218
| 23> *
| 24>
| 25> #Run DFT-D3 single point of the molecule with dimer basis set
| 26> $new_job
| 27> %base "22-139_DFT_A"
| 28> ! wB97X-D3 def2-TZVP TIGHTSCF CHELPG PMODEL
| 29>
| 30> %scf
| 31> MaxIter 1000
| 32> end
| 33>
| 34> * xyz 0 1
| 35>   C                      0.527698             1.859503             9.663229
| 36>   O                      0.594535             0.604207             10.339565
| 37>   H                      1.417129             0.142972             9.950281
| 38>   H                      0.246686             1.908735             8.587147
| 39>   H                      -0.322910            2.327679             10.124349
| 40>   H                      1.373423             2.534069             9.816187
| 41>   C                    : 3.964316             3.347006             8.560207
| 42>   O                    : 2.798326             3.703831             7.869844
| 43>   H                    : 2.181258             4.153824             8.473695
| 44>   H                    : 4.313658             4.116674             9.230770
| 45>   H                    : 3.796506             2.467997             9.113621
| 46>   H                    : 4.797698             3.092619             7.910218
| 47> *
| 48>
| 49> #Run DFT-D3 single point of the particle with dimer basis set
| 50> $new_job
| 51> %base "22-139_DFT_B"
| 52> ! wB97X-D3 def2-TZVP TIGHTSCF CHELPG PMODEL
| 53>
| 54> %scf
| 55> MaxIter 1000
| 56> end
| 57>
| 58> * xyz 0 1
| 59>   C                    : 0.527698             1.859503             9.663229
| 60>   O                    : 0.594535             0.604207             10.339565
| 61>   H                    : 1.417129             0.142972             9.950281
| 62>   H                    : 0.246686             1.908735             8.587147
| 63>   H                    : -0.322910            2.327679             10.124349
| 64>   H                    : 1.373423             2.534069             9.816187
| 65>   C                      3.964316             3.347006             8.560207
| 66>   O                      2.798326             3.703831             7.869844
| 67>   H                      2.181258             4.153824             8.473695
| 68>   H                      4.313658             4.116674             9.230770
| 69>   H                      3.796506             2.467997             9.113621
| 70>   H                      4.797698             3.092619             7.910218
| 71> *
| 72>
| 73>                          ****END OF INPUT****
 Total Charge           Charge          ....    0
 Multiplicity           Mult            ....    1
 Number of Electrons    NEL             ....   36
Dispersion correction           -0.001911566
FINAL SINGLE POINT ENERGY      -231.463663851925
Dispersion correction           -0.000278381
FINAL SINGLE POINT ENERGY      -115.728964004481

CARTESIAN COORDINATES (ANGSTROEM)
---------------------------------
  C      0.527698    1.859503    9.663229
  O      0.594535    0.604207   10.339565
  H      1.417129    0.142972    9.950281
  H      0.246686    1.908735    8.587147
  H     -0.322910    2.327679   10.124349
  H      1.373423    2.534069    9.816187
  C      3.964316    3.347006    8.560207
  O      2.798326    3.703831    7.869844
  H      2.181258    4.153824    8.473695
  H      4.313658    4.116674    9.230770
  H      3.796506    2.467997    9.113621
  H      4.797698    3.092619    7.910218

 Multiplicity           Mult            ....    1
 Number of Electrons    NEL             ....   18
 Basis Dimension        Dim             ....  172

ORBITAL ENERGIES
----------------

  NO   OCC          E(Eh)            E(eV)
   0   2.0000     -19.231315      -523.3107
   1   2.0000     -10.304495      -280.3996
   2   2.0000      -1.136501       -30.9258
   3   2.0000      -0.800514       -21.7831
   4   2.0000      -0.613268       -16.6879
   5   2.0000      -0.546828       -14.8799
   6   2.0000      -0.532700       -14.4955
   7   2.0000      -0.430336       -11.7100
   8   2.0000      -0.373105       -10.1527
   9   0.0000       0.081951         2.2300
  10   0.0000       0.131473         3.5776
  11   0.0000       0.146882         3.9969
  12   0.0000       0.173802         4.7294
  13   0.0000       0.203006         5.5241

MULLIKEN ATOMIC CHARGES
-----------------------
   0 C :    0.001365
   1 O :   -0.000185
   2 H :   -0.000093
   3 H :   -0.001172
   4 H :   -0.000551
   5 H :   -0.008377
   6 C :   -0.172746
   7 O :   -0.474768
   8 H :    0.320352
   9 H :    0.108258
  10 H :    0.106239
  11 H :    0.121680
Sum of atomic charges:   -0.0000000

LOEWDIN ATOMIC CHARGES
----------------------
   0 C :   -0.008353
   1 O :   -0.000061
   2 H :   -0.000146
   3 H :   -0.002093
   4 H :   -0.000089
   5 H :   -0.007174
   6 C :   -0.388538
   7 O :   -0.062568
   8 H :    0.179846
   9 H :    0.093679
  10 H :    0.087162
  11 H :    0.108335

  Mayer bond orders larger than 0.1
B(  6-C ,  7-O ) :   1.0016 B(  6-C ,  9-H ) :   0.9825 B(  6-C , 10-H ) :   0.9799
B(  6-C , 11-H ) :   0.9739 B(  7-O ,  8-H ) :   0.8934

Dispersion correction           -0.000234032
FINAL SINGLE POINT ENERGY      -115.734308862781

DIPOLE MOMENT
-------------
                                X             Y             Z
Electronic contribution:     -1.45469       0.44632      -1.03239
Nuclear contribution   :      1.54656      -0.30279       1.68804
                        -----------------------------------------
Total Dipole Moment    :      0.09187       0.14354       0.65564
                        -----------------------------------------
Magnitude (a.u.)       :      0.67743
Magnitude (Debye)      :      1.72189

Rotational constants in cm-1:     4.513768     0.840520     0.808341
Rotational constants in MHz : 135319.363084 25198.169952 24233.456605

                             ****ORCA TERMINATED NORMALLY****
TOTAL RUN TIME: 0 days 0 hours 1 minutes 3 seconds 865 msec
