                         Program Version 4.1.2  - RELEASE  -
|  1> #Run DFT-D3 single point of the dimer
|  2> ! wB97X-D3 def2-TZVP TIGHTSCF CHELPG PMODEL PAL8
|  3>
|  4> %base "15-46_DFT_AB"
|  5>
|  6> %scf
|  7> MaxIter 1000
|  8> end
|  9>
| 10> * xyz 0 1
| 11>   C                      7.027536             3.700445             1.588677
| 12>   O                      7.121738             4.093266             0.247516
| 13>   H                      7.366341             3.333908             -0.299382
| 14>   H                      8.023769             3.471064             2.076743
| 15>   H                      6.544191             4.464693             2.197487
| 16>   H                      6.420623             2.848499             1.708700
| 17>   C                      10.142335            1.302247             1.921414
| 18>   O                      9.078113             1.027545             1.000667
| 19>   H                      9.264941             1.643469             0.317087
| 20>   H                      10.236299            0.491485             2.608424
| 21>   H                      11.089045            1.398064             1.413199
| 22>   H                      9.884949             2.299644             2.479286
| 23> *
| 24>
| 25> #Run DFT-D3 single point of the molecule with dimer basis set
| 26> $new_job
| 27> %base "15-46_DFT_A"
| 28> ! wB97X-D3 def2-TZVP TIGHTSCF CHELPG PMODEL
| 29>
| 30> %scf
| 31> MaxIter 1000
| 32> end
| 33>
| 34> * xyz 0 1
| 35>   C                      7.027536             3.700445             1.588677
| 36>   O                      7.121738             4.093266             0.247516
| 37>   H                      7.366341             3.333908             -0.299382
| 38>   H                      8.023769             3.471064             2.076743
| 39>   H                      6.544191             4.464693             2.197487
| 40>   H                      6.420623             2.848499             1.708700
| 41>   C                    : 10.142335            1.302247             1.921414
| 42>   O                    : 9.078113             1.027545             1.000667
| 43>   H                    : 9.264941             1.643469             0.317087
| 44>   H                    : 10.236299            0.491485             2.608424
| 45>   H                    : 11.089045            1.398064             1.413199
| 46>   H                    : 9.884949             2.299644             2.479286
| 47> *
| 48>
| 49> #Run DFT-D3 single point of the particle with dimer basis set
| 50> $new_job
| 51> %base "15-46_DFT_B"
| 52> ! wB97X-D3 def2-TZVP TIGHTSCF CHELPG PMODEL
| 53>
| 54> %scf
| 55> MaxIter 1000
| 56> end
| 57>
| 58> * xyz 0 1
| 59>   C                    : 7.027536             3.700445             1.588677
| 60>   O                    : 7.121738             4.093266             0.247516
| 61>   H                    : 7.366341             3.333908             -0.299382
| 62>   H                    : 8.023769             3.471064             2.076743
| 63>   H                    : 6.544191             4.464693             2.197487
| 64>   H                    : 6.420623             2.848499             1.708700
| 65>   C                      10.142335            1.302247             1.921414
| 66>   O                      9.078113             1.027545             1.000667
| 67>   H                      9.264941             1.643469             0.317087
| 68>   H                      10.236299            0.491485             2.608424
| 69>   H                      11.089045            1.398064             1.413199
| 70>   H                      9.884949             2.299644             2.479286
| 71> *
| 72>
| 73>                          ****END OF INPUT****
 Total Charge           Charge          ....    0
 Multiplicity           Mult            ....    1
 Number of Electrons    NEL             ....   36
Dispersion correction           -0.002076467
FINAL SINGLE POINT ENERGY      -231.467633495090
Dispersion correction           -0.000247625
FINAL SINGLE POINT ENERGY      -115.734605564192

CARTESIAN COORDINATES (ANGSTROEM)
---------------------------------
  C      7.027536    3.700445    1.588677
  O      7.121738    4.093266    0.247516
  H      7.366341    3.333908   -0.299382
  H      8.023769    3.471064    2.076743
  H      6.544191    4.464693    2.197487
  H      6.420623    2.848499    1.708700
  C     10.142335    1.302247    1.921414
  O      9.078113    1.027545    1.000667
  H      9.264941    1.643469    0.317087
  H     10.236299    0.491485    2.608424
  H     11.089045    1.398064    1.413199
  H      9.884949    2.299644    2.479286

 Multiplicity           Mult            ....    1
 Number of Electrons    NEL             ....   18
 Basis Dimension        Dim             ....  172

ORBITAL ENERGIES
----------------

  NO   OCC          E(Eh)            E(eV)
   0   2.0000     -19.231057      -523.3037
   1   2.0000     -10.319282      -280.8019
   2   2.0000      -1.140413       -31.0322
   3   2.0000      -0.793590       -21.5947
   4   2.0000      -0.609037       -16.5727
   5   2.0000      -0.539404       -14.6779
   6   2.0000      -0.525455       -14.2983
   7   2.0000      -0.445787       -12.1305
   8   2.0000      -0.374451       -10.1893
   9   0.0000       0.085796         2.3346
  10   0.0000       0.133256         3.6261
  11   0.0000       0.144749         3.9388
  12   0.0000       0.180876         4.9219
  13   0.0000       0.188054         5.1172

MULLIKEN ATOMIC CHARGES
-----------------------
   0 C :   -0.004200
   1 O :    0.000552
   2 H :   -0.002493
   3 H :    0.002104
   4 H :   -0.000409
   5 H :   -0.000908
   6 C :   -0.176484
   7 O :   -0.455021
   8 H :    0.310998
   9 H :    0.125531
  10 H :    0.111449
  11 H :    0.088880
Sum of atomic charges:    0.0000000

LOEWDIN ATOMIC CHARGES
----------------------
   0 C :   -0.009277
   1 O :   -0.000383
   2 H :   -0.002421
   3 H :   -0.006037
   4 H :   -0.000131
   5 H :   -0.001561
   6 C :   -0.370078
   7 O :   -0.069627
   8 H :    0.156673
   9 H :    0.100516
  10 H :    0.092347
  11 H :    0.109979

  Mayer bond orders larger than 0.1
B(  6-C ,  7-O ) :   1.0006 B(  6-C ,  9-H ) :   0.9759 B(  6-C , 10-H ) :   0.9791
B(  6-C , 11-H ) :   0.9747 B(  7-O ,  8-H ) :   0.9080

Dispersion correction           -0.000228148
FINAL SINGLE POINT ENERGY      -115.731751525455

DIPOLE MOMENT
-------------
                                X             Y             Z
Electronic contribution:     -1.34720      -0.58122      -1.09066
Nuclear contribution   :      1.90910       1.02389       1.00727
                        -----------------------------------------
Total Dipole Moment    :      0.56190       0.44268      -0.08338
                        -----------------------------------------
Magnitude (a.u.)       :      0.72017
Magnitude (Debye)      :      1.83053

Rotational constants in cm-1:     4.131539     0.819473     0.797842
Rotational constants in MHz : 123860.421679 24567.192539 23918.700444

                             ****ORCA TERMINATED NORMALLY****
TOTAL RUN TIME: 0 days 0 hours 1 minutes 3 seconds 49 msec
