                         Program Version 4.1.2  - RELEASE  -
|  1> #Run DFT-D3 single point of the dimer
|  2> ! wB97X-D3 def2-TZVP TIGHTSCF CHELPG PMODEL PAL8
|  3>
|  4> %base "8-198_DFT_AB"
|  5>
|  6> %scf
|  7> MaxIter 1000
|  8> end
|  9>
| 10> * xyz 0 1
| 11>   C                      -5.723827            -4.420740            -6.893500
| 12>   O                      -5.543455            -4.072141            -8.256521
| 13>   H                      -5.341087            -4.846862            -8.759427
| 14>   H                      -4.835925            -4.954805            -6.632402
| 15>   H                      -5.821917            -3.488937            -6.411756
| 16>   H                      -6.684576            -4.909651            -6.795096
| 17>   C                      -1.046311            -5.840517            -7.392696
| 18>   O                      -2.034853            -5.649059            -8.417081
| 19>   H                      -2.908656            -5.826258            -8.049725
| 20>   H                      -0.002871            -5.776610            -7.787120
| 21>   H                      -1.114569            -5.024084            -6.616437
| 22>   H                      -1.078801            -6.794849            -6.821808
| 23> *
| 24>
| 25> #Run DFT-D3 single point of the molecule with dimer basis set
| 26> $new_job
| 27> %base "8-198_DFT_A"
| 28> ! wB97X-D3 def2-TZVP TIGHTSCF CHELPG PMODEL
| 29>
| 30> %scf
| 31> MaxIter 1000
| 32> end
| 33>
| 34> * xyz 0 1
| 35>   C                      -5.723827            -4.420740            -6.893500
| 36>   O                      -5.543455            -4.072141            -8.256521
| 37>   H                      -5.341087            -4.846862            -8.759427
| 38>   H                      -4.835925            -4.954805            -6.632402
| 39>   H                      -5.821917            -3.488937            -6.411756
| 40>   H                      -6.684576            -4.909651            -6.795096
| 41>   C                    : -1.046311            -5.840517            -7.392696
| 42>   O                    : -2.034853            -5.649059            -8.417081
| 43>   H                    : -2.908656            -5.826258            -8.049725
| 44>   H                    : -0.002871            -5.776610            -7.787120
| 45>   H                    : -1.114569            -5.024084            -6.616437
| 46>   H                    : -1.078801            -6.794849            -6.821808
| 47> *
| 48>
| 49> #Run DFT-D3 single point of the particle with dimer basis set
| 50> $new_job
| 51> %base "8-198_DFT_B"
| 52> ! wB97X-D3 def2-TZVP TIGHTSCF CHELPG PMODEL
| 53>
| 54> %scf
| 55> MaxIter 1000
| 56> end
| 57>
| 58> * xyz 0 1
| 59>   C                    : -5.723827            -4.420740            -6.893500
| 60>   O                    : -5.543455            -4.072141            -8.256521
| 61>   H                    : -5.341087            -4.846862            -8.759427
| 62>   H                    : -4.835925            -4.954805            -6.632402
| 63>   H                    : -5.821917            -3.488937            -6.411756
| 64>   H                    : -6.684576            -4.909651            -6.795096
| 65>   C                      -1.046311            -5.840517            -7.392696
| 66>   O                      -2.034853            -5.649059            -8.417081
| 67>   H                      -2.908656            -5.826258            -8.049725
| 68>   H                      -0.002871            -5.776610            -7.787120
| 69>   H                      -1.114569            -5.024084            -6.616437
| 70>   H                      -1.078801            -6.794849            -6.821808
| 71> *
| 72>
| 73>                          ****END OF INPUT****
 Total Charge           Charge          ....    0
 Multiplicity           Mult            ....    1
 Number of Electrons    NEL             ....   36
Dispersion correction           -0.001429940
FINAL SINGLE POINT ENERGY      -231.463969288416
Dispersion correction           -0.000205873
FINAL SINGLE POINT ENERGY      -115.731225124889

CARTESIAN COORDINATES (ANGSTROEM)
---------------------------------
  C     -5.723827   -4.420740   -6.893500
  O     -5.543455   -4.072141   -8.256521
  H     -5.341087   -4.846862   -8.759427
  H     -4.835925   -4.954805   -6.632402
  H     -5.821917   -3.488937   -6.411756
  H     -6.684576   -4.909651   -6.795096
  C     -1.046311   -5.840517   -7.392696
  O     -2.034853   -5.649059   -8.417081
  H     -2.908656   -5.826258   -8.049725
  H     -0.002871   -5.776610   -7.787120
  H     -1.114569   -5.024084   -6.616437
  H     -1.078801   -6.794849   -6.821808

 Multiplicity           Mult            ....    1
 Number of Electrons    NEL             ....   18
 Basis Dimension        Dim             ....  172

ORBITAL ENERGIES
----------------

  NO   OCC          E(Eh)            E(eV)
   0   2.0000     -19.235469      -523.4237
   1   2.0000     -10.323825      -280.9256
   2   2.0000      -1.130302       -30.7571
   3   2.0000      -0.792872       -21.5751
   4   2.0000      -0.608669       -16.5627
   5   2.0000      -0.530969       -14.4484
   6   2.0000      -0.523474       -14.2445
   7   2.0000      -0.434496       -11.8232
   8   2.0000      -0.375300       -10.2124
   9   0.0000       0.075284         2.0486
  10   0.0000       0.128512         3.4970
  11   0.0000       0.142932         3.8894
  12   0.0000       0.173100         4.7103
  13   0.0000       0.192401         5.2355

MULLIKEN ATOMIC CHARGES
-----------------------
   0 C :    0.001163
   1 O :   -0.000207
   2 H :   -0.000315
   3 H :   -0.003715
   4 H :    0.000022
   5 H :   -0.000096
   6 C :   -0.182275
   7 O :   -0.470098
   8 H :    0.318450
   9 H :    0.125641
  10 H :    0.103133
  11 H :    0.108294
Sum of atomic charges:    0.0000000

LOEWDIN ATOMIC CHARGES
----------------------
   0 C :   -0.001474
   1 O :   -0.000378
   2 H :   -0.000928
   3 H :   -0.002310
   4 H :   -0.000008
   5 H :   -0.000018
   6 C :   -0.385683
   7 O :   -0.088951
   8 H :    0.170580
   9 H :    0.113138
  10 H :    0.099015
  11 H :    0.097017

  Mayer bond orders larger than 0.1
B(  6-C ,  7-O ) :   1.0010 B(  6-C ,  9-H ) :   0.9720 B(  6-C , 10-H ) :   0.9755
B(  6-C , 11-H ) :   0.9694 B(  7-O ,  8-H ) :   0.8971

Dispersion correction           -0.000282364
FINAL SINGLE POINT ENERGY      -115.733671845980

DIPOLE MOMENT
-------------
                                X             Y             Z
Electronic contribution:     -1.23439       0.20815      -1.51603
Nuclear contribution   :      1.09119      -0.40629       2.15425
                        -----------------------------------------
Total Dipole Moment    :     -0.14320      -0.19814       0.63822
                        -----------------------------------------
Magnitude (a.u.)       :      0.68344
Magnitude (Debye)      :      1.73718

Rotational constants in cm-1:     4.276230     0.792139     0.765639
Rotational constants in MHz : 128198.135437 23747.724328 22953.281843

                             ****ORCA TERMINATED NORMALLY****
TOTAL RUN TIME: 0 days 0 hours 0 minutes 42 seconds 387 msec
