                         Program Version 4.1.2  - RELEASE  -
|  1> #Run DFT-D3 single point of the dimer
|  2> ! wB97X-D3 def2-TZVP TIGHTSCF CHELPG PMODEL PAL8
|  3>
|  4> %base "13-104_DFT_AB"
|  5>
|  6> %scf
|  7> MaxIter 1000
|  8> end
|  9>
| 10> * xyz 0 1
| 11>   C                      -6.030512            6.655904             1.816928
| 12>   O                      -5.728468            6.776601             3.218112
| 13>   H                      -4.798940            6.874311             3.255842
| 14>   H                      -7.104650            6.813739             1.601745
| 15>   H                      -5.444522            7.352368             1.185617
| 16>   H                      -5.877691            5.637061             1.551672
| 17>   C                      -6.083136            5.885562             7.272078
| 18>   O                      -5.275935            6.974609             7.448054
| 19>   H                      -4.771461            7.052453             6.604360
| 20>   H                      -6.995972            5.890797             7.959285
| 21>   H                      -6.525911            5.758707             6.203153
| 22>   H                      -5.455596            4.991916             7.471403
| 23> *
| 24>
| 25> #Run DFT-D3 single point of the molecule with dimer basis set
| 26> $new_job
| 27> %base "13-104_DFT_A"
| 28> ! wB97X-D3 def2-TZVP TIGHTSCF CHELPG PMODEL
| 29>
| 30> %scf
| 31> MaxIter 1000
| 32> end
| 33>
| 34> * xyz 0 1
| 35>   C                      -6.030512            6.655904             1.816928
| 36>   O                      -5.728468            6.776601             3.218112
| 37>   H                      -4.798940            6.874311             3.255842
| 38>   H                      -7.104650            6.813739             1.601745
| 39>   H                      -5.444522            7.352368             1.185617
| 40>   H                      -5.877691            5.637061             1.551672
| 41>   C                    : -6.083136            5.885562             7.272078
| 42>   O                    : -5.275935            6.974609             7.448054
| 43>   H                    : -4.771461            7.052453             6.604360
| 44>   H                    : -6.995972            5.890797             7.959285
| 45>   H                    : -6.525911            5.758707             6.203153
| 46>   H                    : -5.455596            4.991916             7.471403
| 47> *
| 48>
| 49> #Run DFT-D3 single point of the particle with dimer basis set
| 50> $new_job
| 51> %base "13-104_DFT_B"
| 52> ! wB97X-D3 def2-TZVP TIGHTSCF CHELPG PMODEL
| 53>
| 54> %scf
| 55> MaxIter 1000
| 56> end
| 57>
| 58> * xyz 0 1
| 59>   C                    : -6.030512            6.655904             1.816928
| 60>   O                    : -5.728468            6.776601             3.218112
| 61>   H                    : -4.798940            6.874311             3.255842
| 62>   H                    : -7.104650            6.813739             1.601745
| 63>   H                    : -5.444522            7.352368             1.185617
| 64>   H                    : -5.877691            5.637061             1.551672
| 65>   C                      -6.083136            5.885562             7.272078
| 66>   O                      -5.275935            6.974609             7.448054
| 67>   H                      -4.771461            7.052453             6.604360
| 68>   H                      -6.995972            5.890797             7.959285
| 69>   H                      -6.525911            5.758707             6.203153
| 70>   H                      -5.455596            4.991916             7.471403
| 71> *
| 72>
| 73>                          ****END OF INPUT****
 Total Charge           Charge          ....    0
 Multiplicity           Mult            ....    1
 Number of Electrons    NEL             ....   36
Dispersion correction           -0.001058480
FINAL SINGLE POINT ENERGY      -231.462513202044
Dispersion correction           -0.000238998
FINAL SINGLE POINT ENERGY      -115.733116916479

CARTESIAN COORDINATES (ANGSTROEM)
---------------------------------
  C     -6.030512    6.655904    1.816928
  O     -5.728468    6.776601    3.218112
  H     -4.798940    6.874311    3.255842
  H     -7.104650    6.813739    1.601745
  H     -5.444522    7.352368    1.185617
  H     -5.877691    5.637061    1.551672
  C     -6.083136    5.885562    7.272078
  O     -5.275935    6.974609    7.448054
  H     -4.771461    7.052453    6.604360
  H     -6.995972    5.890797    7.959285
  H     -6.525911    5.758707    6.203153
  H     -5.455596    4.991916    7.471403

 Multiplicity           Mult            ....    1
 Number of Electrons    NEL             ....   18
 Basis Dimension        Dim             ....  172

ORBITAL ENERGIES
----------------

  NO   OCC          E(Eh)            E(eV)
   0   2.0000     -19.235906      -523.4356
   1   2.0000     -10.323051      -280.9045
   2   2.0000      -1.151901       -31.3448
   3   2.0000      -0.779755       -21.2182
   4   2.0000      -0.614537       -16.7224
   5   2.0000      -0.547054       -14.8861
   6   2.0000      -0.527224       -14.3465
   7   2.0000      -0.427583       -11.6351
   8   2.0000      -0.369062       -10.0427
   9   0.0000       0.072855         1.9825
  10   0.0000       0.109654         2.9838
  11   0.0000       0.148554         4.0424
  12   0.0000       0.173707         4.7268
  13   0.0000       0.181544         4.9401

MULLIKEN ATOMIC CHARGES
-----------------------
   0 C :    0.000036
   1 O :    0.000033
   2 H :   -0.000135
   3 H :   -0.000007
   4 H :   -0.000004
   5 H :   -0.000006
   6 C :   -0.173903
   7 O :   -0.453732
   8 H :    0.323061
   9 H :    0.114397
  10 H :    0.090919
  11 H :    0.099341
Sum of atomic charges:    0.0000000

LOEWDIN ATOMIC CHARGES
----------------------
   0 C :   -0.000091
   1 O :   -0.000637
   2 H :   -0.000242
   3 H :   -0.000005
   4 H :   -0.000003
   5 H :   -0.000005
   6 C :   -0.445784
   7 O :   -0.053442
   8 H :    0.192761
   9 H :    0.113096
  10 H :    0.099827
  11 H :    0.094526

  Mayer bond orders larger than 0.1
B(  6-C ,  7-O ) :   1.0068 B(  6-C ,  9-H ) :   0.9674 B(  6-C , 10-H ) :   0.9723
B(  6-C , 11-H ) :   0.9798 B(  7-O ,  8-H ) :   0.8913

Dispersion correction           -0.000234275
FINAL SINGLE POINT ENERGY      -115.728235412889

DIPOLE MOMENT
-------------
                                X             Y             Z
Electronic contribution:      1.06421       1.59378       0.44249
Nuclear contribution   :     -1.02818      -1.90829      -1.02524
                        -----------------------------------------
Total Dipole Moment    :      0.03603      -0.31450      -0.58274
                        -----------------------------------------
Magnitude (a.u.)       :      0.66317
Magnitude (Debye)      :      1.68566

Rotational constants in cm-1:     4.005697     0.868870     0.833012
Rotational constants in MHz : 120087.773892 26048.068216 24973.074542

                             ****ORCA TERMINATED NORMALLY****
TOTAL RUN TIME: 0 days 0 hours 1 minutes 5 seconds 168 msec
