                         Program Version 4.1.2  - RELEASE  -
|  1> #Run DFT-D3 single point of the dimer
|  2> ! wB97X-D3 def2-TZVP TIGHTSCF CHELPG PMODEL PAL8
|  3>
|  4> %base "8-150_DFT_AB"
|  5>
|  6> %scf
|  7> MaxIter 1000
|  8> end
|  9>
| 10> * xyz 0 1
| 11>   C                      6.699430             -5.657267            -0.260360
| 12>   O                      6.373375             -4.714772            0.735711
| 13>   H                      6.683855             -5.044267            1.572619
| 14>   H                      6.083675             -5.429119            -1.111410
| 15>   H                      7.752837             -5.548398            -0.640329
| 16>   H                      6.603195             -6.639985            0.122955
| 17>   C                      4.675669             -2.819953            -2.455573
| 18>   O                      4.967275             -2.728420            -1.051334
| 19>   H                      5.809846             -3.177151            -0.928841
| 20>   H                      3.781209             -2.190699            -2.703473
| 21>   H                      5.494284             -2.357504            -3.049618
| 22>   H                      4.571858             -3.756048            -2.910539
| 23> *
| 24>
| 25> #Run DFT-D3 single point of the molecule with dimer basis set
| 26> $new_job
| 27> %base "8-150_DFT_A"
| 28> ! wB97X-D3 def2-TZVP TIGHTSCF CHELPG PMODEL
| 29>
| 30> %scf
| 31> MaxIter 1000
| 32> end
| 33>
| 34> * xyz 0 1
| 35>   C                      6.699430             -5.657267            -0.260360
| 36>   O                      6.373375             -4.714772            0.735711
| 37>   H                      6.683855             -5.044267            1.572619
| 38>   H                      6.083675             -5.429119            -1.111410
| 39>   H                      7.752837             -5.548398            -0.640329
| 40>   H                      6.603195             -6.639985            0.122955
| 41>   C                    : 4.675669             -2.819953            -2.455573
| 42>   O                    : 4.967275             -2.728420            -1.051334
| 43>   H                    : 5.809846             -3.177151            -0.928841
| 44>   H                    : 3.781209             -2.190699            -2.703473
| 45>   H                    : 5.494284             -2.357504            -3.049618
| 46>   H                    : 4.571858             -3.756048            -2.910539
| 47> *
| 48>
| 49> #Run DFT-D3 single point of the particle with dimer basis set
| 50> $new_job
| 51> %base "8-150_DFT_B"
| 52> ! wB97X-D3 def2-TZVP TIGHTSCF CHELPG PMODEL
| 53>
| 54> %scf
| 55> MaxIter 1000
| 56> end
| 57>
| 58> * xyz 0 1
| 59>   C                    : 6.699430             -5.657267            -0.260360
| 60>   O                    : 6.373375             -4.714772            0.735711
| 61>   H                    : 6.683855             -5.044267            1.572619
| 62>   H                    : 6.083675             -5.429119            -1.111410
| 63>   H                    : 7.752837             -5.548398            -0.640329
| 64>   H                    : 6.603195             -6.639985            0.122955
| 65>   C                      4.675669             -2.819953            -2.455573
| 66>   O                      4.967275             -2.728420            -1.051334
| 67>   H                      5.809846             -3.177151            -0.928841
| 68>   H                      3.781209             -2.190699            -2.703473
| 69>   H                      5.494284             -2.357504            -3.049618
| 70>   H                      4.571858             -3.756048            -2.910539
| 71> *
| 72>
| 73>                          ****END OF INPUT****
 Total Charge           Charge          ....    0
 Multiplicity           Mult            ....    1
 Number of Electrons    NEL             ....   36
Dispersion correction           -0.001818320
FINAL SINGLE POINT ENERGY      -231.467365955845
Dispersion correction           -0.000233774
FINAL SINGLE POINT ENERGY      -115.734544503360

CARTESIAN COORDINATES (ANGSTROEM)
---------------------------------
  C      6.699430   -5.657267   -0.260360
  O      6.373375   -4.714772    0.735711
  H      6.683855   -5.044267    1.572619
  H      6.083675   -5.429119   -1.111410
  H      7.752837   -5.548398   -0.640329
  H      6.603195   -6.639985    0.122955
  C      4.675669   -2.819953   -2.455573
  O      4.967275   -2.728420   -1.051334
  H      5.809846   -3.177151   -0.928841
  H      3.781209   -2.190699   -2.703473
  H      5.494284   -2.357504   -3.049618
  H      4.571858   -3.756048   -2.910539

 Multiplicity           Mult            ....    1
 Number of Electrons    NEL             ....   18
 Basis Dimension        Dim             ....  172

ORBITAL ENERGIES
----------------

  NO   OCC          E(Eh)            E(eV)
   0   2.0000     -19.236570      -523.4537
   1   2.0000     -10.315015      -280.6858
   2   2.0000      -1.132639       -30.8207
   3   2.0000      -0.798841       -21.7376
   4   2.0000      -0.613708       -16.6999
   5   2.0000      -0.534862       -14.5543
   6   2.0000      -0.521582       -14.1930
   7   2.0000      -0.441426       -12.0118
   8   2.0000      -0.376703       -10.2506
   9   0.0000       0.074623         2.0306
  10   0.0000       0.131398         3.5755
  11   0.0000       0.149372         4.0646
  12   0.0000       0.169616         4.6155
  13   0.0000       0.186688         5.0800

MULLIKEN ATOMIC CHARGES
-----------------------
   0 C :   -0.004527
   1 O :   -0.000779
   2 H :   -0.000056
   3 H :   -0.002773
   4 H :    0.000206
   5 H :   -0.000372
   6 C :   -0.192871
   7 O :   -0.461306
   8 H :    0.315374
   9 H :    0.126063
  10 H :    0.104668
  11 H :    0.116372
Sum of atomic charges:    0.0000000

LOEWDIN ATOMIC CHARGES
----------------------
   0 C :   -0.008486
   1 O :   -0.007321
   2 H :   -0.000289
   3 H :   -0.003846
   4 H :   -0.000196
   5 H :   -0.000146
   6 C :   -0.375549
   7 O :   -0.077036
   8 H :    0.173538
   9 H :    0.116761
  10 H :    0.099237
  11 H :    0.083334

  Mayer bond orders larger than 0.1
B(  6-C ,  7-O ) :   1.0047 B(  6-C ,  9-H ) :   0.9759 B(  6-C , 10-H ) :   0.9859
B(  6-C , 11-H ) :   0.9605 B(  7-O ,  8-H ) :   0.9010

Dispersion correction           -0.000257793
FINAL SINGLE POINT ENERGY      -115.731631208664

DIPOLE MOMENT
-------------
                                X             Y             Z
Electronic contribution:      0.16802       0.02295       1.93120
Nuclear contribution   :      0.23813      -0.33607      -2.43246
                        -----------------------------------------
Total Dipole Moment    :      0.40615      -0.31312      -0.50126
                        -----------------------------------------
Magnitude (a.u.)       :      0.71712
Magnitude (Debye)      :      1.82277

Rotational constants in cm-1:     4.400221     0.805836     0.770291
Rotational constants in MHz : 131915.299437 24158.369126 23092.751241

                             ****ORCA TERMINATED NORMALLY****
TOTAL RUN TIME: 0 days 0 hours 0 minutes 47 seconds 557 msec
