                         Program Version 4.1.2  - RELEASE  -
|  1> #Run DFT-D3 single point of the dimer
|  2> ! wB97X-D3 def2-TZVP TIGHTSCF CHELPG PMODEL PAL8
|  3>
|  4> %base "14-85_DFT_AB"
|  5>
|  6> %scf
|  7> MaxIter 1000
|  8> end
|  9>
| 10> * xyz 0 1
| 11>   C                      -4.858137            8.794378             -2.162719
| 12>   O                      -5.057893            9.023676             -0.762485
| 13>   H                      -4.277961            8.800261             -0.211867
| 14>   H                      -5.459045            7.976104             -2.597022
| 15>   H                      -5.076426            9.725379             -2.688449
| 16>   H                      -3.806476            8.543483             -2.442663
| 17>   C                      -6.014238            7.072502             2.361991
| 18>   O                      -6.223887            8.258419             1.706351
| 19>   H                      -6.623164            8.010038             0.897433
| 20>   H                      -5.496970            7.270082             3.295492
| 21>   H                      -6.945831            6.523959             2.467177
| 22>   H                      -5.412304            6.397185             1.786378
| 23> *
| 24>
| 25> #Run DFT-D3 single point of the molecule with dimer basis set
| 26> $new_job
| 27> %base "14-85_DFT_A"
| 28> ! wB97X-D3 def2-TZVP TIGHTSCF CHELPG PMODEL
| 29>
| 30> %scf
| 31> MaxIter 1000
| 32> end
| 33>
| 34> * xyz 0 1
| 35>   C                      -4.858137            8.794378             -2.162719
| 36>   O                      -5.057893            9.023676             -0.762485
| 37>   H                      -4.277961            8.800261             -0.211867
| 38>   H                      -5.459045            7.976104             -2.597022
| 39>   H                      -5.076426            9.725379             -2.688449
| 40>   H                      -3.806476            8.543483             -2.442663
| 41>   C                    : -6.014238            7.072502             2.361991
| 42>   O                    : -6.223887            8.258419             1.706351
| 43>   H                    : -6.623164            8.010038             0.897433
| 44>   H                    : -5.496970            7.270082             3.295492
| 45>   H                    : -6.945831            6.523959             2.467177
| 46>   H                    : -5.412304            6.397185             1.786378
| 47> *
| 48>
| 49> #Run DFT-D3 single point of the particle with dimer basis set
| 50> $new_job
| 51> %base "14-85_DFT_B"
| 52> ! wB97X-D3 def2-TZVP TIGHTSCF CHELPG PMODEL
| 53>
| 54> %scf
| 55> MaxIter 1000
| 56> end
| 57>
| 58> * xyz 0 1
| 59>   C                    : -4.858137            8.794378             -2.162719
| 60>   O                    : -5.057893            9.023676             -0.762485
| 61>   H                    : -4.277961            8.800261             -0.211867
| 62>   H                    : -5.459045            7.976104             -2.597022
| 63>   H                    : -5.076426            9.725379             -2.688449
| 64>   H                    : -3.806476            8.543483             -2.442663
| 65>   C                      -6.014238            7.072502             2.361991
| 66>   O                      -6.223887            8.258419             1.706351
| 67>   H                      -6.623164            8.010038             0.897433
| 68>   H                      -5.496970            7.270082             3.295492
| 69>   H                      -6.945831            6.523959             2.467177
| 70>   H                      -5.412304            6.397185             1.786378
| 71> *
| 72>
| 73>                          ****END OF INPUT****
 Total Charge           Charge          ....    0
 Multiplicity           Mult            ....    1
 Number of Electrons    NEL             ....   36
Dispersion correction           -0.001564104
FINAL SINGLE POINT ENERGY      -231.468186073390
Dispersion correction           -0.000282954
FINAL SINGLE POINT ENERGY      -115.733096935922

CARTESIAN COORDINATES (ANGSTROEM)
---------------------------------
  C     -4.858137    8.794378   -2.162719
  O     -5.057893    9.023676   -0.762485
  H     -4.277961    8.800261   -0.211867
  H     -5.459045    7.976104   -2.597022
  H     -5.076426    9.725379   -2.688449
  H     -3.806476    8.543483   -2.442663
  C     -6.014238    7.072502    2.361991
  O     -6.223887    8.258419    1.706351
  H     -6.623164    8.010038    0.897433
  H     -5.496970    7.270082    3.295492
  H     -6.945831    6.523959    2.467177
  H     -5.412304    6.397185    1.786378

 Multiplicity           Mult            ....    1
 Number of Electrons    NEL             ....   18
 Basis Dimension        Dim             ....  172

ORBITAL ENERGIES
----------------

  NO   OCC          E(Eh)            E(eV)
   0   2.0000     -19.228623      -523.2374
   1   2.0000     -10.305667      -280.4315
   2   2.0000      -1.158269       -31.5181
   3   2.0000      -0.797035       -21.6884
   4   2.0000      -0.627582       -17.0774
   5   2.0000      -0.546746       -14.8777
   6   2.0000      -0.532855       -14.4997
   7   2.0000      -0.442428       -12.0391
   8   2.0000      -0.369697       -10.0600
   9   0.0000       0.081159         2.2084
  10   0.0000       0.124650         3.3919
  11   0.0000       0.159616         4.3434
  12   0.0000       0.175546         4.7768
  13   0.0000       0.195883         5.3303

MULLIKEN ATOMIC CHARGES
-----------------------
   0 C :   -0.000605
   1 O :   -0.004321
   2 H :   -0.004603
   3 H :   -0.000030
   4 H :    0.000030
   5 H :    0.000049
   6 C :   -0.159984
   7 O :   -0.451877
   8 H :    0.312946
   9 H :    0.116938
  10 H :    0.096514
  11 H :    0.094943
Sum of atomic charges:    0.0000000

LOEWDIN ATOMIC CHARGES
----------------------
   0 C :   -0.000971
   1 O :   -0.012283
   2 H :   -0.006643
   3 H :   -0.000063
   4 H :   -0.000028
   5 H :   -0.000014
   6 C :   -0.411528
   7 O :   -0.018241
   8 H :    0.160616
   9 H :    0.108993
  10 H :    0.092609
  11 H :    0.087555

  Mayer bond orders larger than 0.1
B(  6-C ,  7-O ) :   1.0005 B(  6-C ,  9-H ) :   0.9744 B(  6-C , 10-H ) :   0.9826
B(  6-C , 11-H ) :   0.9775 B(  7-O ,  8-H ) :   0.9036

Dispersion correction           -0.000195653
FINAL SINGLE POINT ENERGY      -115.733007934091

DIPOLE MOMENT
-------------
                                X             Y             Z
Electronic contribution:     -0.21856       1.68116      -0.66539
Nuclear contribution   :      0.04595      -2.28610       0.40280
                        -----------------------------------------
Total Dipole Moment    :     -0.17261      -0.60494      -0.26259
                        -----------------------------------------
Magnitude (a.u.)       :      0.68169
Magnitude (Debye)      :      1.73272

Rotational constants in cm-1:     4.363513     0.892129     0.846467
Rotational constants in MHz : 130814.822118 26745.345790 25376.433204

                             ****ORCA TERMINATED NORMALLY****
TOTAL RUN TIME: 0 days 0 hours 1 minutes 9 seconds 906 msec
