                         Program Version 4.1.2  - RELEASE  -
|  1> #Run DFT-D3 single point of the dimer
|  2> ! wB97X-D3 def2-TZVP TIGHTSCF CHELPG PMODEL PAL8
|  3>
|  4> %base "12-155_DFT_AB"
|  5>
|  6> %scf
|  7> MaxIter 1000
|  8> end
|  9>
| 10> * xyz 0 1
| 11>   C                      -7.224004            7.290455             10.278279
| 12>   O                      -6.925408            8.597929             9.892844
| 13>   H                      -6.394660            8.928459             10.645787
| 14>   H                      -6.290563            6.857271             10.736807
| 15>   H                      -8.049443            7.282253             10.971082
| 16>   H                      -7.523752            6.630570             9.513840
| 17>   C                      -2.317205            8.892948             11.292753
| 18>   O                      -3.647134            8.711647             10.800370
| 19>   H                      -3.560660            8.821451             9.892221
| 20>   H                      -2.353586            9.104131             12.371504
| 21>   H                      -1.625960            8.131129             10.992430
| 22>   H                      -1.778977            9.724011             10.888744
| 23> *
| 24>
| 25> #Run DFT-D3 single point of the molecule with dimer basis set
| 26> $new_job
| 27> %base "12-155_DFT_A"
| 28> ! wB97X-D3 def2-TZVP TIGHTSCF CHELPG PMODEL
| 29>
| 30> %scf
| 31> MaxIter 1000
| 32> end
| 33>
| 34> * xyz 0 1
| 35>   C                      -7.224004            7.290455             10.278279
| 36>   O                      -6.925408            8.597929             9.892844
| 37>   H                      -6.394660            8.928459             10.645787
| 38>   H                      -6.290563            6.857271             10.736807
| 39>   H                      -8.049443            7.282253             10.971082
| 40>   H                      -7.523752            6.630570             9.513840
| 41>   C                    : -2.317205            8.892948             11.292753
| 42>   O                    : -3.647134            8.711647             10.800370
| 43>   H                    : -3.560660            8.821451             9.892221
| 44>   H                    : -2.353586            9.104131             12.371504
| 45>   H                    : -1.625960            8.131129             10.992430
| 46>   H                    : -1.778977            9.724011             10.888744
| 47> *
| 48>
| 49> #Run DFT-D3 single point of the particle with dimer basis set
| 50> $new_job
| 51> %base "12-155_DFT_B"
| 52> ! wB97X-D3 def2-TZVP TIGHTSCF CHELPG PMODEL
| 53>
| 54> %scf
| 55> MaxIter 1000
| 56> end
| 57>
| 58> * xyz 0 1
| 59>   C                    : -7.224004            7.290455             10.278279
| 60>   O                    : -6.925408            8.597929             9.892844
| 61>   H                    : -6.394660            8.928459             10.645787
| 62>   H                    : -6.290563            6.857271             10.736807
| 63>   H                    : -8.049443            7.282253             10.971082
| 64>   H                    : -7.523752            6.630570             9.513840
| 65>   C                      -2.317205            8.892948             11.292753
| 66>   O                      -3.647134            8.711647             10.800370
| 67>   H                      -3.560660            8.821451             9.892221
| 68>   H                      -2.353586            9.104131             12.371504
| 69>   H                      -1.625960            8.131129             10.992430
| 70>   H                      -1.778977            9.724011             10.888744
| 71> *
| 72>
| 73>                          ****END OF INPUT****
 Total Charge           Charge          ....    0
 Multiplicity           Mult            ....    1
 Number of Electrons    NEL             ....   36
Dispersion correction           -0.001369756
FINAL SINGLE POINT ENERGY      -231.464267923369
Dispersion correction           -0.000213552
FINAL SINGLE POINT ENERGY      -115.730734367352

CARTESIAN COORDINATES (ANGSTROEM)
---------------------------------
  C     -7.224004    7.290455   10.278279
  O     -6.925408    8.597929    9.892844
  H     -6.394660    8.928459   10.645787
  H     -6.290563    6.857271   10.736807
  H     -8.049443    7.282253   10.971082
  H     -7.523752    6.630570    9.513840
  C     -2.317205    8.892948   11.292753
  O     -3.647134    8.711647   10.800370
  H     -3.560660    8.821451    9.892221
  H     -2.353586    9.104131   12.371504
  H     -1.625960    8.131129   10.992430
  H     -1.778977    9.724011   10.888744

 Multiplicity           Mult            ....    1
 Number of Electrons    NEL             ....   18
 Basis Dimension        Dim             ....  172

ORBITAL ENERGIES
----------------

  NO   OCC          E(Eh)            E(eV)
   0   2.0000     -19.231207      -523.3078
   1   2.0000     -10.310656      -280.5672
   2   2.0000      -1.144749       -31.1502
   3   2.0000      -0.804456       -21.8904
   4   2.0000      -0.622940       -16.9511
   5   2.0000      -0.540566       -14.7095
   6   2.0000      -0.517285       -14.0760
   7   2.0000      -0.449035       -12.2189
   8   2.0000      -0.376158       -10.2358
   9   0.0000       0.097795         2.6611
  10   0.0000       0.123812         3.3691
  11   0.0000       0.153306         4.1717
  12   0.0000       0.190941         5.1958
  13   0.0000       0.194298         5.2871

MULLIKEN ATOMIC CHARGES
-----------------------
   0 C :    0.002582
   1 O :    0.000343
   2 H :   -0.005369
   3 H :   -0.004470
   4 H :   -0.000165
   5 H :   -0.000063
   6 C :   -0.184893
   7 O :   -0.448119
   8 H :    0.303731
   9 H :    0.125452
  10 H :    0.107184
  11 H :    0.103786
Sum of atomic charges:    0.0000000

LOEWDIN ATOMIC CHARGES
----------------------
   0 C :   -0.001554
   1 O :   -0.000760
   2 H :   -0.006666
   3 H :   -0.002382
   4 H :   -0.000010
   5 H :   -0.000006
   6 C :   -0.374748
   7 O :   -0.053307
   8 H :    0.143005
   9 H :    0.113215
  10 H :    0.092271
  11 H :    0.090941

  Mayer bond orders larger than 0.1
B(  6-C ,  7-O ) :   0.9954 B(  6-C ,  9-H ) :   0.9776 B(  6-C , 10-H ) :   0.9700
B(  6-C , 11-H ) :   0.9730 B(  7-O ,  8-H ) :   0.9120

Dispersion correction           -0.000237096
FINAL SINGLE POINT ENERGY      -115.728651701602

DIPOLE MOMENT
-------------
                                X             Y             Z
Electronic contribution:     -1.82756      -0.33038      -0.48235
Nuclear contribution   :      2.44086       0.50963       0.07791
                        -----------------------------------------
Total Dipole Moment    :      0.61330       0.17925      -0.40444
                        -----------------------------------------
Magnitude (a.u.)       :      0.75620
Magnitude (Debye)      :      1.92212

Rotational constants in cm-1:     4.525117     0.822927     0.782897
Rotational constants in MHz : 135659.607282 24670.735604 23470.653991

                             ****ORCA TERMINATED NORMALLY****
TOTAL RUN TIME: 0 days 0 hours 1 minutes 15 seconds 724 msec
