                         Program Version 4.1.2  - RELEASE  -
|  1> #Run DFT-D3 single point of the dimer
|  2> ! wB97X-D3 def2-TZVP TIGHTSCF CHELPG PMODEL PAL8
|  3>
|  4> %base "12-72_DFT_AB"
|  5>
|  6> %scf
|  7> MaxIter 1000
|  8> end
|  9>
| 10> * xyz 0 1
| 11>   C                      7.095750             3.934989             5.712976
| 12>   O                      8.233398             3.019336             5.783510
| 13>   H                      8.730311             3.165655             4.956165
| 14>   H                      6.340234             3.723684             6.452433
| 15>   H                      7.425371             4.894638             6.015371
| 16>   H                      6.636750             3.988568             4.765022
| 17>   C                      3.956507             1.040913             5.712762
| 18>   O                      3.270265             1.004791             4.430066
| 19>   H                      3.128892             0.085421             4.125084
| 20>   H                      4.511918             0.105670             5.938413
| 21>   H                      4.750110             1.797890             5.820601
| 22>   H                      3.207458             1.201066             6.457133
| 23> *
| 24>
| 25> #Run DFT-D3 single point of the molecule with dimer basis set
| 26> $new_job
| 27> %base "12-72_DFT_A"
| 28> ! wB97X-D3 def2-TZVP TIGHTSCF CHELPG PMODEL
| 29>
| 30> %scf
| 31> MaxIter 1000
| 32> end
| 33>
| 34> * xyz 0 1
| 35>   C                      7.095750             3.934989             5.712976
| 36>   O                      8.233398             3.019336             5.783510
| 37>   H                      8.730311             3.165655             4.956165
| 38>   H                      6.340234             3.723684             6.452433
| 39>   H                      7.425371             4.894638             6.015371
| 40>   H                      6.636750             3.988568             4.765022
| 41>   C                    : 3.956507             1.040913             5.712762
| 42>   O                    : 3.270265             1.004791             4.430066
| 43>   H                    : 3.128892             0.085421             4.125084
| 44>   H                    : 4.511918             0.105670             5.938413
| 45>   H                    : 4.750110             1.797890             5.820601
| 46>   H                    : 3.207458             1.201066             6.457133
| 47> *
| 48>
| 49> #Run DFT-D3 single point of the particle with dimer basis set
| 50> $new_job
| 51> %base "12-72_DFT_B"
| 52> ! wB97X-D3 def2-TZVP TIGHTSCF CHELPG PMODEL
| 53>
| 54> %scf
| 55> MaxIter 1000
| 56> end
| 57>
| 58> * xyz 0 1
| 59>   C                    : 7.095750             3.934989             5.712976
| 60>   O                    : 8.233398             3.019336             5.783510
| 61>   H                    : 8.730311             3.165655             4.956165
| 62>   H                    : 6.340234             3.723684             6.452433
| 63>   H                    : 7.425371             4.894638             6.015371
| 64>   H                    : 6.636750             3.988568             4.765022
| 65>   C                      3.956507             1.040913             5.712762
| 66>   O                      3.270265             1.004791             4.430066
| 67>   H                      3.128892             0.085421             4.125084
| 68>   H                      4.511918             0.105670             5.938413
| 69>   H                      4.750110             1.797890             5.820601
| 70>   H                      3.207458             1.201066             6.457133
| 71> *
| 72>
| 73>                          ****END OF INPUT****
 Total Charge           Charge          ....    0
 Multiplicity           Mult            ....    1
 Number of Electrons    NEL             ....   36
Dispersion correction           -0.001237130
FINAL SINGLE POINT ENERGY      -231.462729744502
Dispersion correction           -0.000247378
FINAL SINGLE POINT ENERGY      -115.730930935434

CARTESIAN COORDINATES (ANGSTROEM)
---------------------------------
  C      7.095750    3.934989    5.712976
  O      8.233398    3.019336    5.783510
  H      8.730311    3.165655    4.956165
  H      6.340234    3.723684    6.452433
  H      7.425371    4.894638    6.015371
  H      6.636750    3.988568    4.765022
  C      3.956507    1.040913    5.712762
  O      3.270265    1.004791    4.430066
  H      3.128892    0.085421    4.125084
  H      4.511918    0.105670    5.938413
  H      4.750110    1.797890    5.820601
  H      3.207458    1.201066    6.457133

 Multiplicity           Mult            ....    1
 Number of Electrons    NEL             ....   18
 Basis Dimension        Dim             ....  172

ORBITAL ENERGIES
----------------

  NO   OCC          E(Eh)            E(eV)
   0   2.0000     -19.230458      -523.2874
   1   2.0000     -10.317141      -280.7437
   2   2.0000      -1.117949       -30.4209
   3   2.0000      -0.797934       -21.7129
   4   2.0000      -0.601882       -16.3780
   5   2.0000      -0.541882       -14.7454
   6   2.0000      -0.519851       -14.1459
   7   2.0000      -0.427168       -11.6238
   8   2.0000      -0.375234       -10.2106
   9   0.0000       0.086994         2.3672
  10   0.0000       0.113478         3.0879
  11   0.0000       0.148013         4.0276
  12   0.0000       0.168774         4.5926
  13   0.0000       0.187518         5.1026

MULLIKEN ATOMIC CHARGES
-----------------------
   0 C :    0.001161
   1 O :   -0.000148
   2 H :   -0.000018
   3 H :    0.000214
   4 H :    0.000234
   5 H :   -0.000015
   6 C :   -0.170551
   7 O :   -0.493062
   8 H :    0.321528
   9 H :    0.107495
  10 H :    0.115557
  11 H :    0.117605
Sum of atomic charges:   -0.0000000

LOEWDIN ATOMIC CHARGES
----------------------
   0 C :   -0.003468
   1 O :   -0.000013
   2 H :   -0.000007
   3 H :   -0.002333
   4 H :   -0.000018
   5 H :   -0.000310
   6 C :   -0.356682
   7 O :   -0.117740
   8 H :    0.176962
   9 H :    0.101342
  10 H :    0.108027
  11 H :    0.094239

  Mayer bond orders larger than 0.1
B(  6-C ,  7-O ) :   1.0039 B(  6-C ,  9-H ) :   0.9798 B(  6-C , 10-H ) :   0.9651
B(  6-C , 11-H ) :   0.9835 B(  7-O ,  8-H ) :   0.8928

Dispersion correction           -0.000276936
FINAL SINGLE POINT ENERGY      -115.730640942723

DIPOLE MOMENT
-------------
                                X             Y             Z
Electronic contribution:     -0.87997       0.14134      -1.62191
Nuclear contribution   :      1.09419      -0.73060       1.97611
                        -----------------------------------------
Total Dipole Moment    :      0.21421      -0.58926       0.35420
                        -----------------------------------------
Magnitude (a.u.)       :      0.72012
Magnitude (Debye)      :      1.83040

Rotational constants in cm-1:     4.383546     0.780698     0.757855
Rotational constants in MHz : 131415.392538 23404.737591 22719.907270

                             ****ORCA TERMINATED NORMALLY****
TOTAL RUN TIME: 0 days 0 hours 1 minutes 2 seconds 358 msec
