                         Program Version 4.1.2  - RELEASE  -
|  1> #Run DFT-D3 single point of the dimer
|  2> ! wB97X-D3 def2-TZVP TIGHTSCF CHELPG PMODEL PAL8
|  3>
|  4> %base "9-82_DFT_AB"
|  5>
|  6> %scf
|  7> MaxIter 1000
|  8> end
|  9>
| 10> * xyz 0 1
| 11>   C                      6.644204             -5.381908            9.413953
| 12>   O                      6.052512             -6.076243            8.369976
| 13>   H                      6.674226             -6.664635            7.970221
| 14>   H                      5.870115             -4.708260            9.921547
| 15>   H                      6.957315             -6.125516            10.130067
| 16>   H                      7.387805             -4.639974            9.029258
| 17>   C                      8.667192             -2.641642            10.520514
| 18>   O                      9.158234             -1.629762            11.344685
| 19>   H                      9.827547             -1.164155            10.900007
| 20>   H                      9.598113             -3.253943            10.242457
| 21>   H                      7.949589             -3.257026            11.078111
| 22>   H                      8.144824             -2.275354            9.639757
| 23> *
| 24>
| 25> #Run DFT-D3 single point of the molecule with dimer basis set
| 26> $new_job
| 27> %base "9-82_DFT_A"
| 28> ! wB97X-D3 def2-TZVP TIGHTSCF CHELPG PMODEL
| 29>
| 30> %scf
| 31> MaxIter 1000
| 32> end
| 33>
| 34> * xyz 0 1
| 35>   C                      6.644204             -5.381908            9.413953
| 36>   O                      6.052512             -6.076243            8.369976
| 37>   H                      6.674226             -6.664635            7.970221
| 38>   H                      5.870115             -4.708260            9.921547
| 39>   H                      6.957315             -6.125516            10.130067
| 40>   H                      7.387805             -4.639974            9.029258
| 41>   C                    : 8.667192             -2.641642            10.520514
| 42>   O                    : 9.158234             -1.629762            11.344685
| 43>   H                    : 9.827547             -1.164155            10.900007
| 44>   H                    : 9.598113             -3.253943            10.242457
| 45>   H                    : 7.949589             -3.257026            11.078111
| 46>   H                    : 8.144824             -2.275354            9.639757
| 47> *
| 48>
| 49> #Run DFT-D3 single point of the particle with dimer basis set
| 50> $new_job
| 51> %base "9-82_DFT_B"
| 52> ! wB97X-D3 def2-TZVP TIGHTSCF CHELPG PMODEL
| 53>
| 54> %scf
| 55> MaxIter 1000
| 56> end
| 57>
| 58> * xyz 0 1
| 59>   C                    : 6.644204             -5.381908            9.413953
| 60>   O                    : 6.052512             -6.076243            8.369976
| 61>   H                    : 6.674226             -6.664635            7.970221
| 62>   H                    : 5.870115             -4.708260            9.921547
| 63>   H                    : 6.957315             -6.125516            10.130067
| 64>   H                    : 7.387805             -4.639974            9.029258
| 65>   C                      8.667192             -2.641642            10.520514
| 66>   O                      9.158234             -1.629762            11.344685
| 67>   H                      9.827547             -1.164155            10.900007
| 68>   H                      9.598113             -3.253943            10.242457
| 69>   H                      7.949589             -3.257026            11.078111
| 70>   H                      8.144824             -2.275354            9.639757
| 71> *
| 72>
| 73>                          ****END OF INPUT****
 Total Charge           Charge          ....    0
 Multiplicity           Mult            ....    1
 Number of Electrons    NEL             ....   36
Dispersion correction           -0.001545771
FINAL SINGLE POINT ENERGY      -231.463707211406
Dispersion correction           -0.000228829
FINAL SINGLE POINT ENERGY      -115.730832695628

CARTESIAN COORDINATES (ANGSTROEM)
---------------------------------
  C      6.644204   -5.381908    9.413953
  O      6.052512   -6.076243    8.369976
  H      6.674226   -6.664635    7.970221
  H      5.870115   -4.708260    9.921547
  H      6.957315   -6.125516   10.130067
  H      7.387805   -4.639974    9.029258
  C      8.667192   -2.641642   10.520514
  O      9.158234   -1.629762   11.344685
  H      9.827547   -1.164155   10.900007
  H      9.598113   -3.253943   10.242457
  H      7.949589   -3.257026   11.078111
  H      8.144824   -2.275354    9.639757

 Multiplicity           Mult            ....    1
 Number of Electrons    NEL             ....   18
 Basis Dimension        Dim             ....  172

ORBITAL ENERGIES
----------------

  NO   OCC          E(Eh)            E(eV)
   0   2.0000     -19.224469      -523.1244
   1   2.0000     -10.317666      -280.7580
   2   2.0000      -1.147424       -31.2230
   3   2.0000      -0.794338       -21.6150
   4   2.0000      -0.613618       -16.6974
   5   2.0000      -0.547248       -14.8914
   6   2.0000      -0.531158       -14.4535
   7   2.0000      -0.428065       -11.6483
   8   2.0000      -0.370930       -10.0935
   9   0.0000       0.084535         2.3003
  10   0.0000       0.117127         3.1872
  11   0.0000       0.149923         4.0796
  12   0.0000       0.173640         4.7250
  13   0.0000       0.187335         5.0976

MULLIKEN ATOMIC CHARGES
-----------------------
   0 C :   -0.001703
   1 O :    0.000020
   2 H :   -0.000000
   3 H :   -0.000171
   4 H :   -0.000058
   5 H :    0.001506
   6 C :   -0.158983
   7 O :   -0.467479
   8 H :    0.310173
   9 H :    0.094737
  10 H :    0.122384
  11 H :    0.099574
Sum of atomic charges:   -0.0000000

LOEWDIN ATOMIC CHARGES
----------------------
   0 C :   -0.006463
   1 O :   -0.000021
   2 H :   -0.000007
   3 H :   -0.000984
   4 H :   -0.000243
   5 H :   -0.004098
   6 C :   -0.395376
   7 O :   -0.051414
   8 H :    0.148400
   9 H :    0.106027
  10 H :    0.112009
  11 H :    0.092173

  Mayer bond orders larger than 0.1
B(  6-C ,  7-O ) :   1.0027 B(  6-C ,  9-H ) :   0.9868 B(  6-C , 10-H ) :   0.9712
B(  6-C , 11-H ) :   0.9675 B(  7-O ,  8-H ) :   0.9048

Dispersion correction           -0.000225335
FINAL SINGLE POINT ENERGY      -115.732335449057

DIPOLE MOMENT
-------------
                                X             Y             Z
Electronic contribution:      0.44460       1.30655       1.12513
Nuclear contribution   :     -0.21869      -1.38356      -1.71995
                        -----------------------------------------
Total Dipole Moment    :      0.22591      -0.07702      -0.59482
                        -----------------------------------------
Magnitude (a.u.)       :      0.64092
Magnitude (Debye)      :      1.62908

Rotational constants in cm-1:     4.193449     0.852391     0.825234
Rotational constants in MHz : 125716.448726 25554.050686 24739.884086

                             ****ORCA TERMINATED NORMALLY****
TOTAL RUN TIME: 0 days 0 hours 0 minutes 42 seconds 829 msec
