                         Program Version 4.1.2  - RELEASE  -
|  1> #Run DFT-D3 single point of the dimer
|  2> ! wB97X-D3 def2-TZVP TIGHTSCF CHELPG PMODEL PAL8
|  3>
|  4> %base "1-31_DFT_AB"
|  5>
|  6> %scf
|  7> MaxIter 1000
|  8> end
|  9>
| 10> * xyz 0 1
| 11>   C                      -2.354992            4.220558             -11.114118
| 12>   O                      -3.266662            5.290288             -11.142796
| 13>   H                      -4.137291            4.981376             -11.457363
| 14>   H                      -1.583191            4.453698             -10.358504
| 15>   H                      -2.862234            3.277000             -10.825924
| 16>   H                      -1.849931            4.156217             -12.122973
| 17>   C                      1.963681             1.214040             -8.571409
| 18>   O                      2.853673             2.110296             -7.897743
| 19>   H                      3.648874             1.584822             -7.774481
| 20>   H                      1.308460             0.707925             -7.854799
| 21>   H                      1.256957             1.784214             -9.191286
| 22>   H                      2.413840             0.402646             -9.151699
| 23> *
| 24>
| 25> #Run DFT-D3 single point of the molecule with dimer basis set
| 26> $new_job
| 27> %base "1-31_DFT_A"
| 28> ! wB97X-D3 def2-TZVP TIGHTSCF CHELPG PMODEL
| 29>
| 30> %scf
| 31> MaxIter 1000
| 32> end
| 33>
| 34> * xyz 0 1
| 35>   C                      -2.354992            4.220558             -11.114118
| 36>   O                      -3.266662            5.290288             -11.142796
| 37>   H                      -4.137291            4.981376             -11.457363
| 38>   H                      -1.583191            4.453698             -10.358504
| 39>   H                      -2.862234            3.277000             -10.825924
| 40>   H                      -1.849931            4.156217             -12.122973
| 41>   C                    : 1.963681             1.214040             -8.571409
| 42>   O                    : 2.853673             2.110296             -7.897743
| 43>   H                    : 3.648874             1.584822             -7.774481
| 44>   H                    : 1.308460             0.707925             -7.854799
| 45>   H                    : 1.256957             1.784214             -9.191286
| 46>   H                    : 2.413840             0.402646             -9.151699
| 47> *
| 48>
| 49> #Run DFT-D3 single point of the particle with dimer basis set
| 50> $new_job
| 51> %base "1-31_DFT_B"
| 52> ! wB97X-D3 def2-TZVP TIGHTSCF CHELPG PMODEL
| 53>
| 54> %scf
| 55> MaxIter 1000
| 56> end
| 57>
| 58> * xyz 0 1
| 59>   C                    : -2.354992            4.220558             -11.114118
| 60>   O                    : -3.266662            5.290288             -11.142796
| 61>   H                    : -4.137291            4.981376             -11.457363
| 62>   H                    : -1.583191            4.453698             -10.358504
| 63>   H                    : -2.862234            3.277000             -10.825924
| 64>   H                    : -1.849931            4.156217             -12.122973
| 65>   C                      1.963681             1.214040             -8.571409
| 66>   O                      2.853673             2.110296             -7.897743
| 67>   H                      3.648874             1.584822             -7.774481
| 68>   H                      1.308460             0.707925             -7.854799
| 69>   H                      1.256957             1.784214             -9.191286
| 70>   H                      2.413840             0.402646             -9.151699
| 71> *
| 72>
| 73>                          ****END OF INPUT****
 Total Charge           Charge          ....    0
 Multiplicity           Mult            ....    1
 Number of Electrons    NEL             ....   36
Dispersion correction           -0.000624342
FINAL SINGLE POINT ENERGY      -231.468489503586
Dispersion correction           -0.000244943
FINAL SINGLE POINT ENERGY      -115.734829218765

CARTESIAN COORDINATES (ANGSTROEM)
---------------------------------
  C     -2.354992    4.220558  -11.114118
  O     -3.266662    5.290288  -11.142796
  H     -4.137291    4.981376  -11.457363
  H     -1.583191    4.453698  -10.358504
  H     -2.862234    3.277000  -10.825924
  H     -1.849931    4.156217  -12.122973
  C      1.963681    1.214040   -8.571409
  O      2.853673    2.110296   -7.897743
  H      3.648874    1.584822   -7.774481
  H      1.308460    0.707925   -7.854799
  H      1.256957    1.784214   -9.191286
  H      2.413840    0.402646   -9.151699

 Multiplicity           Mult            ....    1
 Number of Electrons    NEL             ....   18
 Basis Dimension        Dim             ....  172

ORBITAL ENERGIES
----------------

  NO   OCC          E(Eh)            E(eV)
   0   2.0000     -19.234340      -523.3930
   1   2.0000     -10.314902      -280.6828
   2   2.0000      -1.134849       -30.8808
   3   2.0000      -0.795426       -21.6446
   4   2.0000      -0.611245       -16.6328
   5   2.0000      -0.530821       -14.4444
   6   2.0000      -0.524936       -14.2842
   7   2.0000      -0.446957       -12.1623
   8   2.0000      -0.372746       -10.1429
   9   0.0000       0.086319         2.3489
  10   0.0000       0.114343         3.1114
  11   0.0000       0.144453         3.9308
  12   0.0000       0.166257         4.5241
  13   0.0000       0.195230         5.3125

MULLIKEN ATOMIC CHARGES
-----------------------
   0 C :   -0.000028
   1 O :   -0.000000
   2 H :   -0.000000
   3 H :   -0.000012
   4 H :   -0.000005
   5 H :   -0.000003
   6 C :   -0.179916
   7 O :   -0.463486
   8 H :    0.314011
   9 H :    0.101488
  10 H :    0.117684
  11 H :    0.110267
Sum of atomic charges:   -0.0000000

LOEWDIN ATOMIC CHARGES
----------------------
   0 C :   -0.000052
   1 O :   -0.000001
   2 H :   -0.000000
   3 H :   -0.000042
   4 H :   -0.000004
   5 H :   -0.000002
   6 C :   -0.382846
   7 O :   -0.086236
   8 H :    0.170778
   9 H :    0.095190
  10 H :    0.106892
  11 H :    0.096323

  Mayer bond orders larger than 0.1
B(  6-C ,  7-O ) :   1.0093 B(  6-C ,  9-H ) :   0.9767 B(  6-C , 10-H ) :   0.9775
B(  6-C , 11-H ) :   0.9743 B(  7-O ,  8-H ) :   0.9027

Dispersion correction           -0.000255055
FINAL SINGLE POINT ENERGY      -115.733639790738

DIPOLE MOMENT
-------------
                                X             Y             Z
Electronic contribution:      1.17765       1.29084       0.81166
Nuclear contribution   :     -1.02713      -1.98139      -1.00045
                        -----------------------------------------
Total Dipole Moment    :      0.15052      -0.69055      -0.18879
                        -----------------------------------------
Magnitude (a.u.)       :      0.73155
Magnitude (Debye)      :      1.85945

Rotational constants in cm-1:     4.322661     0.816266     0.778826
Rotational constants in MHz : 129590.106299 24471.030714 23348.602803

                             ****ORCA TERMINATED NORMALLY****
TOTAL RUN TIME: 0 days 0 hours 3 minutes 54 seconds 953 msec
