                         Program Version 4.1.2  - RELEASE  -
|  1> #Run DFT-D3 single point of the dimer
|  2> ! wB97X-D3 def2-TZVP TIGHTSCF CHELPG PMODEL PAL8
|  3>
|  4> %base "5-112_DFT_AB"
|  5>
|  6> %scf
|  7> MaxIter 1000
|  8> end
|  9>
| 10> * xyz 0 1
| 11>   C                      6.493591             -7.114689            5.665414
| 12>   O                      7.749158             -7.200561            5.023627
| 13>   H                      8.417499             -7.256658            5.702624
| 14>   H                      6.411173             -7.828988            6.442911
| 15>   H                      6.322881             -6.124128            6.161306
| 16>   H                      5.695959             -7.314876            5.013645
| 17>   C                      6.084113             -8.611953            1.806768
| 18>   O                      7.327695             -8.626183            2.447015
| 19>   H                      7.478803             -8.353929            3.386143
| 20>   H                      5.727032             -7.640368            1.558098
| 21>   H                      5.902592             -9.304816            1.042302
| 22>   H                      5.355908             -8.998010            2.538191
| 23> *
| 24>
| 25> #Run DFT-D3 single point of the molecule with dimer basis set
| 26> $new_job
| 27> %base "5-112_DFT_A"
| 28> ! wB97X-D3 def2-TZVP TIGHTSCF CHELPG PMODEL
| 29>
| 30> %scf
| 31> MaxIter 1000
| 32> end
| 33>
| 34> * xyz 0 1
| 35>   C                      6.493591             -7.114689            5.665414
| 36>   O                      7.749158             -7.200561            5.023627
| 37>   H                      8.417499             -7.256658            5.702624
| 38>   H                      6.411173             -7.828988            6.442911
| 39>   H                      6.322881             -6.124128            6.161306
| 40>   H                      5.695959             -7.314876            5.013645
| 41>   C                    : 6.084113             -8.611953            1.806768
| 42>   O                    : 7.327695             -8.626183            2.447015
| 43>   H                    : 7.478803             -8.353929            3.386143
| 44>   H                    : 5.727032             -7.640368            1.558098
| 45>   H                    : 5.902592             -9.304816            1.042302
| 46>   H                    : 5.355908             -8.998010            2.538191
| 47> *
| 48>
| 49> #Run DFT-D3 single point of the particle with dimer basis set
| 50> $new_job
| 51> %base "5-112_DFT_B"
| 52> ! wB97X-D3 def2-TZVP TIGHTSCF CHELPG PMODEL
| 53>
| 54> %scf
| 55> MaxIter 1000
| 56> end
| 57>
| 58> * xyz 0 1
| 59>   C                    : 6.493591             -7.114689            5.665414
| 60>   O                    : 7.749158             -7.200561            5.023627
| 61>   H                    : 8.417499             -7.256658            5.702624
| 62>   H                    : 6.411173             -7.828988            6.442911
| 63>   H                    : 6.322881             -6.124128            6.161306
| 64>   H                    : 5.695959             -7.314876            5.013645
| 65>   C                      6.084113             -8.611953            1.806768
| 66>   O                      7.327695             -8.626183            2.447015
| 67>   H                      7.478803             -8.353929            3.386143
| 68>   H                      5.727032             -7.640368            1.558098
| 69>   H                      5.902592             -9.304816            1.042302
| 70>   H                      5.355908             -8.998010            2.538191
| 71> *
| 72>
| 73>                          ****END OF INPUT****
 Total Charge           Charge          ....    0
 Multiplicity           Mult            ....    1
 Number of Electrons    NEL             ....   36
Dispersion correction           -0.001834257
FINAL SINGLE POINT ENERGY      -231.461539964230
Dispersion correction           -0.000235109
FINAL SINGLE POINT ENERGY      -115.734199122104

CARTESIAN COORDINATES (ANGSTROEM)
---------------------------------
  C      6.493591   -7.114689    5.665414
  O      7.749158   -7.200561    5.023627
  H      8.417499   -7.256658    5.702624
  H      6.411173   -7.828988    6.442911
  H      6.322881   -6.124128    6.161306
  H      5.695959   -7.314876    5.013645
  C      6.084113   -8.611953    1.806768
  O      7.327695   -8.626183    2.447015
  H      7.478803   -8.353929    3.386143
  H      5.727032   -7.640368    1.558098
  H      5.902592   -9.304816    1.042302
  H      5.355908   -8.998010    2.538191

 Multiplicity           Mult            ....    1
 Number of Electrons    NEL             ....   18
 Basis Dimension        Dim             ....  172

ORBITAL ENERGIES
----------------

  NO   OCC          E(Eh)            E(eV)
   0   2.0000     -19.225197      -523.1442
   1   2.0000     -10.307554      -280.4828
   2   2.0000      -1.124623       -30.6025
   3   2.0000      -0.806554       -21.9475
   4   2.0000      -0.617486       -16.8027
   5   2.0000      -0.551704       -15.0126
   6   2.0000      -0.528521       -14.3818
   7   2.0000      -0.404708       -11.0127
   8   2.0000      -0.369922       -10.0661
   9   0.0000       0.067713         1.8426
  10   0.0000       0.136704         3.7199
  11   0.0000       0.138164         3.7596
  12   0.0000       0.172495         4.6938
  13   0.0000       0.188133         5.1194

MULLIKEN ATOMIC CHARGES
-----------------------
   0 C :   -0.006316
   1 O :   -0.002047
   2 H :   -0.000219
   3 H :    0.000444
   4 H :   -0.000070
   5 H :    0.000556
   6 C :   -0.132615
   7 O :   -0.518102
   8 H :    0.335898
   9 H :    0.099318
  10 H :    0.127553
  11 H :    0.095599
Sum of atomic charges:    0.0000000

LOEWDIN ATOMIC CHARGES
----------------------
   0 C :   -0.006673
   1 O :   -0.015458
   2 H :   -0.000789
   3 H :   -0.000117
   4 H :   -0.000131
   5 H :   -0.001489
   6 C :   -0.384253
   7 O :   -0.078566
   8 H :    0.196892
   9 H :    0.089638
  10 H :    0.099807
  11 H :    0.101138

  Mayer bond orders larger than 0.1
B(  6-C ,  7-O ) :   0.9758 B(  6-C ,  9-H ) :   0.9756 B(  6-C , 10-H ) :   0.9670
B(  6-C , 11-H ) :   0.9921 B(  7-O ,  8-H ) :   0.8783

Dispersion correction           -0.000265041
FINAL SINGLE POINT ENERGY      -115.719367840554

DIPOLE MOMENT
-------------
                                X             Y             Z
Electronic contribution:      1.76333       0.00898       0.49974
Nuclear contribution   :     -2.21617       0.15007      -0.13130
                        -----------------------------------------
Total Dipole Moment    :     -0.45284       0.15905       0.36844
                        -----------------------------------------
Magnitude (a.u.)       :      0.60507
Magnitude (Debye)      :      1.53796

Rotational constants in cm-1:     4.804356     0.814811     0.799665
Rotational constants in MHz : 144030.970369 24427.427939 23973.355691

                             ****ORCA TERMINATED NORMALLY****
TOTAL RUN TIME: 0 days 0 hours 1 minutes 4 seconds 961 msec
