                         Program Version 4.1.2  - RELEASE  -
|  1> #Run DFT-D3 single point of the dimer
|  2> ! wB97X-D3 def2-TZVP TIGHTSCF CHELPG PMODEL PAL8
|  3>
|  4> %base "16-31_DFT_AB"
|  5>
|  6> %scf
|  7> MaxIter 1000
|  8> end
|  9>
| 10> * xyz 0 1
| 11>   C                      -9.948473            -1.812941            5.438624
| 12>   O                      -9.656483            -1.904055            6.869065
| 13>   H                      -8.898172            -2.436655            7.042660
| 14>   H                      -10.795136           -1.169837            5.194730
| 15>   H                      -9.039130            -1.454169            4.871001
| 16>   H                      -10.203844           -2.769139            4.921275
| 17>   C                      -9.797061            -1.577550            10.368817
| 18>   O                      -10.590985           -2.500985            10.937394
| 19>   H                      -11.463096           -2.165033            10.924863
| 20>   H                      -10.089109           -0.589733            10.680319
| 21>   H                      -8.732386            -1.767176            10.502369
| 22>   H                      -9.964905            -1.573559            9.301118
| 23> *
| 24>
| 25> #Run DFT-D3 single point of the molecule with dimer basis set
| 26> $new_job
| 27> %base "16-31_DFT_A"
| 28> ! wB97X-D3 def2-TZVP TIGHTSCF CHELPG PMODEL
| 29>
| 30> %scf
| 31> MaxIter 1000
| 32> end
| 33>
| 34> * xyz 0 1
| 35>   C                      -9.948473            -1.812941            5.438624
| 36>   O                      -9.656483            -1.904055            6.869065
| 37>   H                      -8.898172            -2.436655            7.042660
| 38>   H                      -10.795136           -1.169837            5.194730
| 39>   H                      -9.039130            -1.454169            4.871001
| 40>   H                      -10.203844           -2.769139            4.921275
| 41>   C                    : -9.797061            -1.577550            10.368817
| 42>   O                    : -10.590985           -2.500985            10.937394
| 43>   H                    : -11.463096           -2.165033            10.924863
| 44>   H                    : -10.089109           -0.589733            10.680319
| 45>   H                    : -8.732386            -1.767176            10.502369
| 46>   H                    : -9.964905            -1.573559            9.301118
| 47> *
| 48>
| 49> #Run DFT-D3 single point of the particle with dimer basis set
| 50> $new_job
| 51> %base "16-31_DFT_B"
| 52> ! wB97X-D3 def2-TZVP TIGHTSCF CHELPG PMODEL
| 53>
| 54> %scf
| 55> MaxIter 1000
| 56> end
| 57>
| 58> * xyz 0 1
| 59>   C                    : -9.948473            -1.812941            5.438624
| 60>   O                    : -9.656483            -1.904055            6.869065
| 61>   H                    : -8.898172            -2.436655            7.042660
| 62>   H                    : -10.795136           -1.169837            5.194730
| 63>   H                    : -9.039130            -1.454169            4.871001
| 64>   H                    : -10.203844           -2.769139            4.921275
| 65>   C                      -9.797061            -1.577550            10.368817
| 66>   O                      -10.590985           -2.500985            10.937394
| 67>   H                      -11.463096           -2.165033            10.924863
| 68>   H                      -10.089109           -0.589733            10.680319
| 69>   H                      -8.732386            -1.767176            10.502369
| 70>   H                      -9.964905            -1.573559            9.301118
| 71> *
| 72>
| 73>                          ****END OF INPUT****
 Total Charge           Charge          ....    0
 Multiplicity           Mult            ....    1
 Number of Electrons    NEL             ....   36
Dispersion correction           -0.001282310
FINAL SINGLE POINT ENERGY      -231.461511024026
Dispersion correction           -0.000296861
FINAL SINGLE POINT ENERGY      -115.730528675749

CARTESIAN COORDINATES (ANGSTROEM)
---------------------------------
  C     -9.948473   -1.812941    5.438624
  O     -9.656483   -1.904055    6.869065
  H     -8.898172   -2.436655    7.042660
  H    -10.795136   -1.169837    5.194730
  H     -9.039130   -1.454169    4.871001
  H    -10.203844   -2.769139    4.921275
  C     -9.797061   -1.577550   10.368817
  O    -10.590985   -2.500985   10.937394
  H    -11.463096   -2.165033   10.924863
  H    -10.089109   -0.589733   10.680319
  H     -8.732386   -1.767176   10.502369
  H     -9.964905   -1.573559    9.301118

 Multiplicity           Mult            ....    1
 Number of Electrons    NEL             ....   18
 Basis Dimension        Dim             ....  172

ORBITAL ENERGIES
----------------

  NO   OCC          E(Eh)            E(eV)
   0   2.0000     -19.225545      -523.1537
   1   2.0000     -10.303287      -280.3667
   2   2.0000      -1.165047       -31.7026
   3   2.0000      -0.796940       -21.6858
   4   2.0000      -0.630424       -17.1547
   5   2.0000      -0.549385       -14.9495
   6   2.0000      -0.542239       -14.7551
   7   2.0000      -0.433497       -11.7960
   8   2.0000      -0.365200        -9.9376
   9   0.0000       0.084924         2.3109
  10   0.0000       0.117449         3.1960
  11   0.0000       0.151701         4.1280
  12   0.0000       0.180714         4.9175
  13   0.0000       0.187025         5.0892

MULLIKEN ATOMIC CHARGES
-----------------------
   0 C :   -0.000070
   1 O :    0.001122
   2 H :   -0.000251
   3 H :   -0.000015
   4 H :   -0.000019
   5 H :   -0.000001
   6 C :   -0.148623
   7 O :   -0.455561
   8 H :    0.314663
   9 H :    0.091571
  10 H :    0.114945
  11 H :    0.082240
Sum of atomic charges:    0.0000000

LOEWDIN ATOMIC CHARGES
----------------------
   0 C :   -0.000611
   1 O :   -0.008415
   2 H :   -0.002263
   3 H :   -0.000032
   4 H :   -0.000017
   5 H :   -0.000016
   6 C :   -0.431906
   7 O :   -0.011031
   8 H :    0.161356
   9 H :    0.089311
  10 H :    0.109028
  11 H :    0.094595

  Mayer bond orders larger than 0.1
B(  6-C ,  7-O ) :   0.9964 B(  6-C ,  9-H ) :   0.9907 B(  6-C , 10-H ) :   0.9694
B(  6-C , 11-H ) :   0.9825 B(  7-O ,  8-H ) :   0.9015

Dispersion correction           -0.000192892
FINAL SINGLE POINT ENERGY      -115.729783213208

DIPOLE MOMENT
-------------
                                X             Y             Z
Electronic contribution:     -0.89259      -1.35174       0.90811
Nuclear contribution   :      0.61190       1.89945      -1.11576
                        -----------------------------------------
Total Dipole Moment    :     -0.28070       0.54771      -0.20766
                        -----------------------------------------
Magnitude (a.u.)       :      0.64954
Magnitude (Debye)      :      1.65100

Rotational constants in cm-1:     4.435965     0.913628     0.869383
Rotational constants in MHz : 132986.895003 27389.878709 26063.438574

                             ****ORCA TERMINATED NORMALLY****
TOTAL RUN TIME: 0 days 0 hours 1 minutes 4 seconds 242 msec
