                         Program Version 4.1.2  - RELEASE  -
|  1> #Run DFT-D3 single point of the dimer
|  2> ! wB97X-D3 def2-TZVP TIGHTSCF CHELPG PMODEL PAL8
|  3>
|  4> %base "11-144_DFT_AB"
|  5>
|  6> %scf
|  7> MaxIter 1000
|  8> end
|  9>
| 10> * xyz 0 1
| 11>   C                      3.963104             -1.894302            -6.831238
| 12>   O                      4.841024             -1.628224            -5.724773
| 13>   H                      5.315042             -2.462843            -5.462940
| 14>   H                      3.675892             -0.939994            -7.360445
| 15>   H                      4.399781             -2.566132            -7.606293
| 16>   H                      3.045565             -2.437522            -6.505905
| 17>   C                      5.800142             1.167734             -5.349560
| 18>   O                      5.149286             0.644954             -4.224245
| 19>   H                      4.889621             -0.272798            -4.504109
| 20>   H                      5.999497             2.296061             -5.132088
| 21>   H                      6.720259             0.635451             -5.634512
| 22>   H                      5.156302             1.094712             -6.343768
| 23> *
| 24>
| 25> #Run DFT-D3 single point of the molecule with dimer basis set
| 26> $new_job
| 27> %base "11-144_DFT_A"
| 28> ! wB97X-D3 def2-TZVP TIGHTSCF CHELPG PMODEL
| 29>
| 30> %scf
| 31> MaxIter 1000
| 32> end
| 33>
| 34> * xyz 0 1
| 35>   C                      3.963104             -1.894302            -6.831238
| 36>   O                      4.841024             -1.628224            -5.724773
| 37>   H                      5.315042             -2.462843            -5.462940
| 38>   H                      3.675892             -0.939994            -7.360445
| 39>   H                      4.399781             -2.566132            -7.606293
| 40>   H                      3.045565             -2.437522            -6.505905
| 41>   C                    : 5.800142             1.167734             -5.349560
| 42>   O                    : 5.149286             0.644954             -4.224245
| 43>   H                    : 4.889621             -0.272798            -4.504109
| 44>   H                    : 5.999497             2.296061             -5.132088
| 45>   H                    : 6.720259             0.635451             -5.634512
| 46>   H                    : 5.156302             1.094712             -6.343768
| 47> *
| 48>
| 49> #Run DFT-D3 single point of the particle with dimer basis set
| 50> $new_job
| 51> %base "11-144_DFT_B"
| 52> ! wB97X-D3 def2-TZVP TIGHTSCF CHELPG PMODEL
| 53>
| 54> %scf
| 55> MaxIter 1000
| 56> end
| 57>
| 58> * xyz 0 1
| 59>   C                    : 3.963104             -1.894302            -6.831238
| 60>   O                    : 4.841024             -1.628224            -5.724773
| 61>   H                    : 5.315042             -2.462843            -5.462940
| 62>   H                    : 3.675892             -0.939994            -7.360445
| 63>   H                    : 4.399781             -2.566132            -7.606293
| 64>   H                    : 3.045565             -2.437522            -6.505905
| 65>   C                      5.800142             1.167734             -5.349560
| 66>   O                      5.149286             0.644954             -4.224245
| 67>   H                      4.889621             -0.272798            -4.504109
| 68>   H                      5.999497             2.296061             -5.132088
| 69>   H                      6.720259             0.635451             -5.634512
| 70>   H                      5.156302             1.094712             -6.343768
| 71> *
| 72>
| 73>                          ****END OF INPUT****
 Total Charge           Charge          ....    0
 Multiplicity           Mult            ....    1
 Number of Electrons    NEL             ....   36
Dispersion correction           -0.002170527
FINAL SINGLE POINT ENERGY      -231.469347294757
Dispersion correction           -0.000276692
FINAL SINGLE POINT ENERGY      -115.733365898709

CARTESIAN COORDINATES (ANGSTROEM)
---------------------------------
  C      3.963104   -1.894302   -6.831238
  O      4.841024   -1.628224   -5.724773
  H      5.315042   -2.462843   -5.462940
  H      3.675892   -0.939994   -7.360445
  H      4.399781   -2.566132   -7.606293
  H      3.045565   -2.437522   -6.505905
  C      5.800142    1.167734   -5.349560
  O      5.149286    0.644954   -4.224245
  H      4.889621   -0.272798   -4.504109
  H      5.999497    2.296061   -5.132088
  H      6.720259    0.635451   -5.634512
  H      5.156302    1.094712   -6.343768

 Multiplicity           Mult            ....    1
 Number of Electrons    NEL             ....   18
 Basis Dimension        Dim             ....  172

ORBITAL ENERGIES
----------------

  NO   OCC          E(Eh)            E(eV)
   0   2.0000     -19.240745      -523.5673
   1   2.0000     -10.330308      -281.1020
   2   2.0000      -1.140854       -31.0442
   3   2.0000      -0.778698       -21.1895
   4   2.0000      -0.613426       -16.6922
   5   2.0000      -0.531327       -14.4582
   6   2.0000      -0.520564       -14.1653
   7   2.0000      -0.437248       -11.8981
   8   2.0000      -0.371844       -10.1184
   9   0.0000       0.065129         1.7722
  10   0.0000       0.132438         3.6038
  11   0.0000       0.139186         3.7874
  12   0.0000       0.160585         4.3697
  13   0.0000       0.187321         5.0973

MULLIKEN ATOMIC CHARGES
-----------------------
   0 C :   -0.000969
   1 O :   -0.006690
   2 H :   -0.000637
   3 H :   -0.000406
   4 H :    0.000016
   5 H :    0.000115
   6 C :   -0.184077
   7 O :   -0.455688
   8 H :    0.322859
   9 H :    0.125581
  10 H :    0.108116
  11 H :    0.091781
Sum of atomic charges:   -0.0000000

LOEWDIN ATOMIC CHARGES
----------------------
   0 C :   -0.005008
   1 O :   -0.029354
   2 H :   -0.001882
   3 H :   -0.001840
   4 H :   -0.000069
   5 H :   -0.000065
   6 C :   -0.419374
   7 O :   -0.065960
   8 H :    0.205090
   9 H :    0.121729
  10 H :    0.092231
  11 H :    0.104502

  Mayer bond orders larger than 0.1
B(  6-C ,  7-O ) :   1.0003 B(  6-C ,  9-H ) :   0.9710 B(  6-C , 10-H ) :   0.9670
B(  6-C , 11-H ) :   0.9726 B(  7-O ,  8-H ) :   0.8970

Dispersion correction           -0.000257090
FINAL SINGLE POINT ENERGY      -115.727695146289

DIPOLE MOMENT
-------------
                                X             Y             Z
Electronic contribution:     -0.76833      -0.60312       1.72689
Nuclear contribution   :      0.85828       0.22366      -2.27750
                        -----------------------------------------
Total Dipole Moment    :      0.08995      -0.37946      -0.55061
                        -----------------------------------------
Magnitude (a.u.)       :      0.67472
Magnitude (Debye)      :      1.71501

Rotational constants in cm-1:     3.893184     0.838988     0.793861
Rotational constants in MHz : 116714.721921 25152.230540 23799.356561

                             ****ORCA TERMINATED NORMALLY****
TOTAL RUN TIME: 0 days 0 hours 1 minutes 12 seconds 765 msec
