                         Program Version 4.1.2  - RELEASE  -
|  1> #Run DFT-D3 single point of the dimer
|  2> ! wB97X-D3 def2-TZVP TIGHTSCF CHELPG PMODEL PAL8
|  3>
|  4> %base "15-86_DFT_AB"
|  5>
|  6> %scf
|  7> MaxIter 1000
|  8> end
|  9>
| 10> * xyz 0 1
| 11>   C                      -3.485730            -1.394707            -9.730617
| 12>   O                      -2.209008            -1.200329            -10.263792
| 13>   H                      -1.614533            -1.875366            -9.926658
| 14>   H                      -4.240539            -0.844386            -10.235814
| 15>   H                      -3.804167            -2.419185            -9.794614
| 16>   H                      -3.535408            -1.094552            -8.687688
| 17>   C                      -6.504516            -1.500290            -8.431497
| 18>   O                      -6.338600            -0.425602            -9.371969
| 19>   H                      -7.225021            -0.135700            -9.610803
| 20>   H                      -7.421601            -1.334292            -7.898962
| 21>   H                      -6.661592            -2.478114            -8.949301
| 22>   H                      -5.704916            -1.581016            -7.692120
| 23> *
| 24>
| 25> #Run DFT-D3 single point of the molecule with dimer basis set
| 26> $new_job
| 27> %base "15-86_DFT_A"
| 28> ! wB97X-D3 def2-TZVP TIGHTSCF CHELPG PMODEL
| 29>
| 30> %scf
| 31> MaxIter 1000
| 32> end
| 33>
| 34> * xyz 0 1
| 35>   C                      -3.485730            -1.394707            -9.730617
| 36>   O                      -2.209008            -1.200329            -10.263792
| 37>   H                      -1.614533            -1.875366            -9.926658
| 38>   H                      -4.240539            -0.844386            -10.235814
| 39>   H                      -3.804167            -2.419185            -9.794614
| 40>   H                      -3.535408            -1.094552            -8.687688
| 41>   C                    : -6.504516            -1.500290            -8.431497
| 42>   O                    : -6.338600            -0.425602            -9.371969
| 43>   H                    : -7.225021            -0.135700            -9.610803
| 44>   H                    : -7.421601            -1.334292            -7.898962
| 45>   H                    : -6.661592            -2.478114            -8.949301
| 46>   H                    : -5.704916            -1.581016            -7.692120
| 47> *
| 48>
| 49> #Run DFT-D3 single point of the particle with dimer basis set
| 50> $new_job
| 51> %base "15-86_DFT_B"
| 52> ! wB97X-D3 def2-TZVP TIGHTSCF CHELPG PMODEL
| 53>
| 54> %scf
| 55> MaxIter 1000
| 56> end
| 57>
| 58> * xyz 0 1
| 59>   C                    : -3.485730            -1.394707            -9.730617
| 60>   O                    : -2.209008            -1.200329            -10.263792
| 61>   H                    : -1.614533            -1.875366            -9.926658
| 62>   H                    : -4.240539            -0.844386            -10.235814
| 63>   H                    : -3.804167            -2.419185            -9.794614
| 64>   H                    : -3.535408            -1.094552            -8.687688
| 65>   C                      -6.504516            -1.500290            -8.431497
| 66>   O                      -6.338600            -0.425602            -9.371969
| 67>   H                      -7.225021            -0.135700            -9.610803
| 68>   H                      -7.421601            -1.334292            -7.898962
| 69>   H                      -6.661592            -2.478114            -8.949301
| 70>   H                      -5.704916            -1.581016            -7.692120
| 71> *
| 72>
| 73>                          ****END OF INPUT****
 Total Charge           Charge          ....    0
 Multiplicity           Mult            ....    1
 Number of Electrons    NEL             ....   36
Dispersion correction           -0.002070842
FINAL SINGLE POINT ENERGY      -231.469580207237
Dispersion correction           -0.000232783
FINAL SINGLE POINT ENERGY      -115.735258597876

CARTESIAN COORDINATES (ANGSTROEM)
---------------------------------
  C     -3.485730   -1.394707   -9.730617
  O     -2.209008   -1.200329  -10.263792
  H     -1.614533   -1.875366   -9.926658
  H     -4.240539   -0.844386  -10.235814
  H     -3.804167   -2.419185   -9.794614
  H     -3.535408   -1.094552   -8.687688
  C     -6.504516   -1.500290   -8.431497
  O     -6.338600   -0.425602   -9.371969
  H     -7.225021   -0.135700   -9.610803
  H     -7.421601   -1.334292   -7.898962
  H     -6.661592   -2.478114   -8.949301
  H     -5.704916   -1.581016   -7.692120

 Multiplicity           Mult            ....    1
 Number of Electrons    NEL             ....   18
 Basis Dimension        Dim             ....  172

ORBITAL ENERGIES
----------------

  NO   OCC          E(Eh)            E(eV)
   0   2.0000     -19.231235      -523.3085
   1   2.0000     -10.315980      -280.7121
   2   2.0000      -1.130175       -30.7536
   3   2.0000      -0.795866       -21.6566
   4   2.0000      -0.608280       -16.5521
   5   2.0000      -0.536960       -14.6114
   6   2.0000      -0.528500       -14.3812
   7   2.0000      -0.436246       -11.8709
   8   2.0000      -0.373979       -10.1765
   9   0.0000       0.095059         2.5867
  10   0.0000       0.122161         3.3242
  11   0.0000       0.150359         4.0915
  12   0.0000       0.185864         5.0576
  13   0.0000       0.190672         5.1885

MULLIKEN ATOMIC CHARGES
-----------------------
   0 C :    0.012608
   1 O :    0.000113
   2 H :    0.000032
   3 H :   -0.012644
   4 H :   -0.001015
   5 H :   -0.001827
   6 C :   -0.187520
   7 O :   -0.467396
   8 H :    0.313504
   9 H :    0.114822
  10 H :    0.104936
  11 H :    0.124386
Sum of atomic charges:   -0.0000000

LOEWDIN ATOMIC CHARGES
----------------------
   0 C :   -0.016421
   1 O :   -0.000051
   2 H :   -0.000014
   3 H :   -0.016464
   4 H :   -0.001224
   5 H :   -0.003076
   6 C :   -0.362895
   7 O :   -0.073607
   8 H :    0.169549
   9 H :    0.093736
  10 H :    0.101697
  11 H :    0.108771

  Mayer bond orders larger than 0.1
B(  6-C ,  7-O ) :   1.0008 B(  6-C ,  9-H ) :   0.9815 B(  6-C , 10-H ) :   0.9742
B(  6-C , 11-H ) :   0.9725 B(  7-O ,  8-H ) :   0.8998

Dispersion correction           -0.000245853
FINAL SINGLE POINT ENERGY      -115.733582626694

DIPOLE MOMENT
-------------
                                X             Y             Z
Electronic contribution:      0.46717       1.38055      -1.14521
Nuclear contribution   :     -1.12527      -1.61886       1.40675
                        -----------------------------------------
Total Dipole Moment    :     -0.65810      -0.23831       0.26154
                        -----------------------------------------
Magnitude (a.u.)       :      0.74719
Magnitude (Debye)      :      1.89920

Rotational constants in cm-1:     4.302178     0.808263     0.780206
Rotational constants in MHz : 128976.057267 24231.114697 23389.984342

                             ****ORCA TERMINATED NORMALLY****
TOTAL RUN TIME: 0 days 0 hours 1 minutes 6 seconds 793 msec
