                         Program Version 4.1.2  - RELEASE  -
|  1> #Run DFT-D3 single point of the dimer
|  2> ! wB97X-D3 def2-TZVP TIGHTSCF CHELPG PMODEL PAL8
|  3>
|  4> %base "12-25_DFT_AB"
|  5>
|  6> %scf
|  7> MaxIter 1000
|  8> end
|  9>
| 10> * xyz 0 1
| 11>   C                      5.213601             -6.424230            1.445439
| 12>   O                      5.630218             -5.208946            2.075847
| 13>   H                      5.563530             -4.576802            1.354313
| 14>   H                      5.329758             -7.331916            2.140380
| 15>   H                      4.144093             -6.377885            1.182249
| 16>   H                      5.866397             -6.714165            0.524728
| 17>   C                      7.950656             -4.743017            4.764325
| 18>   O                      9.242797             -5.280096            4.795065
| 19>   H                      9.468355             -5.769611            4.003566
| 20>   H                      7.277791             -5.513226            5.145170
| 21>   H                      7.881833             -3.903074            5.393011
| 22>   H                      7.745673             -4.536831            3.739062
| 23> *
| 24>
| 25> #Run DFT-D3 single point of the molecule with dimer basis set
| 26> $new_job
| 27> %base "12-25_DFT_A"
| 28> ! wB97X-D3 def2-TZVP TIGHTSCF CHELPG PMODEL
| 29>
| 30> %scf
| 31> MaxIter 1000
| 32> end
| 33>
| 34> * xyz 0 1
| 35>   C                      5.213601             -6.424230            1.445439
| 36>   O                      5.630218             -5.208946            2.075847
| 37>   H                      5.563530             -4.576802            1.354313
| 38>   H                      5.329758             -7.331916            2.140380
| 39>   H                      4.144093             -6.377885            1.182249
| 40>   H                      5.866397             -6.714165            0.524728
| 41>   C                    : 7.950656             -4.743017            4.764325
| 42>   O                    : 9.242797             -5.280096            4.795065
| 43>   H                    : 9.468355             -5.769611            4.003566
| 44>   H                    : 7.277791             -5.513226            5.145170
| 45>   H                    : 7.881833             -3.903074            5.393011
| 46>   H                    : 7.745673             -4.536831            3.739062
| 47> *
| 48>
| 49> #Run DFT-D3 single point of the particle with dimer basis set
| 50> $new_job
| 51> %base "12-25_DFT_B"
| 52> ! wB97X-D3 def2-TZVP TIGHTSCF CHELPG PMODEL
| 53>
| 54> %scf
| 55> MaxIter 1000
| 56> end
| 57>
| 58> * xyz 0 1
| 59>   C                    : 5.213601             -6.424230            1.445439
| 60>   O                    : 5.630218             -5.208946            2.075847
| 61>   H                    : 5.563530             -4.576802            1.354313
| 62>   H                    : 5.329758             -7.331916            2.140380
| 63>   H                    : 4.144093             -6.377885            1.182249
| 64>   H                    : 5.866397             -6.714165            0.524728
| 65>   C                      7.950656             -4.743017            4.764325
| 66>   O                      9.242797             -5.280096            4.795065
| 67>   H                      9.468355             -5.769611            4.003566
| 68>   H                      7.277791             -5.513226            5.145170
| 69>   H                      7.881833             -3.903074            5.393011
| 70>   H                      7.745673             -4.536831            3.739062
| 71> *
| 72>
| 73>                          ****END OF INPUT****
 Total Charge           Charge          ....    0
 Multiplicity           Mult            ....    1
 Number of Electrons    NEL             ....   36
Dispersion correction           -0.001309736
FINAL SINGLE POINT ENERGY      -231.464029376270
Dispersion correction           -0.000260361
FINAL SINGLE POINT ENERGY      -115.730763934342

CARTESIAN COORDINATES (ANGSTROEM)
---------------------------------
  C      5.213601   -6.424230    1.445439
  O      5.630218   -5.208946    2.075847
  H      5.563530   -4.576802    1.354313
  H      5.329758   -7.331916    2.140380
  H      4.144093   -6.377885    1.182249
  H      5.866397   -6.714165    0.524728
  C      7.950656   -4.743017    4.764325
  O      9.242797   -5.280096    4.795065
  H      9.468355   -5.769611    4.003566
  H      7.277791   -5.513226    5.145170
  H      7.881833   -3.903074    5.393011
  H      7.745673   -4.536831    3.739062

 Multiplicity           Mult            ....    1
 Number of Electrons    NEL             ....   18
 Basis Dimension        Dim             ....  172

ORBITAL ENERGIES
----------------

  NO   OCC          E(Eh)            E(eV)
   0   2.0000     -19.220603      -523.0192
   1   2.0000     -10.303790      -280.3804
   2   2.0000      -1.134989       -30.8846
   3   2.0000      -0.800318       -21.7778
   4   2.0000      -0.611188       -16.6313
   5   2.0000      -0.545280       -14.8378
   6   2.0000      -0.542339       -14.7578
   7   2.0000      -0.425046       -11.5661
   8   2.0000      -0.366655        -9.9772
   9   0.0000       0.077967         2.1216
  10   0.0000       0.117798         3.2055
  11   0.0000       0.151246         4.1156
  12   0.0000       0.161174         4.3858
  13   0.0000       0.193818         5.2741

MULLIKEN ATOMIC CHARGES
-----------------------
   0 C :   -0.000180
   1 O :   -0.000537
   2 H :   -0.000244
   3 H :   -0.000062
   4 H :    0.000015
   5 H :   -0.000026
   6 C :   -0.132913
   7 O :   -0.493918
   8 H :    0.316818
   9 H :    0.096706
  10 H :    0.116509
  11 H :    0.097832
Sum of atomic charges:    0.0000000

LOEWDIN ATOMIC CHARGES
----------------------
   0 C :   -0.000421
   1 O :   -0.002946
   2 H :   -0.000451
   3 H :   -0.000053
   4 H :   -0.000006
   5 H :   -0.000011
   6 C :   -0.374496
   7 O :   -0.074587
   8 H :    0.165098
   9 H :    0.097244
  10 H :    0.097444
  11 H :    0.093184

  Mayer bond orders larger than 0.1
B(  6-C ,  7-O ) :   0.9951 B(  6-C ,  9-H ) :   0.9806 B(  6-C , 10-H ) :   0.9706
B(  6-C , 11-H ) :   0.9944 B(  7-O ,  8-H ) :   0.8969

Dispersion correction           -0.000215447
FINAL SINGLE POINT ENERGY      -115.731665080452

DIPOLE MOMENT
-------------
                                X             Y             Z
Electronic contribution:      1.56797      -0.47119       0.15696
Nuclear contribution   :     -1.94357       0.38709      -0.69383
                        -----------------------------------------
Total Dipole Moment    :     -0.37559      -0.08410      -0.53687
                        -----------------------------------------
Magnitude (a.u.)       :      0.66058
Magnitude (Debye)      :      1.67907

Rotational constants in cm-1:     4.405669     0.857085     0.826304
Rotational constants in MHz : 132078.619590 25694.775262 24771.984217

                             ****ORCA TERMINATED NORMALLY****
TOTAL RUN TIME: 0 days 0 hours 1 minutes 10 seconds 174 msec
