                         Program Version 4.1.2  - RELEASE  -
|  1> #Run DFT-D3 single point of the dimer
|  2> ! wB97X-D3 def2-TZVP TIGHTSCF  CHELPG PAL8
|  3>
|  4> %base "113_charges"
|  5>
|  6> %scf
|  7> MaxIter 1000
|  8> end
|  9> %output
| 10>   Print[ P_Mayer ] 1
| 11>   Print[ P_NatPop ] 1
| 12>   Print[ P_Hirshfeld ] 1
| 13>   Print[ P_Mulliken ] 1
| 14>   Print [ P_Loewdin ] 1
| 15> end
| 16>
| 17> * xyz 0 1
| 18>   C                      -9.539967            -5.959951            -7.228330
| 19>   O                      -9.494442            -4.904067            -6.278131
| 20>   H                      -8.722890            -4.409395            -6.479660
| 21>   H                      -9.621733            -5.591693            -8.237245
| 22>   H                      -8.654288            -6.653716            -7.136660
| 23>   H                      -10.399769           -6.511958            -7.066308
| 24> *
| 25>
| 26>                          ****END OF INPUT****

CARTESIAN COORDINATES (ANGSTROEM)
---------------------------------
  C     -9.539967   -5.959951   -7.228330
  O     -9.494442   -4.904067   -6.278131
  H     -8.722890   -4.409395   -6.479660
  H     -9.621733   -5.591693   -8.237245
  H     -8.654288   -6.653716   -7.136660
  H    -10.399769   -6.511958   -7.066308

 Total Charge           Charge          ....    0
 Multiplicity           Mult            ....    1
 Number of Electrons    NEL             ....   18
 Basis Dimension        Dim             ....   86

ORBITAL ENERGIES
----------------

  NO   OCC          E(Eh)            E(eV)
   0   2.0000     -19.228285      -523.2282
   1   2.0000     -10.308430      -280.5066
   2   2.0000      -1.139201       -30.9992
   3   2.0000      -0.801581       -21.8121
   4   2.0000      -0.609980       -16.5984
   5   2.0000      -0.541830       -14.7439
   6   2.0000      -0.531252       -14.4561
   7   2.0000      -0.438949       -11.9444
   8   2.0000      -0.375378       -10.2146
   9   0.0000       0.118819         3.2332
  10   0.0000       0.157117         4.2754
  11   0.0000       0.202679         5.5152
  12   0.0000       0.210150         5.7185
  13   0.0000       0.225247         6.1293

MULLIKEN ATOMIC CHARGES
-----------------------
   0 C :   -0.168664
   1 O :   -0.466907
   2 H :    0.309682
   3 H :    0.103391
   4 H :    0.097808
   5 H :    0.124689
Sum of atomic charges:    0.0000000

LOEWDIN ATOMIC CHARGES
----------------------
   0 C :   -0.373462
   1 O :   -0.069856
   2 H :    0.154300
   3 H :    0.092312
   4 H :    0.101625
   5 H :    0.095080

  Mayer bond orders larger than 0.1
B(  0-C ,  1-O ) :   1.0016 B(  0-C ,  3-H ) :   0.9761 B(  0-C ,  4-H ) :   0.9764
B(  0-C ,  5-H ) :   0.9764 B(  1-O ,  2-H ) :   0.9072

Dispersion correction           -0.000233465
FINAL SINGLE POINT ENERGY      -115.733846291705

DIPOLE MOMENT
-------------
                                X             Y             Z
Electronic contribution:     -0.10222       1.31268       1.26764
Nuclear contribution   :      0.53895      -1.41901      -1.77880
                        -----------------------------------------
Total Dipole Moment    :      0.43673      -0.10633      -0.51116
                        -----------------------------------------
Magnitude (a.u.)       :      0.68067
Magnitude (Debye)      :      1.73014

Rotational constants in cm-1:     4.398364     0.825995     0.804552
Rotational constants in MHz : 131859.639641 24762.700875 24119.876322

                             ****ORCA TERMINATED NORMALLY****
TOTAL RUN TIME: 0 days 0 hours 0 minutes 42 seconds 683 msec
