                         Program Version 4.1.2  - RELEASE  -
|  1> #Run DFT-D3 single point of the dimer
|  2> ! wB97X-D3 def2-TZVP TIGHTSCF CHELPG PMODEL PAL8
|  3>
|  4> %base "17-52_DFT_AB"
|  5>
|  6> %scf
|  7> MaxIter 1000
|  8> end
|  9>
| 10> * xyz 0 1
| 11>   C                      -8.719428            -0.806688            2.256153
| 12>   O                      -10.041191           -1.234781            2.494380
| 13>   H                      -10.144787           -1.521010            3.361301
| 14>   H                      -8.220031            -0.383521            3.209562
| 15>   H                      -8.128405            -1.587988            1.732554
| 16>   H                      -8.726105            0.059084             1.528395
| 17>   C                      -10.389428           -5.668474            0.886552
| 18>   O                      -9.427594            -5.129751            -0.008684
| 19>   H                      -8.619964            -5.665520            0.023088
| 20>   H                      -11.126881           -4.947132            1.176537
| 21>   H                      -10.780607           -6.594603            0.450729
| 22>   H                      -9.779254            -5.947587            1.825181
| 23> *
| 24>
| 25> #Run DFT-D3 single point of the molecule with dimer basis set
| 26> $new_job
| 27> %base "17-52_DFT_A"
| 28> ! wB97X-D3 def2-TZVP TIGHTSCF CHELPG PMODEL
| 29>
| 30> %scf
| 31> MaxIter 1000
| 32> end
| 33>
| 34> * xyz 0 1
| 35>   C                      -8.719428            -0.806688            2.256153
| 36>   O                      -10.041191           -1.234781            2.494380
| 37>   H                      -10.144787           -1.521010            3.361301
| 38>   H                      -8.220031            -0.383521            3.209562
| 39>   H                      -8.128405            -1.587988            1.732554
| 40>   H                      -8.726105            0.059084             1.528395
| 41>   C                    : -10.389428           -5.668474            0.886552
| 42>   O                    : -9.427594            -5.129751            -0.008684
| 43>   H                    : -8.619964            -5.665520            0.023088
| 44>   H                    : -11.126881           -4.947132            1.176537
| 45>   H                    : -10.780607           -6.594603            0.450729
| 46>   H                    : -9.779254            -5.947587            1.825181
| 47> *
| 48>
| 49> #Run DFT-D3 single point of the particle with dimer basis set
| 50> $new_job
| 51> %base "17-52_DFT_B"
| 52> ! wB97X-D3 def2-TZVP TIGHTSCF CHELPG PMODEL
| 53>
| 54> %scf
| 55> MaxIter 1000
| 56> end
| 57>
| 58> * xyz 0 1
| 59>   C                    : -8.719428            -0.806688            2.256153
| 60>   O                    : -10.041191           -1.234781            2.494380
| 61>   H                    : -10.144787           -1.521010            3.361301
| 62>   H                    : -8.220031            -0.383521            3.209562
| 63>   H                    : -8.128405            -1.587988            1.732554
| 64>   H                    : -8.726105            0.059084             1.528395
| 65>   C                      -10.389428           -5.668474            0.886552
| 66>   O                      -9.427594            -5.129751            -0.008684
| 67>   H                      -8.619964            -5.665520            0.023088
| 68>   H                      -11.126881           -4.947132            1.176537
| 69>   H                      -10.780607           -6.594603            0.450729
| 70>   H                      -9.779254            -5.947587            1.825181
| 71> *
| 72>
| 73>                          ****END OF INPUT****
 Total Charge           Charge          ....    0
 Multiplicity           Mult            ....    1
 Number of Electrons    NEL             ....   36
Dispersion correction           -0.000845117
FINAL SINGLE POINT ENERGY      -231.461671248693
Dispersion correction           -0.000267392
FINAL SINGLE POINT ENERGY      -115.730591191190

CARTESIAN COORDINATES (ANGSTROEM)
---------------------------------
  C     -8.719428   -0.806688    2.256153
  O    -10.041191   -1.234781    2.494380
  H    -10.144787   -1.521010    3.361301
  H     -8.220031   -0.383521    3.209562
  H     -8.128405   -1.587988    1.732554
  H     -8.726105    0.059084    1.528395
  C    -10.389428   -5.668474    0.886552
  O     -9.427594   -5.129751   -0.008684
  H     -8.619964   -5.665520    0.023088
  H    -11.126881   -4.947132    1.176537
  H    -10.780607   -6.594603    0.450729
  H     -9.779254   -5.947587    1.825181

 Multiplicity           Mult            ....    1
 Number of Electrons    NEL             ....   18
 Basis Dimension        Dim             ....  172

ORBITAL ENERGIES
----------------

  NO   OCC          E(Eh)            E(eV)
   0   2.0000     -19.225867      -523.1625
   1   2.0000     -10.318656      -280.7849
   2   2.0000      -1.130274       -30.7563
   3   2.0000      -0.791082       -21.5264
   4   2.0000      -0.603094       -16.4110
   5   2.0000      -0.547137       -14.8884
   6   2.0000      -0.529358       -14.4046
   7   2.0000      -0.426190       -11.5972
   8   2.0000      -0.368726       -10.0335
   9   0.0000       0.089183         2.4268
  10   0.0000       0.111890         3.0447
  11   0.0000       0.150133         4.0853
  12   0.0000       0.172583         4.6962
  13   0.0000       0.191386         5.2079

MULLIKEN ATOMIC CHARGES
-----------------------
   0 C :    0.000444
   1 O :    0.000022
   2 H :   -0.000016
   3 H :   -0.000023
   4 H :   -0.001421
   5 H :   -0.000012
   6 C :   -0.159710
   7 O :   -0.484229
   8 H :    0.318065
   9 H :    0.129906
  10 H :    0.104038
  11 H :    0.092935
Sum of atomic charges:    0.0000000

LOEWDIN ATOMIC CHARGES
----------------------
   0 C :   -0.000171
   1 O :   -0.000019
   2 H :   -0.000013
   3 H :   -0.000004
   4 H :   -0.000527
   5 H :   -0.000001
   6 C :   -0.377948
   7 O :   -0.096368
   8 H :    0.173147
   9 H :    0.102031
  10 H :    0.094962
  11 H :    0.104911

  Mayer bond orders larger than 0.1
B(  6-C ,  7-O ) :   0.9886 B(  6-C ,  9-H ) :   0.9676 B(  6-C , 10-H ) :   0.9730
B(  6-C , 11-H ) :   0.9914 B(  7-O ,  8-H ) :   0.8957

Dispersion correction           -0.000226562
FINAL SINGLE POINT ENERGY      -115.731066714211

DIPOLE MOMENT
-------------
                                X             Y             Z
Electronic contribution:      0.88858       0.85220      -1.23174
Nuclear contribution   :     -0.76975      -1.39967       1.61292
                        -----------------------------------------
Total Dipole Moment    :      0.11883      -0.54747       0.38117
                        -----------------------------------------
Magnitude (a.u.)       :      0.67759
Magnitude (Debye)      :      1.72231

Rotational constants in cm-1:     4.109217     0.830824     0.802350
Rotational constants in MHz : 123191.211643 24907.474937 24053.856669

                             ****ORCA TERMINATED NORMALLY****
TOTAL RUN TIME: 0 days 0 hours 1 minutes 11 seconds 282 msec
