                         Program Version 4.1.2  - RELEASE  -
|  1> #Run DFT-D3 single point of the dimer
|  2> ! wB97X-D3 def2-TZVP TIGHTSCF CHELPG PMODEL PAL8
|  3>
|  4> %base "12-150_DFT_AB"
|  5>
|  6> %scf
|  7> MaxIter 1000
|  8> end
|  9>
| 10> * xyz 0 1
| 11>   C                      0.661193             3.421647             2.670552
| 12>   O                      2.005955             3.170968             2.578442
| 13>   H                      2.290748             2.485866             3.173461
| 14>   H                      0.335738             4.235484             1.992829
| 15>   H                      -0.008043            2.596136             2.424679
| 16>   H                      0.402929             3.729779             3.674865
| 17>   C                      3.956507             1.040913             5.712762
| 18>   O                      3.270265             1.004791             4.430066
| 19>   H                      3.128892             0.085421             4.125084
| 20>   H                      4.511918             0.105670             5.938413
| 21>   H                      4.750110             1.797890             5.820601
| 22>   H                      3.207458             1.201066             6.457133
| 23> *
| 24>
| 25> #Run DFT-D3 single point of the molecule with dimer basis set
| 26> $new_job
| 27> %base "12-150_DFT_A"
| 28> ! wB97X-D3 def2-TZVP TIGHTSCF CHELPG PMODEL
| 29>
| 30> %scf
| 31> MaxIter 1000
| 32> end
| 33>
| 34> * xyz 0 1
| 35>   C                      0.661193             3.421647             2.670552
| 36>   O                      2.005955             3.170968             2.578442
| 37>   H                      2.290748             2.485866             3.173461
| 38>   H                      0.335738             4.235484             1.992829
| 39>   H                      -0.008043            2.596136             2.424679
| 40>   H                      0.402929             3.729779             3.674865
| 41>   C                    : 3.956507             1.040913             5.712762
| 42>   O                    : 3.270265             1.004791             4.430066
| 43>   H                    : 3.128892             0.085421             4.125084
| 44>   H                    : 4.511918             0.105670             5.938413
| 45>   H                    : 4.750110             1.797890             5.820601
| 46>   H                    : 3.207458             1.201066             6.457133
| 47> *
| 48>
| 49> #Run DFT-D3 single point of the particle with dimer basis set
| 50> $new_job
| 51> %base "12-150_DFT_B"
| 52> ! wB97X-D3 def2-TZVP TIGHTSCF CHELPG PMODEL
| 53>
| 54> %scf
| 55> MaxIter 1000
| 56> end
| 57>
| 58> * xyz 0 1
| 59>   C                    : 0.661193             3.421647             2.670552
| 60>   O                    : 2.005955             3.170968             2.578442
| 61>   H                    : 2.290748             2.485866             3.173461
| 62>   H                    : 0.335738             4.235484             1.992829
| 63>   H                    : -0.008043            2.596136             2.424679
| 64>   H                    : 0.402929             3.729779             3.674865
| 65>   C                      3.956507             1.040913             5.712762
| 66>   O                      3.270265             1.004791             4.430066
| 67>   H                      3.128892             0.085421             4.125084
| 68>   H                      4.511918             0.105670             5.938413
| 69>   H                      4.750110             1.797890             5.820601
| 70>   H                      3.207458             1.201066             6.457133
| 71> *
| 72>
| 73>                          ****END OF INPUT****
 Total Charge           Charge          ....    0
 Multiplicity           Mult            ....    1
 Number of Electrons    NEL             ....   36
Dispersion correction           -0.001368945
FINAL SINGLE POINT ENERGY      -231.473221210273
Dispersion correction           -0.000239162
FINAL SINGLE POINT ENERGY      -115.734580036685

CARTESIAN COORDINATES (ANGSTROEM)
---------------------------------
  C      0.661193    3.421647    2.670552
  O      2.005955    3.170968    2.578442
  H      2.290748    2.485866    3.173461
  H      0.335738    4.235484    1.992829
  H     -0.008043    2.596136    2.424679
  H      0.402929    3.729779    3.674865
  C      3.956507    1.040913    5.712762
  O      3.270265    1.004791    4.430066
  H      3.128892    0.085421    4.125084
  H      4.511918    0.105670    5.938413
  H      4.750110    1.797890    5.820601
  H      3.207458    1.201066    6.457133

 Multiplicity           Mult            ....    1
 Number of Electrons    NEL             ....   18
 Basis Dimension        Dim             ....  172

ORBITAL ENERGIES
----------------

  NO   OCC          E(Eh)            E(eV)
   0   2.0000     -19.231346      -523.3115
   1   2.0000     -10.317500      -280.7535
   2   2.0000      -1.118552       -30.4373
   3   2.0000      -0.798340       -21.7239
   4   2.0000      -0.602409       -16.3924
   5   2.0000      -0.542270       -14.7559
   6   2.0000      -0.520301       -14.1581
   7   2.0000      -0.427704       -11.6384
   8   2.0000      -0.375762       -10.2250
   9   0.0000       0.097633         2.6567
  10   0.0000       0.119069         3.2400
  11   0.0000       0.147570         4.0156
  12   0.0000       0.188261         5.1228
  13   0.0000       0.203049         5.5253

MULLIKEN ATOMIC CHARGES
-----------------------
   0 C :   -0.000620
   1 O :   -0.000700
   2 H :   -0.007063
   3 H :   -0.000110
   4 H :   -0.000054
   5 H :   -0.000198
   6 C :   -0.166248
   7 O :   -0.487436
   8 H :    0.320657
   9 H :    0.105810
  10 H :    0.118868
  11 H :    0.117097
Sum of atomic charges:    0.0000000

LOEWDIN ATOMIC CHARGES
----------------------
   0 C :   -0.001156
   1 O :   -0.002565
   2 H :   -0.027403
   3 H :   -0.000026
   4 H :   -0.000047
   5 H :   -0.000094
   6 C :   -0.356176
   7 O :   -0.091835
   8 H :    0.177449
   9 H :    0.101852
  10 H :    0.106012
  11 H :    0.093989

  Mayer bond orders larger than 0.1
B(  6-C ,  7-O ) :   0.9944 B(  6-C ,  9-H ) :   0.9739 B(  6-C , 10-H ) :   0.9705
B(  6-C , 11-H ) :   0.9806 B(  7-O ,  8-H ) :   0.8914

Dispersion correction           -0.000276936
FINAL SINGLE POINT ENERGY      -115.730925704993

DIPOLE MOMENT
-------------
                                X             Y             Z
Electronic contribution:     -0.87253       0.13336      -1.61349
Nuclear contribution   :      1.09419      -0.73060       1.97611
                        -----------------------------------------
Total Dipole Moment    :      0.22165      -0.59725       0.36263
                        -----------------------------------------
Magnitude (a.u.)       :      0.73303
Magnitude (Debye)      :      1.86321

Rotational constants in cm-1:     4.383546     0.780698     0.757855
Rotational constants in MHz : 131415.392538 23404.737591 22719.907270

                             ****ORCA TERMINATED NORMALLY****
TOTAL RUN TIME: 0 days 0 hours 1 minutes 14 seconds 662 msec
