                         Program Version 4.1.2  - RELEASE  -
|  1> #Run DFT-D3 single point of the dimer
|  2> ! wB97X-D3 def2-TZVP TIGHTSCF CHELPG PMODEL PAL8
|  3>
|  4> %base "1-97_DFT_AB"
|  5>
|  6> %scf
|  7> MaxIter 1000
|  8> end
|  9>
| 10> * xyz 0 1
| 11>   C                      -6.076476            10.396994            8.572423
| 12>   O                      -4.913337            11.136352            8.302519
| 13>   H                      -4.968444            12.080275            8.375493
| 14>   H                      -6.294389            9.678972             7.724420
| 15>   H                      -6.081936            9.823034             9.605426
| 16>   H                      -6.905947            11.125597            8.466702
| 17>   C                      -4.351667            5.254473             6.920647
| 18>   O                      -5.704513            5.376898             6.739659
| 19>   H                      -5.942629            5.492009             5.833962
| 20>   H                      -4.171133            4.701593             7.857598
| 21>   H                      -3.847408            4.840025             6.094159
| 22>   H                      -3.916681            6.286763             6.979087
| 23> *
| 24>
| 25> #Run DFT-D3 single point of the molecule with dimer basis set
| 26> $new_job
| 27> %base "1-97_DFT_A"
| 28> ! wB97X-D3 def2-TZVP TIGHTSCF CHELPG PMODEL
| 29>
| 30> %scf
| 31> MaxIter 1000
| 32> end
| 33>
| 34> * xyz 0 1
| 35>   C                      -6.076476            10.396994            8.572423
| 36>   O                      -4.913337            11.136352            8.302519
| 37>   H                      -4.968444            12.080275            8.375493
| 38>   H                      -6.294389            9.678972             7.724420
| 39>   H                      -6.081936            9.823034             9.605426
| 40>   H                      -6.905947            11.125597            8.466702
| 41>   C                    : -4.351667            5.254473             6.920647
| 42>   O                    : -5.704513            5.376898             6.739659
| 43>   H                    : -5.942629            5.492009             5.833962
| 44>   H                    : -4.171133            4.701593             7.857598
| 45>   H                    : -3.847408            4.840025             6.094159
| 46>   H                    : -3.916681            6.286763             6.979087
| 47> *
| 48>
| 49> #Run DFT-D3 single point of the particle with dimer basis set
| 50> $new_job
| 51> %base "1-97_DFT_B"
| 52> ! wB97X-D3 def2-TZVP TIGHTSCF CHELPG PMODEL
| 53>
| 54> %scf
| 55> MaxIter 1000
| 56> end
| 57>
| 58> * xyz 0 1
| 59>   C                    : -6.076476            10.396994            8.572423
| 60>   O                    : -4.913337            11.136352            8.302519
| 61>   H                    : -4.968444            12.080275            8.375493
| 62>   H                    : -6.294389            9.678972             7.724420
| 63>   H                    : -6.081936            9.823034             9.605426
| 64>   H                    : -6.905947            11.125597            8.466702
| 65>   C                      -4.351667            5.254473             6.920647
| 66>   O                      -5.704513            5.376898             6.739659
| 67>   H                      -5.942629            5.492009             5.833962
| 68>   H                      -4.171133            4.701593             7.857598
| 69>   H                      -3.847408            4.840025             6.094159
| 70>   H                      -3.916681            6.286763             6.979087
| 71> *
| 72>
| 73>                          ****END OF INPUT****
 Total Charge           Charge          ....    0
 Multiplicity           Mult            ....    1
 Number of Electrons    NEL             ....   36
Dispersion correction           -0.000676775
FINAL SINGLE POINT ENERGY      -231.457043058893
Dispersion correction           -0.000271579
FINAL SINGLE POINT ENERGY      -115.724888550978

CARTESIAN COORDINATES (ANGSTROEM)
---------------------------------
  C     -6.076476   10.396994    8.572423
  O     -4.913337   11.136352    8.302519
  H     -4.968444   12.080275    8.375493
  H     -6.294389    9.678972    7.724420
  H     -6.081936    9.823034    9.605426
  H     -6.905947   11.125597    8.466702
  C     -4.351667    5.254473    6.920647
  O     -5.704513    5.376898    6.739659
  H     -5.942629    5.492009    5.833962
  H     -4.171133    4.701593    7.857598
  H     -3.847408    4.840025    6.094159
  H     -3.916681    6.286763    6.979087

 Multiplicity           Mult            ....    1
 Number of Electrons    NEL             ....   18
 Basis Dimension        Dim             ....  172

ORBITAL ENERGIES
----------------

  NO   OCC          E(Eh)            E(eV)
   0   2.0000     -19.224842      -523.1346
   1   2.0000     -10.308256      -280.5019
   2   2.0000      -1.149820       -31.2882
   3   2.0000      -0.797371       -21.6976
   4   2.0000      -0.627375       -17.0717
   5   2.0000      -0.540716       -14.7136
   6   2.0000      -0.532336       -14.4856
   7   2.0000      -0.432432       -11.7671
   8   2.0000      -0.365356        -9.9418
   9   0.0000       0.089253         2.4287
  10   0.0000       0.116293         3.1645
  11   0.0000       0.158427         4.3110
  12   0.0000       0.166345         4.5265
  13   0.0000       0.189548         5.1579

MULLIKEN ATOMIC CHARGES
-----------------------
   0 C :    0.000173
   1 O :    0.000004
   2 H :    0.000000
   3 H :   -0.000560
   4 H :   -0.000005
   5 H :   -0.000022
   6 C :   -0.148156
   7 O :   -0.471665
   8 H :    0.313409
   9 H :    0.116394
  10 H :    0.103871
  11 H :    0.086558
Sum of atomic charges:    0.0000000

LOEWDIN ATOMIC CHARGES
----------------------
   0 C :   -0.000049
   1 O :   -0.000005
   2 H :   -0.000000
   3 H :   -0.000174
   4 H :   -0.000002
   5 H :   -0.000000
   6 C :   -0.412307
   7 O :   -0.040210
   8 H :    0.159684
   9 H :    0.110877
  10 H :    0.084751
  11 H :    0.097435

  Mayer bond orders larger than 0.1
B(  6-C ,  7-O ) :   1.0009 B(  6-C ,  9-H ) :   0.9726 B(  6-C , 10-H ) :   0.9795
B(  6-C , 11-H ) :   0.9804 B(  7-O ,  8-H ) :   0.8991

Dispersion correction           -0.000223966
FINAL SINGLE POINT ENERGY      -115.731782730393

DIPOLE MOMENT
-------------
                                X             Y             Z
Electronic contribution:     -1.78367      -0.01567      -0.14389
Nuclear contribution   :      2.13871       0.01945      -0.41447
                        -----------------------------------------
Total Dipole Moment    :      0.35503       0.00378      -0.55837
                        -----------------------------------------
Magnitude (a.u.)       :      0.66169
Magnitude (Debye)      :      1.68189

Rotational constants in cm-1:     4.349418     0.877377     0.840660
Rotational constants in MHz : 130392.256445 26303.103492 25202.342969

                             ****ORCA TERMINATED NORMALLY****
TOTAL RUN TIME: 0 days 0 hours 4 minutes 34 seconds 407 msec
