                         Program Version 4.1.2  - RELEASE  -
|  1> #Run DFT-D3 single point of the dimer
|  2> ! wB97X-D3 def2-TZVP TIGHTSCF CHELPG PMODEL PAL8
|  3>
|  4> %base "12-5_DFT_AB"
|  5>
|  6> %scf
|  7> MaxIter 1000
|  8> end
|  9>
| 10> * xyz 0 1
| 11>   C                      -3.318311            -0.619609            -4.975786
| 12>   O                      -2.848868            -0.188945            -3.711665
| 13>   H                      -2.709265            0.711760             -3.772373
| 14>   H                      -2.662649            -0.195860            -5.703031
| 15>   H                      -3.228268            -1.702189            -5.124246
| 16>   H                      -4.392851            -0.308560            -5.145854
| 17>   C                      -4.925144            1.513725             -0.004367
| 18>   O                      -5.509224            0.695109             0.966256
| 19>   H                      -5.411362            -0.220257            0.710541
| 20>   H                      -3.873854            1.549043             -0.014532
| 21>   H                      -5.184107            1.254739             -1.003264
| 22>   H                      -5.302555            2.564695             0.074116
| 23> *
| 24>
| 25> #Run DFT-D3 single point of the molecule with dimer basis set
| 26> $new_job
| 27> %base "12-5_DFT_A"
| 28> ! wB97X-D3 def2-TZVP TIGHTSCF CHELPG PMODEL
| 29>
| 30> %scf
| 31> MaxIter 1000
| 32> end
| 33>
| 34> * xyz 0 1
| 35>   C                      -3.318311            -0.619609            -4.975786
| 36>   O                      -2.848868            -0.188945            -3.711665
| 37>   H                      -2.709265            0.711760             -3.772373
| 38>   H                      -2.662649            -0.195860            -5.703031
| 39>   H                      -3.228268            -1.702189            -5.124246
| 40>   H                      -4.392851            -0.308560            -5.145854
| 41>   C                    : -4.925144            1.513725             -0.004367
| 42>   O                    : -5.509224            0.695109             0.966256
| 43>   H                    : -5.411362            -0.220257            0.710541
| 44>   H                    : -3.873854            1.549043             -0.014532
| 45>   H                    : -5.184107            1.254739             -1.003264
| 46>   H                    : -5.302555            2.564695             0.074116
| 47> *
| 48>
| 49> #Run DFT-D3 single point of the particle with dimer basis set
| 50> $new_job
| 51> %base "12-5_DFT_B"
| 52> ! wB97X-D3 def2-TZVP TIGHTSCF CHELPG PMODEL
| 53>
| 54> %scf
| 55> MaxIter 1000
| 56> end
| 57>
| 58> * xyz 0 1
| 59>   C                    : -3.318311            -0.619609            -4.975786
| 60>   O                    : -2.848868            -0.188945            -3.711665
| 61>   H                    : -2.709265            0.711760             -3.772373
| 62>   H                    : -2.662649            -0.195860            -5.703031
| 63>   H                    : -3.228268            -1.702189            -5.124246
| 64>   H                    : -4.392851            -0.308560            -5.145854
| 65>   C                      -4.925144            1.513725             -0.004367
| 66>   O                      -5.509224            0.695109             0.966256
| 67>   H                      -5.411362            -0.220257            0.710541
| 68>   H                      -3.873854            1.549043             -0.014532
| 69>   H                      -5.184107            1.254739             -1.003264
| 70>   H                      -5.302555            2.564695             0.074116
| 71> *
| 72>
| 73>                          ****END OF INPUT****
 Total Charge           Charge          ....    0
 Multiplicity           Mult            ....    1
 Number of Electrons    NEL             ....   36
Dispersion correction           -0.000790625
FINAL SINGLE POINT ENERGY      -231.465376396676
Dispersion correction           -0.000229502
FINAL SINGLE POINT ENERGY      -115.731697528758

CARTESIAN COORDINATES (ANGSTROEM)
---------------------------------
  C     -3.318311   -0.619609   -4.975786
  O     -2.848868   -0.188945   -3.711665
  H     -2.709265    0.711760   -3.772373
  H     -2.662649   -0.195860   -5.703031
  H     -3.228268   -1.702189   -5.124246
  H     -4.392851   -0.308560   -5.145854
  C     -4.925144    1.513725   -0.004367
  O     -5.509224    0.695109    0.966256
  H     -5.411362   -0.220257    0.710541
  H     -3.873854    1.549043   -0.014532
  H     -5.184107    1.254739   -1.003264
  H     -5.302555    2.564695    0.074116

 Multiplicity           Mult            ....    1
 Number of Electrons    NEL             ....   18
 Basis Dimension        Dim             ....  172

ORBITAL ENERGIES
----------------

  NO   OCC          E(Eh)            E(eV)
   0   2.0000     -19.231530      -523.3165
   1   2.0000     -10.306317      -280.4491
   2   2.0000      -1.141814       -31.0703
   3   2.0000      -0.801870       -21.8200
   4   2.0000      -0.621398       -16.9091
   5   2.0000      -0.544821       -14.8253
   6   2.0000      -0.525715       -14.3054
   7   2.0000      -0.430665       -11.7190
   8   2.0000      -0.376163       -10.2359
   9   0.0000       0.080176         2.1817
  10   0.0000       0.117195         3.1890
  11   0.0000       0.142233         3.8704
  12   0.0000       0.174035         4.7357
  13   0.0000       0.186955         5.0873

MULLIKEN ATOMIC CHARGES
-----------------------
   0 C :    0.000013
   1 O :    0.000011
   2 H :   -0.000160
   3 H :   -0.000002
   4 H :    0.000000
   5 H :   -0.000027
   6 C :   -0.158782
   7 O :   -0.472933
   8 H :    0.316277
   9 H :    0.104724
  10 H :    0.097785
  11 H :    0.113093
Sum of atomic charges:   -0.0000000

LOEWDIN ATOMIC CHARGES
----------------------
   0 C :   -0.000041
   1 O :   -0.000086
   2 H :   -0.000144
   3 H :   -0.000000
   4 H :   -0.000000
   5 H :   -0.000014
   6 C :   -0.396433
   7 O :   -0.059317
   8 H :    0.168069
   9 H :    0.084562
  10 H :    0.087990
  11 H :    0.115415

  Mayer bond orders larger than 0.1
B(  6-C ,  7-O ) :   1.0062 B(  6-C ,  9-H ) :   0.9725 B(  6-C , 10-H ) :   0.9828
B(  6-C , 11-H ) :   0.9747 B(  7-O ,  8-H ) :   0.8977

Dispersion correction           -0.000243484
FINAL SINGLE POINT ENERGY      -115.732808245891

DIPOLE MOMENT
-------------
                                X             Y             Z
Electronic contribution:     -0.74596      -1.06029       1.42043
Nuclear contribution   :      1.03167       0.78468      -1.98832
                        -----------------------------------------
Total Dipole Moment    :      0.28571      -0.27562      -0.56789
                        -----------------------------------------
Magnitude (a.u.)       :      0.69288
Magnitude (Debye)      :      1.76117

Rotational constants in cm-1:     4.574089     0.838871     0.806215
Rotational constants in MHz : 137127.751634 25148.719756 24169.716400

                             ****ORCA TERMINATED NORMALLY****
TOTAL RUN TIME: 0 days 0 hours 1 minutes 12 seconds 186 msec
