                         Program Version 4.1.2  - RELEASE  -
|  1> #Run DFT-D3 single point of the dimer
|  2> ! wB97X-D3 def2-TZVP TIGHTSCF CHELPG PMODEL PAL8
|  3>
|  4> %base "11-146_DFT_AB"
|  5>
|  6> %scf
|  7> MaxIter 1000
|  8> end
|  9>
| 10> * xyz 0 1
| 11>   C                      3.035354             -3.809666            -2.544556
| 12>   O                      1.766696             -4.109608            -3.176374
| 13>   H                      1.607045             -3.612000            -3.997328
| 14>   H                      3.106638             -4.114295            -1.499011
| 15>   H                      3.808947             -4.262466            -3.092819
| 16>   H                      3.163127             -2.658329            -2.601287
| 17>   C                      -2.004281            -1.792086            -0.094840
| 18>   O                      -1.622860            -1.390812            -1.373817
| 19>   H                      -1.735763            -2.098400            -2.056411
| 20>   H                      -2.906951            -2.470413            0.013711
| 21>   H                      -1.205589            -2.376961            0.445969
| 22>   H                      -2.270964            -1.025600            0.552701
| 23> *
| 24>
| 25> #Run DFT-D3 single point of the molecule with dimer basis set
| 26> $new_job
| 27> %base "11-146_DFT_A"
| 28> ! wB97X-D3 def2-TZVP TIGHTSCF CHELPG PMODEL
| 29>
| 30> %scf
| 31> MaxIter 1000
| 32> end
| 33>
| 34> * xyz 0 1
| 35>   C                      3.035354             -3.809666            -2.544556
| 36>   O                      1.766696             -4.109608            -3.176374
| 37>   H                      1.607045             -3.612000            -3.997328
| 38>   H                      3.106638             -4.114295            -1.499011
| 39>   H                      3.808947             -4.262466            -3.092819
| 40>   H                      3.163127             -2.658329            -2.601287
| 41>   C                    : -2.004281            -1.792086            -0.094840
| 42>   O                    : -1.622860            -1.390812            -1.373817
| 43>   H                    : -1.735763            -2.098400            -2.056411
| 44>   H                    : -2.906951            -2.470413            0.013711
| 45>   H                    : -1.205589            -2.376961            0.445969
| 46>   H                    : -2.270964            -1.025600            0.552701
| 47> *
| 48>
| 49> #Run DFT-D3 single point of the particle with dimer basis set
| 50> $new_job
| 51> %base "11-146_DFT_B"
| 52> ! wB97X-D3 def2-TZVP TIGHTSCF CHELPG PMODEL
| 53>
| 54> %scf
| 55> MaxIter 1000
| 56> end
| 57>
| 58> * xyz 0 1
| 59>   C                    : 3.035354             -3.809666            -2.544556
| 60>   O                    : 1.766696             -4.109608            -3.176374
| 61>   H                    : 1.607045             -3.612000            -3.997328
| 62>   H                    : 3.106638             -4.114295            -1.499011
| 63>   H                    : 3.808947             -4.262466            -3.092819
| 64>   H                    : 3.163127             -2.658329            -2.601287
| 65>   C                      -2.004281            -1.792086            -0.094840
| 66>   O                      -1.622860            -1.390812            -1.373817
| 67>   H                      -1.735763            -2.098400            -2.056411
| 68>   H                      -2.906951            -2.470413            0.013711
| 69>   H                      -1.205589            -2.376961            0.445969
| 70>   H                      -2.270964            -1.025600            0.552701
| 71> *
| 72>
| 73>                          ****END OF INPUT****
 Total Charge           Charge          ....    0
 Multiplicity           Mult            ....    1
 Number of Electrons    NEL             ....   36
Dispersion correction           -0.000764047
FINAL SINGLE POINT ENERGY      -231.457612137588
Dispersion correction           -0.000258950
FINAL SINGLE POINT ENERGY      -115.728828616856

CARTESIAN COORDINATES (ANGSTROEM)
---------------------------------
  C      3.035354   -3.809666   -2.544556
  O      1.766696   -4.109608   -3.176374
  H      1.607045   -3.612000   -3.997328
  H      3.106638   -4.114295   -1.499011
  H      3.808947   -4.262466   -3.092819
  H      3.163127   -2.658329   -2.601287
  C     -2.004281   -1.792086   -0.094840
  O     -1.622860   -1.390812   -1.373817
  H     -1.735763   -2.098400   -2.056411
  H     -2.906951   -2.470413    0.013711
  H     -1.205589   -2.376961    0.445969
  H     -2.270964   -1.025600    0.552701

 Multiplicity           Mult            ....    1
 Number of Electrons    NEL             ....   18
 Basis Dimension        Dim             ....  172

ORBITAL ENERGIES
----------------

  NO   OCC          E(Eh)            E(eV)
   0   2.0000     -19.237404      -523.4764
   1   2.0000     -10.313274      -280.6384
   2   2.0000      -1.136450       -30.9244
   3   2.0000      -0.798442       -21.7267
   4   2.0000      -0.617169       -16.7940
   5   2.0000      -0.540784       -14.7155
   6   2.0000      -0.525099       -14.2887
   7   2.0000      -0.426580       -11.6078
   8   2.0000      -0.372229       -10.1289
   9   0.0000       0.084220         2.2917
  10   0.0000       0.113746         3.0952
  11   0.0000       0.144905         3.9431
  12   0.0000       0.167966         4.5706
  13   0.0000       0.191889         5.2216

MULLIKEN ATOMIC CHARGES
-----------------------
   0 C :   -0.000129
   1 O :    0.000004
   2 H :   -0.000054
   3 H :    0.000005
   4 H :   -0.000006
   5 H :    0.000001
   6 C :   -0.169333
   7 O :   -0.475263
   8 H :    0.326288
   9 H :    0.095617
  10 H :    0.095165
  11 H :    0.127705
Sum of atomic charges:    0.0000000

LOEWDIN ATOMIC CHARGES
----------------------
   0 C :   -0.000049
   1 O :   -0.000038
   2 H :   -0.000052
   3 H :   -0.000003
   4 H :   -0.000003
   5 H :   -0.000009
   6 C :   -0.412957
   7 O :   -0.069676
   8 H :    0.190387
   9 H :    0.100465
  10 H :    0.098411
  11 H :    0.093525

  Mayer bond orders larger than 0.1
B(  6-C ,  7-O ) :   1.0137 B(  6-C ,  9-H ) :   0.9736 B(  6-C , 10-H ) :   0.9768
B(  6-C , 11-H ) :   0.9710 B(  7-O ,  8-H ) :   0.8855

Dispersion correction           -0.000282854
FINAL SINGLE POINT ENERGY      -115.727985932176

DIPOLE MOMENT
-------------
                                X             Y             Z
Electronic contribution:      0.55138       0.82430      -1.79029
Nuclear contribution   :     -0.79560      -1.40713       1.84225
                        -----------------------------------------
Total Dipole Moment    :     -0.24422      -0.58283       0.05196
                        -----------------------------------------
Magnitude (a.u.)       :      0.63406
Magnitude (Debye)      :      1.61165

Rotational constants in cm-1:     4.519591     0.818830     0.796296
Rotational constants in MHz : 135493.929299 24547.905020 23872.347355

                             ****ORCA TERMINATED NORMALLY****
TOTAL RUN TIME: 0 days 0 hours 1 minutes 6 seconds 92 msec
