                         Program Version 4.1.2  - RELEASE  -
|  1> #Run DFT-D3 single point of the dimer
|  2> ! wB97X-D3 def2-TZVP TIGHTSCF CHELPG PMODEL PAL8
|  3>
|  4> %base "13-6_DFT_AB"
|  5>
|  6> %scf
|  7> MaxIter 1000
|  8> end
|  9>
| 10> * xyz 0 1
| 11>   C                      -2.257604            -6.993449            -0.918277
| 12>   O                      -2.080523            -8.395982            -0.827367
| 13>   H                      -2.059170            -8.743386            0.111713
| 14>   H                      -1.423130            -6.407729            -0.539471
| 15>   H                      -2.370768            -6.724110            -2.003700
| 16>   H                      -3.147931            -6.621619            -0.383193
| 17>   C                      -2.752617            -3.076059            -0.589000
| 18>   O                      -3.304085            -3.768648            -1.717035
| 19>   H                      -2.612261            -3.905826            -2.386180
| 20>   H                      -3.493172            -2.722931            0.156007
| 21>   H                      -2.242479            -3.835967            0.046678
| 22>   H                      -2.114953            -2.201284            -0.755336
| 23> *
| 24>
| 25> #Run DFT-D3 single point of the molecule with dimer basis set
| 26> $new_job
| 27> %base "13-6_DFT_A"
| 28> ! wB97X-D3 def2-TZVP TIGHTSCF CHELPG PMODEL
| 29>
| 30> %scf
| 31> MaxIter 1000
| 32> end
| 33>
| 34> * xyz 0 1
| 35>   C                      -2.257604            -6.993449            -0.918277
| 36>   O                      -2.080523            -8.395982            -0.827367
| 37>   H                      -2.059170            -8.743386            0.111713
| 38>   H                      -1.423130            -6.407729            -0.539471
| 39>   H                      -2.370768            -6.724110            -2.003700
| 40>   H                      -3.147931            -6.621619            -0.383193
| 41>   C                    : -2.752617            -3.076059            -0.589000
| 42>   O                    : -3.304085            -3.768648            -1.717035
| 43>   H                    : -2.612261            -3.905826            -2.386180
| 44>   H                    : -3.493172            -2.722931            0.156007
| 45>   H                    : -2.242479            -3.835967            0.046678
| 46>   H                    : -2.114953            -2.201284            -0.755336
| 47> *
| 48>
| 49> #Run DFT-D3 single point of the particle with dimer basis set
| 50> $new_job
| 51> %base "13-6_DFT_B"
| 52> ! wB97X-D3 def2-TZVP TIGHTSCF CHELPG PMODEL
| 53>
| 54> %scf
| 55> MaxIter 1000
| 56> end
| 57>
| 58> * xyz 0 1
| 59>   C                    : -2.257604            -6.993449            -0.918277
| 60>   O                    : -2.080523            -8.395982            -0.827367
| 61>   H                    : -2.059170            -8.743386            0.111713
| 62>   H                    : -1.423130            -6.407729            -0.539471
| 63>   H                    : -2.370768            -6.724110            -2.003700
| 64>   H                    : -3.147931            -6.621619            -0.383193
| 65>   C                      -2.752617            -3.076059            -0.589000
| 66>   O                      -3.304085            -3.768648            -1.717035
| 67>   H                      -2.612261            -3.905826            -2.386180
| 68>   H                      -3.493172            -2.722931            0.156007
| 69>   H                      -2.242479            -3.835967            0.046678
| 70>   H                      -2.114953            -2.201284            -0.755336
| 71> *
| 72>
| 73>                          ****END OF INPUT****
 Total Charge           Charge          ....    0
 Multiplicity           Mult            ....    1
 Number of Electrons    NEL             ....   36
Dispersion correction           -0.001914003
FINAL SINGLE POINT ENERGY      -231.465163719633
Dispersion correction           -0.000274567
FINAL SINGLE POINT ENERGY      -115.733766033273

CARTESIAN COORDINATES (ANGSTROEM)
---------------------------------
  C     -2.257604   -6.993449   -0.918277
  O     -2.080523   -8.395982   -0.827367
  H     -2.059170   -8.743386    0.111713
  H     -1.423130   -6.407729   -0.539471
  H     -2.370768   -6.724110   -2.003700
  H     -3.147931   -6.621619   -0.383193
  C     -2.752617   -3.076059   -0.589000
  O     -3.304085   -3.768648   -1.717035
  H     -2.612261   -3.905826   -2.386180
  H     -3.493172   -2.722931    0.156007
  H     -2.242479   -3.835967    0.046678
  H     -2.114953   -2.201284   -0.755336

 Multiplicity           Mult            ....    1
 Number of Electrons    NEL             ....   18
 Basis Dimension        Dim             ....  172

ORBITAL ENERGIES
----------------

  NO   OCC          E(Eh)            E(eV)
   0   2.0000     -19.235763      -523.4317
   1   2.0000     -10.318965      -280.7933
   2   2.0000      -1.129055       -30.7231
   3   2.0000      -0.796724       -21.6800
   4   2.0000      -0.607523       -16.5316
   5   2.0000      -0.538069       -14.6416
   6   2.0000      -0.524337       -14.2679
   7   2.0000      -0.430392       -11.7116
   8   2.0000      -0.374135       -10.1807
   9   0.0000       0.084305         2.2940
  10   0.0000       0.125394         3.4121
  11   0.0000       0.143719         3.9108
  12   0.0000       0.177033         4.8173
  13   0.0000       0.193969         5.2782

MULLIKEN ATOMIC CHARGES
-----------------------
   0 C :    0.000645
   1 O :   -0.000234
   2 H :   -0.000015
   3 H :   -0.000960
   4 H :   -0.004546
   5 H :   -0.001099
   6 C :   -0.188884
   7 O :   -0.474033
   8 H :    0.320758
   9 H :    0.122948
  10 H :    0.106722
  11 H :    0.118696
Sum of atomic charges:    0.0000000

LOEWDIN ATOMIC CHARGES
----------------------
   0 C :   -0.008168
   1 O :   -0.000049
   2 H :   -0.000019
   3 H :   -0.001270
   4 H :   -0.002774
   5 H :   -0.001940
   6 C :   -0.386782
   7 O :   -0.085636
   8 H :    0.176843
   9 H :    0.112172
  10 H :    0.100922
  11 H :    0.096702

  Mayer bond orders larger than 0.1
B(  6-C ,  7-O ) :   1.0054 B(  6-C ,  9-H ) :   0.9715 B(  6-C , 10-H ) :   0.9808
B(  6-C , 11-H ) :   0.9690 B(  7-O ,  8-H ) :   0.8929

Dispersion correction           -0.000281074
FINAL SINGLE POINT ENERGY      -115.729974118271

DIPOLE MOMENT
-------------
                                X             Y             Z
Electronic contribution:     -0.83345      -0.78102      -1.58287
Nuclear contribution   :      1.47809       0.99610       1.62761
                        -----------------------------------------
Total Dipole Moment    :      0.64464       0.21508       0.04474
                        -----------------------------------------
Magnitude (a.u.)       :      0.68105
Magnitude (Debye)      :      1.73109

Rotational constants in cm-1:     4.405686     0.792481     0.769306
Rotational constants in MHz : 132079.132696 23757.987078 23063.220302

                             ****ORCA TERMINATED NORMALLY****
TOTAL RUN TIME: 0 days 0 hours 1 minutes 10 seconds 415 msec
