                         Program Version 4.1.2  - RELEASE  -
|  1> #Run DFT-D3 single point of the dimer
|  2> ! wB97X-D3 def2-TZVP TIGHTSCF CHELPG PMODEL PAL8
|  3>
|  4> %base "9-48_DFT_AB"
|  5>
|  6> %scf
|  7> MaxIter 1000
|  8> end
|  9>
| 10> * xyz 0 1
| 11>   C                      -2.321207            -5.271564            -0.117392
| 12>   O                      -1.699948            -4.236620            -0.812064
| 13>   H                      -1.067507            -3.804357            -0.260356
| 14>   H                      -3.067091            -5.682834            -0.736439
| 15>   H                      -1.643910            -6.077927            0.202816
| 16>   H                      -2.851049            -4.806668            0.717258
| 17>   C                      -0.382723            -3.622372            4.039118
| 18>   O                      -0.641191            -3.237219            5.349221
| 19>   H                      0.064387             -2.676951            5.718612
| 20>   H                      -1.053173            -4.408750            3.598997
| 21>   H                      -0.480557            -2.756405            3.381245
| 22>   H                      0.636109             -4.001770            3.918250
| 23> *
| 24>
| 25> #Run DFT-D3 single point of the molecule with dimer basis set
| 26> $new_job
| 27> %base "9-48_DFT_A"
| 28> ! wB97X-D3 def2-TZVP TIGHTSCF CHELPG PMODEL
| 29>
| 30> %scf
| 31> MaxIter 1000
| 32> end
| 33>
| 34> * xyz 0 1
| 35>   C                      -2.321207            -5.271564            -0.117392
| 36>   O                      -1.699948            -4.236620            -0.812064
| 37>   H                      -1.067507            -3.804357            -0.260356
| 38>   H                      -3.067091            -5.682834            -0.736439
| 39>   H                      -1.643910            -6.077927            0.202816
| 40>   H                      -2.851049            -4.806668            0.717258
| 41>   C                    : -0.382723            -3.622372            4.039118
| 42>   O                    : -0.641191            -3.237219            5.349221
| 43>   H                    : 0.064387             -2.676951            5.718612
| 44>   H                    : -1.053173            -4.408750            3.598997
| 45>   H                    : -0.480557            -2.756405            3.381245
| 46>   H                    : 0.636109             -4.001770            3.918250
| 47> *
| 48>
| 49> #Run DFT-D3 single point of the particle with dimer basis set
| 50> $new_job
| 51> %base "9-48_DFT_B"
| 52> ! wB97X-D3 def2-TZVP TIGHTSCF CHELPG PMODEL
| 53>
| 54> %scf
| 55> MaxIter 1000
| 56> end
| 57>
| 58> * xyz 0 1
| 59>   C                    : -2.321207            -5.271564            -0.117392
| 60>   O                    : -1.699948            -4.236620            -0.812064
| 61>   H                    : -1.067507            -3.804357            -0.260356
| 62>   H                    : -3.067091            -5.682834            -0.736439
| 63>   H                    : -1.643910            -6.077927            0.202816
| 64>   H                    : -2.851049            -4.806668            0.717258
| 65>   C                      -0.382723            -3.622372            4.039118
| 66>   O                      -0.641191            -3.237219            5.349221
| 67>   H                      0.064387             -2.676951            5.718612
| 68>   H                      -1.053173            -4.408750            3.598997
| 69>   H                      -0.480557            -2.756405            3.381245
| 70>   H                      0.636109             -4.001770            3.918250
| 71> *
| 72>
| 73>                          ****END OF INPUT****
 Total Charge           Charge          ....    0
 Multiplicity           Mult            ....    1
 Number of Electrons    NEL             ....   36
Dispersion correction           -0.000925732
FINAL SINGLE POINT ENERGY      -231.467392316881
Dispersion correction           -0.000224301
FINAL SINGLE POINT ENERGY      -115.734487568673

CARTESIAN COORDINATES (ANGSTROEM)
---------------------------------
  C     -2.321207   -5.271564   -0.117392
  O     -1.699948   -4.236620   -0.812064
  H     -1.067507   -3.804357   -0.260356
  H     -3.067091   -5.682834   -0.736439
  H     -1.643910   -6.077927    0.202816
  H     -2.851049   -4.806668    0.717258
  C     -0.382723   -3.622372    4.039118
  O     -0.641191   -3.237219    5.349221
  H      0.064387   -2.676951    5.718612
  H     -1.053173   -4.408750    3.598997
  H     -0.480557   -2.756405    3.381245
  H      0.636109   -4.001770    3.918250

 Multiplicity           Mult            ....    1
 Number of Electrons    NEL             ....   18
 Basis Dimension        Dim             ....  172

ORBITAL ENERGIES
----------------

  NO   OCC          E(Eh)            E(eV)
   0   2.0000     -19.229937      -523.2732
   1   2.0000     -10.313841      -280.6539
   2   2.0000      -1.138552       -30.9816
   3   2.0000      -0.793533       -21.5931
   4   2.0000      -0.615168       -16.7396
   5   2.0000      -0.541941       -14.7470
   6   2.0000      -0.531868       -14.4729
   7   2.0000      -0.422845       -11.5062
   8   2.0000      -0.369993       -10.0680
   9   0.0000       0.081367         2.2141
  10   0.0000       0.114598         3.1184
  11   0.0000       0.146853         3.9961
  12   0.0000       0.162060         4.4099
  13   0.0000       0.194625         5.2960

MULLIKEN ATOMIC CHARGES
-----------------------
   0 C :    0.000184
   1 O :    0.000006
   2 H :   -0.000069
   3 H :   -0.000002
   4 H :   -0.000068
   5 H :   -0.000267
   6 C :   -0.157291
   7 O :   -0.480639
   8 H :    0.322620
   9 H :    0.120097
  10 H :    0.097523
  11 H :    0.097907
Sum of atomic charges:    0.0000000

LOEWDIN ATOMIC CHARGES
----------------------
   0 C :   -0.000293
   1 O :   -0.000009
   2 H :   -0.000123
   3 H :   -0.000002
   4 H :   -0.000050
   5 H :   -0.000231
   6 C :   -0.409688
   7 O :   -0.068921
   8 H :    0.180307
   9 H :    0.114372
  10 H :    0.092048
  11 H :    0.092588

  Mayer bond orders larger than 0.1
B(  6-C ,  7-O ) :   1.0002 B(  6-C ,  9-H ) :   0.9670 B(  6-C , 10-H ) :   0.9817
B(  6-C , 11-H ) :   0.9796 B(  7-O ,  8-H ) :   0.8882

Dispersion correction           -0.000244372
FINAL SINGLE POINT ENERGY      -115.732617623037

DIPOLE MOMENT
-------------
                                X             Y             Z
Electronic contribution:     -0.49085       0.39596       1.79152
Nuclear contribution   :      1.05424      -0.18966      -2.06758
                        -----------------------------------------
Total Dipole Moment    :      0.56339       0.20630      -0.27606
                        -----------------------------------------
Magnitude (a.u.)       :      0.66044
Magnitude (Debye)      :      1.67870

Rotational constants in cm-1:     4.387667     0.838842     0.809144
Rotational constants in MHz : 131538.942034 25147.857460 24257.533840

                             ****ORCA TERMINATED NORMALLY****
TOTAL RUN TIME: 0 days 0 hours 0 minutes 44 seconds 368 msec
