                         Program Version 4.1.2  - RELEASE  -
|  1> #Run DFT-D3 single point of the dimer
|  2> ! wB97X-D3 def2-TZVP TIGHTSCF CHELPG PMODEL PAL8
|  3>
|  4> %base "19-154_DFT_AB"
|  5>
|  6> %scf
|  7> MaxIter 1000
|  8> end
|  9>
| 10> * xyz 0 1
| 11>   C                      -2.826672            3.168697             7.311766
| 12>   O                      -2.985900            2.187477             8.339613
| 13>   H                      -2.080365            1.979500             8.637292
| 14>   H                      -2.631409            4.182728             7.755383
| 15>   H                      -1.965593            2.904438             6.677685
| 16>   H                      -3.653128            3.269334             6.564215
| 17>   C                      -4.544771            2.609349             11.318298
| 18>   O                      -4.433375            1.419953             10.516813
| 19>   H                      -4.211848            1.900054             9.696402
| 20>   H                      -3.688525            2.841665             11.984491
| 21>   H                      -4.789409            3.448053             10.666055
| 22>   H                      -5.379880            2.608398             12.042877
| 23> *
| 24>
| 25> #Run DFT-D3 single point of the molecule with dimer basis set
| 26> $new_job
| 27> %base "19-154_DFT_A"
| 28> ! wB97X-D3 def2-TZVP TIGHTSCF CHELPG PMODEL
| 29>
| 30> %scf
| 31> MaxIter 1000
| 32> end
| 33>
| 34> * xyz 0 1
| 35>   C                      -2.826672            3.168697             7.311766
| 36>   O                      -2.985900            2.187477             8.339613
| 37>   H                      -2.080365            1.979500             8.637292
| 38>   H                      -2.631409            4.182728             7.755383
| 39>   H                      -1.965593            2.904438             6.677685
| 40>   H                      -3.653128            3.269334             6.564215
| 41>   C                    : -4.544771            2.609349             11.318298
| 42>   O                    : -4.433375            1.419953             10.516813
| 43>   H                    : -4.211848            1.900054             9.696402
| 44>   H                    : -3.688525            2.841665             11.984491
| 45>   H                    : -4.789409            3.448053             10.666055
| 46>   H                    : -5.379880            2.608398             12.042877
| 47> *
| 48>
| 49> #Run DFT-D3 single point of the particle with dimer basis set
| 50> $new_job
| 51> %base "19-154_DFT_B"
| 52> ! wB97X-D3 def2-TZVP TIGHTSCF CHELPG PMODEL
| 53>
| 54> %scf
| 55> MaxIter 1000
| 56> end
| 57>
| 58> * xyz 0 1
| 59>   C                    : -2.826672            3.168697             7.311766
| 60>   O                    : -2.985900            2.187477             8.339613
| 61>   H                    : -2.080365            1.979500             8.637292
| 62>   H                    : -2.631409            4.182728             7.755383
| 63>   H                    : -1.965593            2.904438             6.677685
| 64>   H                    : -3.653128            3.269334             6.564215
| 65>   C                      -4.544771            2.609349             11.318298
| 66>   O                      -4.433375            1.419953             10.516813
| 67>   H                      -4.211848            1.900054             9.696402
| 68>   H                      -3.688525            2.841665             11.984491
| 69>   H                      -4.789409            3.448053             10.666055
| 70>   H                      -5.379880            2.608398             12.042877
| 71> *
| 72>
| 73>                          ****END OF INPUT****
 Total Charge           Charge          ....    0
 Multiplicity           Mult            ....    1
 Number of Electrons    NEL             ....   36
Dispersion correction           -0.001763438
FINAL SINGLE POINT ENERGY      -231.466663796925
Dispersion correction           -0.000254286
FINAL SINGLE POINT ENERGY      -115.732419764134

CARTESIAN COORDINATES (ANGSTROEM)
---------------------------------
  C     -2.826672    3.168697    7.311766
  O     -2.985900    2.187477    8.339613
  H     -2.080365    1.979500    8.637292
  H     -2.631409    4.182728    7.755383
  H     -1.965593    2.904438    6.677685
  H     -3.653128    3.269334    6.564215
  C     -4.544771    2.609349   11.318298
  O     -4.433375    1.419953   10.516813
  H     -4.211848    1.900054    9.696402
  H     -3.688525    2.841665   11.984491
  H     -4.789409    3.448053   10.666055
  H     -5.379880    2.608398   12.042877

 Multiplicity           Mult            ....    1
 Number of Electrons    NEL             ....   18
 Basis Dimension        Dim             ....  172

ORBITAL ENERGIES
----------------

  NO   OCC          E(Eh)            E(eV)
   0   2.0000     -19.240355      -523.5567
   1   2.0000     -10.319694      -280.8131
   2   2.0000      -1.138022       -30.9672
   3   2.0000      -0.791665       -21.5423
   4   2.0000      -0.606309       -16.4985
   5   2.0000      -0.539404       -14.6779
   6   2.0000      -0.526119       -14.3164
   7   2.0000      -0.443638       -12.0720
   8   2.0000      -0.378330       -10.2949
   9   0.0000       0.067490         1.8365
  10   0.0000       0.129473         3.5231
  11   0.0000       0.145649         3.9633
  12   0.0000       0.161834         4.4037
  13   0.0000       0.187629         5.1056

MULLIKEN ATOMIC CHARGES
-----------------------
   0 C :   -0.001260
   1 O :   -0.006494
   2 H :   -0.001907
   3 H :    0.000003
   4 H :    0.000022
   5 H :    0.000067
   6 C :   -0.195380
   7 O :   -0.440564
   8 H :    0.316749
   9 H :    0.110064
  10 H :    0.105380
  11 H :    0.113319
Sum of atomic charges:    0.0000000

LOEWDIN ATOMIC CHARGES
----------------------
   0 C :   -0.002477
   1 O :   -0.027679
   2 H :   -0.003452
   3 H :   -0.000098
   4 H :   -0.000063
   5 H :   -0.000067
   6 C :   -0.387595
   7 O :   -0.078786
   8 H :    0.197153
   9 H :    0.100708
  10 H :    0.097943
  11 H :    0.104412

  Mayer bond orders larger than 0.1
B(  6-C ,  7-O ) :   1.0133 B(  6-C ,  9-H ) :   0.9667 B(  6-C , 10-H ) :   0.9898
B(  6-C , 11-H ) :   0.9755 B(  7-O ,  8-H ) :   0.9026

Dispersion correction           -0.000250031
FINAL SINGLE POINT ENERGY      -115.726860046236

DIPOLE MOMENT
-------------
                                X             Y             Z
Electronic contribution:      0.17938      -1.76560      -0.94511
Nuclear contribution   :     -0.11822       2.51557       0.77181
                        -----------------------------------------
Total Dipole Moment    :      0.06116       0.74996      -0.17330
                        -----------------------------------------
Magnitude (a.u.)       :      0.77215
Magnitude (Debye)      :      1.96266

Rotational constants in cm-1:     4.265325     0.810919     0.778545
Rotational constants in MHz : 127871.221298 24310.733030 23340.204232

                             ****ORCA TERMINATED NORMALLY****
TOTAL RUN TIME: 0 days 0 hours 1 minutes 45 seconds 202 msec
