                         Program Version 4.1.2  - RELEASE  -
|  1> #Run DFT-D3 single point of the dimer
|  2> ! wB97X-D3 def2-TZVP TIGHTSCF CHELPG PMODEL PAL8
|  3>
|  4> %base "13-105_DFT_AB"
|  5>
|  6> %scf
|  7> MaxIter 1000
|  8> end
|  9>
| 10> * xyz 0 1
| 11>   C                      -6.030512            6.655904             1.816928
| 12>   O                      -5.728468            6.776601             3.218112
| 13>   H                      -4.798940            6.874311             3.255842
| 14>   H                      -7.104650            6.813739             1.601745
| 15>   H                      -5.444522            7.352368             1.185617
| 16>   H                      -5.877691            5.637061             1.551672
| 17>   C                      -2.561850            8.333009             5.793317
| 18>   O                      -3.098374            7.684261             4.668960
| 19>   H                      -2.260752            7.229011             4.369283
| 20>   H                      -1.504505            8.534680             5.701477
| 21>   H                      -3.050513            9.317847             5.958538
| 22>   H                      -2.651462            7.682936             6.685952
| 23> *
| 24>
| 25> #Run DFT-D3 single point of the molecule with dimer basis set
| 26> $new_job
| 27> %base "13-105_DFT_A"
| 28> ! wB97X-D3 def2-TZVP TIGHTSCF CHELPG PMODEL
| 29>
| 30> %scf
| 31> MaxIter 1000
| 32> end
| 33>
| 34> * xyz 0 1
| 35>   C                      -6.030512            6.655904             1.816928
| 36>   O                      -5.728468            6.776601             3.218112
| 37>   H                      -4.798940            6.874311             3.255842
| 38>   H                      -7.104650            6.813739             1.601745
| 39>   H                      -5.444522            7.352368             1.185617
| 40>   H                      -5.877691            5.637061             1.551672
| 41>   C                    : -2.561850            8.333009             5.793317
| 42>   O                    : -3.098374            7.684261             4.668960
| 43>   H                    : -2.260752            7.229011             4.369283
| 44>   H                    : -1.504505            8.534680             5.701477
| 45>   H                    : -3.050513            9.317847             5.958538
| 46>   H                    : -2.651462            7.682936             6.685952
| 47> *
| 48>
| 49> #Run DFT-D3 single point of the particle with dimer basis set
| 50> $new_job
| 51> %base "13-105_DFT_B"
| 52> ! wB97X-D3 def2-TZVP TIGHTSCF CHELPG PMODEL
| 53>
| 54> %scf
| 55> MaxIter 1000
| 56> end
| 57>
| 58> * xyz 0 1
| 59>   C                    : -6.030512            6.655904             1.816928
| 60>   O                    : -5.728468            6.776601             3.218112
| 61>   H                    : -4.798940            6.874311             3.255842
| 62>   H                    : -7.104650            6.813739             1.601745
| 63>   H                    : -5.444522            7.352368             1.185617
| 64>   H                    : -5.877691            5.637061             1.551672
| 65>   C                      -2.561850            8.333009             5.793317
| 66>   O                      -3.098374            7.684261             4.668960
| 67>   H                      -2.260752            7.229011             4.369283
| 68>   H                      -1.504505            8.534680             5.701477
| 69>   H                      -3.050513            9.317847             5.958538
| 70>   H                      -2.651462            7.682936             6.685952
| 71> *
| 72>
| 73>                          ****END OF INPUT****
 Total Charge           Charge          ....    0
 Multiplicity           Mult            ....    1
 Number of Electrons    NEL             ....   36
Dispersion correction           -0.001176918
FINAL SINGLE POINT ENERGY      -231.466300487743
Dispersion correction           -0.000238998
FINAL SINGLE POINT ENERGY      -115.733107523748

CARTESIAN COORDINATES (ANGSTROEM)
---------------------------------
  C     -6.030512    6.655904    1.816928
  O     -5.728468    6.776601    3.218112
  H     -4.798940    6.874311    3.255842
  H     -7.104650    6.813739    1.601745
  H     -5.444522    7.352368    1.185617
  H     -5.877691    5.637061    1.551672
  C     -2.561850    8.333009    5.793317
  O     -3.098374    7.684261    4.668960
  H     -2.260752    7.229011    4.369283
  H     -1.504505    8.534680    5.701477
  H     -3.050513    9.317847    5.958538
  H     -2.651462    7.682936    6.685952

 Multiplicity           Mult            ....    1
 Number of Electrons    NEL             ....   18
 Basis Dimension        Dim             ....  172

ORBITAL ENERGIES
----------------

  NO   OCC          E(Eh)            E(eV)
   0   2.0000     -19.237723      -523.4850
   1   2.0000     -10.314201      -280.6637
   2   2.0000      -1.140560       -31.0362
   3   2.0000      -0.786380       -21.3985
   4   2.0000      -0.611951       -16.6520
   5   2.0000      -0.543750       -14.7962
   6   2.0000      -0.521922       -14.2022
   7   2.0000      -0.442501       -12.0411
   8   2.0000      -0.373120       -10.1531
   9   0.0000       0.096828         2.6348
  10   0.0000       0.111811         3.0425
  11   0.0000       0.154718         4.2101
  12   0.0000       0.187964         5.1148
  13   0.0000       0.204502         5.5648

MULLIKEN ATOMIC CHARGES
-----------------------
   0 C :    0.000948
   1 O :    0.000002
   2 H :   -0.009578
   3 H :    0.000003
   4 H :   -0.000237
   5 H :   -0.000042
   6 C :   -0.181371
   7 O :   -0.443952
   8 H :    0.318196
   9 H :    0.102727
  10 H :    0.114174
  11 H :    0.099130
Sum of atomic charges:    0.0000000

LOEWDIN ATOMIC CHARGES
----------------------
   0 C :   -0.000266
   1 O :   -0.002810
   2 H :   -0.017099
   3 H :   -0.000002
   4 H :   -0.000052
   5 H :   -0.000002
   6 C :   -0.407365
   7 O :   -0.069968
   8 H :    0.201077
   9 H :    0.091271
  10 H :    0.108205
  11 H :    0.097012

  Mayer bond orders larger than 0.1
B(  6-C ,  7-O ) :   1.0037 B(  6-C ,  9-H ) :   0.9802 B(  6-C , 10-H ) :   0.9751
B(  6-C , 11-H ) :   0.9739 B(  7-O ,  8-H ) :   0.8953

Dispersion correction           -0.000220814
FINAL SINGLE POINT ENERGY      -115.730171615295

DIPOLE MOMENT
-------------
                                X             Y             Z
Electronic contribution:     -0.90497      -0.76399      -1.49901
Nuclear contribution   :      1.64082       0.74560       1.72305
                        -----------------------------------------
Total Dipole Moment    :      0.73586      -0.01839       0.22404
                        -----------------------------------------
Magnitude (a.u.)       :      0.76943
Magnitude (Debye)      :      1.95573

Rotational constants in cm-1:     4.121404     0.849084     0.814251
Rotational constants in MHz : 123556.587754 25454.907777 24410.628921

                             ****ORCA TERMINATED NORMALLY****
TOTAL RUN TIME: 0 days 0 hours 1 minutes 12 seconds 210 msec
