                         Program Version 4.1.2  - RELEASE  -
|  1> #Run DFT-D3 single point of the dimer
|  2> ! wB97X-D3 def2-TZVP TIGHTSCF CHELPG PMODEL PAL8
|  3>
|  4> %base "17-151_DFT_AB"
|  5>
|  6> %scf
|  7> MaxIter 1000
|  8> end
|  9>
| 10> * xyz 0 1
| 11>   C                      10.203951            1.252872             -11.061372
| 12>   O                      9.891632             1.233883             -9.680468
| 13>   H                      9.214858             0.514658             -9.573875
| 14>   H                      10.398544            0.211944             -11.358739
| 15>   H                      9.434172             1.617646             -11.717113
| 16>   H                      11.011528            1.917265             -11.319516
| 17>   C                      7.302571             4.012486             -8.007550
| 18>   O                      7.142943             4.331260             -9.334639
| 19>   H                      7.873511             3.952714             -9.854235
| 20>   H                      6.618049             4.719513             -7.414799
| 21>   H                      6.986579             2.965346             -7.801783
| 22>   H                      8.339281             4.107312             -7.628392
| 23> *
| 24>
| 25> #Run DFT-D3 single point of the molecule with dimer basis set
| 26> $new_job
| 27> %base "17-151_DFT_A"
| 28> ! wB97X-D3 def2-TZVP TIGHTSCF CHELPG PMODEL
| 29>
| 30> %scf
| 31> MaxIter 1000
| 32> end
| 33>
| 34> * xyz 0 1
| 35>   C                      10.203951            1.252872             -11.061372
| 36>   O                      9.891632             1.233883             -9.680468
| 37>   H                      9.214858             0.514658             -9.573875
| 38>   H                      10.398544            0.211944             -11.358739
| 39>   H                      9.434172             1.617646             -11.717113
| 40>   H                      11.011528            1.917265             -11.319516
| 41>   C                    : 7.302571             4.012486             -8.007550
| 42>   O                    : 7.142943             4.331260             -9.334639
| 43>   H                    : 7.873511             3.952714             -9.854235
| 44>   H                    : 6.618049             4.719513             -7.414799
| 45>   H                    : 6.986579             2.965346             -7.801783
| 46>   H                    : 8.339281             4.107312             -7.628392
| 47> *
| 48>
| 49> #Run DFT-D3 single point of the particle with dimer basis set
| 50> $new_job
| 51> %base "17-151_DFT_B"
| 52> ! wB97X-D3 def2-TZVP TIGHTSCF CHELPG PMODEL
| 53>
| 54> %scf
| 55> MaxIter 1000
| 56> end
| 57>
| 58> * xyz 0 1
| 59>   C                    : 10.203951            1.252872             -11.061372
| 60>   O                    : 9.891632             1.233883             -9.680468
| 61>   H                    : 9.214858             0.514658             -9.573875
| 62>   H                    : 10.398544            0.211944             -11.358739
| 63>   H                    : 9.434172             1.617646             -11.717113
| 64>   H                    : 11.011528            1.917265             -11.319516
| 65>   C                      7.302571             4.012486             -8.007550
| 66>   O                      7.142943             4.331260             -9.334639
| 67>   H                      7.873511             3.952714             -9.854235
| 68>   H                      6.618049             4.719513             -7.414799
| 69>   H                      6.986579             2.965346             -7.801783
| 70>   H                      8.339281             4.107312             -7.628392
| 71> *
| 72>
| 73>                          ****END OF INPUT****
 Total Charge           Charge          ....    0
 Multiplicity           Mult            ....    1
 Number of Electrons    NEL             ....   36
Dispersion correction           -0.001233484
FINAL SINGLE POINT ENERGY      -231.467969919373
Dispersion correction           -0.000235099
FINAL SINGLE POINT ENERGY      -115.731591484521

CARTESIAN COORDINATES (ANGSTROEM)
---------------------------------
  C     10.203951    1.252872  -11.061372
  O      9.891632    1.233883   -9.680468
  H      9.214858    0.514658   -9.573875
  H     10.398544    0.211944  -11.358739
  H      9.434172    1.617646  -11.717113
  H     11.011528    1.917265  -11.319516
  C      7.302571    4.012486   -8.007550
  O      7.142943    4.331260   -9.334639
  H      7.873511    3.952714   -9.854235
  H      6.618049    4.719513   -7.414799
  H      6.986579    2.965346   -7.801783
  H      8.339281    4.107312   -7.628392

 Multiplicity           Mult            ....    1
 Number of Electrons    NEL             ....   18
 Basis Dimension        Dim             ....  172

ORBITAL ENERGIES
----------------

  NO   OCC          E(Eh)            E(eV)
   0   2.0000     -19.232160      -523.3337
   1   2.0000     -10.318633      -280.7843
   2   2.0000      -1.146948       -31.2101
   3   2.0000      -0.786822       -21.4105
   4   2.0000      -0.619044       -16.8450
   5   2.0000      -0.540815       -14.7163
   6   2.0000      -0.525823       -14.3084
   7   2.0000      -0.428767       -11.6673
   8   2.0000      -0.370056       -10.0697
   9   0.0000       0.068637         1.8677
  10   0.0000       0.122785         3.3412
  11   0.0000       0.143616         3.9080
  12   0.0000       0.167474         4.5572
  13   0.0000       0.189340         5.1522

MULLIKEN ATOMIC CHARGES
-----------------------
   0 C :   -0.000451
   1 O :    0.000050
   2 H :   -0.000036
   3 H :   -0.000011
   4 H :   -0.000148
   5 H :    0.000070
   6 C :   -0.151003
   7 O :   -0.465200
   8 H :    0.317596
   9 H :    0.111283
  10 H :    0.090874
  11 H :    0.096976
Sum of atomic charges:    0.0000000

LOEWDIN ATOMIC CHARGES
----------------------
   0 C :   -0.000669
   1 O :   -0.000228
   2 H :   -0.000088
   3 H :   -0.000013
   4 H :   -0.000234
   5 H :   -0.000009
   6 C :   -0.427839
   7 O :   -0.053325
   8 H :    0.178682
   9 H :    0.117673
  10 H :    0.092808
  11 H :    0.093243

  Mayer bond orders larger than 0.1
B(  6-C ,  7-O ) :   1.0066 B(  6-C ,  9-H ) :   0.9733 B(  6-C , 10-H ) :   0.9736
B(  6-C , 11-H ) :   0.9744 B(  7-O ,  8-H ) :   0.8943

Dispersion correction           -0.000242261
FINAL SINGLE POINT ENERGY      -115.733897085695

DIPOLE MOMENT
-------------
                                X             Y             Z
Electronic contribution:     -0.25859       0.49652      -1.78526
Nuclear contribution   :      0.79557      -0.84499       1.92848
                        -----------------------------------------
Total Dipole Moment    :      0.53698      -0.34848       0.14323
                        -----------------------------------------
Magnitude (a.u.)       :      0.65597
Magnitude (Debye)      :      1.66735

Rotational constants in cm-1:     4.117589     0.864804     0.827061
Rotational constants in MHz : 123442.199478 25926.179768 24794.670467

                             ****ORCA TERMINATED NORMALLY****
TOTAL RUN TIME: 0 days 0 hours 1 minutes 12 seconds 967 msec
