                         Program Version 4.1.2  - RELEASE  -
|  1> #Run DFT-D3 single point of the dimer
|  2> ! wB97X-D3 def2-TZVP TIGHTSCF CHELPG PMODEL PAL8
|  3>
|  4> %base "6-79_DFT_AB"
|  5>
|  6> %scf
|  7> MaxIter 1000
|  8> end
|  9>
| 10> * xyz 0 1
| 11>   C                      -4.592135            -8.778354            -4.672863
| 12>   O                      -4.996036            -7.685713            -3.782804
| 13>   H                      -4.696775            -7.821721            -2.928204
| 14>   H                      -3.534098            -9.010149            -4.638917
| 15>   H                      -5.112055            -9.688766            -4.343416
| 16>   H                      -4.938609            -8.647915            -5.698391
| 17>   C                      -6.008489            -4.587720            -4.525131
| 18>   O                      -5.657151            -3.490434            -5.323309
| 19>   H                      -4.759430            -3.178681            -5.161051
| 20>   H                      -6.094564            -4.278882            -3.454936
| 21>   H                      -6.943216            -4.900228            -4.978512
| 22>   H                      -5.366793            -5.404057            -4.591604
| 23> *
| 24>
| 25> #Run DFT-D3 single point of the molecule with dimer basis set
| 26> $new_job
| 27> %base "6-79_DFT_A"
| 28> ! wB97X-D3 def2-TZVP TIGHTSCF CHELPG PMODEL
| 29>
| 30> %scf
| 31> MaxIter 1000
| 32> end
| 33>
| 34> * xyz 0 1
| 35>   C                      -4.592135            -8.778354            -4.672863
| 36>   O                      -4.996036            -7.685713            -3.782804
| 37>   H                      -4.696775            -7.821721            -2.928204
| 38>   H                      -3.534098            -9.010149            -4.638917
| 39>   H                      -5.112055            -9.688766            -4.343416
| 40>   H                      -4.938609            -8.647915            -5.698391
| 41>   C                    : -6.008489            -4.587720            -4.525131
| 42>   O                    : -5.657151            -3.490434            -5.323309
| 43>   H                    : -4.759430            -3.178681            -5.161051
| 44>   H                    : -6.094564            -4.278882            -3.454936
| 45>   H                    : -6.943216            -4.900228            -4.978512
| 46>   H                    : -5.366793            -5.404057            -4.591604
| 47> *
| 48>
| 49> #Run DFT-D3 single point of the particle with dimer basis set
| 50> $new_job
| 51> %base "6-79_DFT_B"
| 52> ! wB97X-D3 def2-TZVP TIGHTSCF CHELPG PMODEL
| 53>
| 54> %scf
| 55> MaxIter 1000
| 56> end
| 57>
| 58> * xyz 0 1
| 59>   C                    : -4.592135            -8.778354            -4.672863
| 60>   O                    : -4.996036            -7.685713            -3.782804
| 61>   H                    : -4.696775            -7.821721            -2.928204
| 62>   H                    : -3.534098            -9.010149            -4.638917
| 63>   H                    : -5.112055            -9.688766            -4.343416
| 64>   H                    : -4.938609            -8.647915            -5.698391
| 65>   C                      -6.008489            -4.587720            -4.525131
| 66>   O                      -5.657151            -3.490434            -5.323309
| 67>   H                      -4.759430            -3.178681            -5.161051
| 68>   H                      -6.094564            -4.278882            -3.454936
| 69>   H                      -6.943216            -4.900228            -4.978512
| 70>   H                      -5.366793            -5.404057            -4.591604
| 71> *
| 72>
| 73>                          ****END OF INPUT****
 Total Charge           Charge          ....    0
 Multiplicity           Mult            ....    1
 Number of Electrons    NEL             ....   36
Dispersion correction           -0.001437229
FINAL SINGLE POINT ENERGY      -231.465250650849
Dispersion correction           -0.000267042
FINAL SINGLE POINT ENERGY      -115.730649633929

CARTESIAN COORDINATES (ANGSTROEM)
---------------------------------
  C     -4.592135   -8.778354   -4.672863
  O     -4.996036   -7.685713   -3.782804
  H     -4.696775   -7.821721   -2.928204
  H     -3.534098   -9.010149   -4.638917
  H     -5.112055   -9.688766   -4.343416
  H     -4.938609   -8.647915   -5.698391
  C     -6.008489   -4.587720   -4.525131
  O     -5.657151   -3.490434   -5.323309
  H     -4.759430   -3.178681   -5.161051
  H     -6.094564   -4.278882   -3.454936
  H     -6.943216   -4.900228   -4.978512
  H     -5.366793   -5.404057   -4.591604

 Multiplicity           Mult            ....    1
 Number of Electrons    NEL             ....   18
 Basis Dimension        Dim             ....  172

ORBITAL ENERGIES
----------------

  NO   OCC          E(Eh)            E(eV)
   0   2.0000     -19.226122      -523.1694
   1   2.0000     -10.306937      -280.4660
   2   2.0000      -1.134964       -30.8839
   3   2.0000      -0.799309       -21.7503
   4   2.0000      -0.616678       -16.7807
   5   2.0000      -0.546559       -14.8726
   6   2.0000      -0.521168       -14.1817
   7   2.0000      -0.429344       -11.6830
   8   2.0000      -0.372444       -10.1347
   9   0.0000       0.081033         2.2050
  10   0.0000       0.118031         3.2118
  11   0.0000       0.149805         4.0764
  12   0.0000       0.167642         4.5618
  13   0.0000       0.190574         5.1858

MULLIKEN ATOMIC CHARGES
-----------------------
   0 C :   -0.000554
   1 O :   -0.000555
   2 H :   -0.000229
   3 H :   -0.000001
   4 H :    0.000012
   5 H :   -0.000058
   6 C :   -0.131425
   7 O :   -0.487881
   8 H :    0.312028
   9 H :    0.094522
  10 H :    0.112580
  11 H :    0.101562
Sum of atomic charges:   -0.0000000

LOEWDIN ATOMIC CHARGES
----------------------
   0 C :   -0.001494
   1 O :   -0.007068
   2 H :   -0.000697
   3 H :   -0.000028
   4 H :   -0.000031
   5 H :   -0.000163
   6 C :   -0.382746
   7 O :   -0.071267
   8 H :    0.166345
   9 H :    0.100329
  10 H :    0.112654
  11 H :    0.084165

  Mayer bond orders larger than 0.1
B(  6-C ,  7-O ) :   0.9920 B(  6-C ,  9-H ) :   0.9769 B(  6-C , 10-H ) :   0.9744
B(  6-C , 11-H ) :   0.9779 B(  7-O ,  8-H ) :   0.8976

Dispersion correction           -0.000239175
FINAL SINGLE POINT ENERGY      -115.732829327917

DIPOLE MOMENT
-------------
                                X             Y             Z
Electronic contribution:      0.39388       1.30772      -1.02267
Nuclear contribution   :      0.05733      -1.56514       1.41955
                        -----------------------------------------
Total Dipole Moment    :      0.45121      -0.25741       0.39688
                        -----------------------------------------
Magnitude (a.u.)       :      0.65374
Magnitude (Debye)      :      1.66166

Rotational constants in cm-1:     4.361085     0.847500     0.817236
Rotational constants in MHz : 130742.043063 25407.421108 24500.126783

                             ****ORCA TERMINATED NORMALLY****
TOTAL RUN TIME: 0 days 0 hours 1 minutes 4 seconds 553 msec
