                         Program Version 4.1.2  - RELEASE  -
|  1> #Run DFT-D3 single point of the dimer
|  2> ! wB97X-D3 def2-TZVP TIGHTSCF CHELPG PMODEL PAL8
|  3>
|  4> %base "15-156_DFT_AB"
|  5>
|  6> %scf
|  7> MaxIter 1000
|  8> end
|  9>
| 10> * xyz 0 1
| 11>   C                      3.301948             -9.057515            10.758930
| 12>   O                      3.190514             -8.202666            9.652621
| 13>   H                      3.903634             -7.597619            9.670895
| 14>   H                      2.823542             -10.106211           10.576544
| 15>   H                      4.415125             -9.195970            11.000954
| 16>   H                      2.842183             -8.686226            11.681437
| 17>   C                      4.172070             -4.404791            9.266475
| 18>   O                      4.568291             -5.770132            9.094948
| 19>   H                      5.481680             -5.952398            9.237084
| 20>   H                      3.093478             -4.262770            9.240783
| 21>   H                      4.577018             -4.151827            10.280328
| 22>   H                      4.635899             -3.712360            8.532662
| 23> *
| 24>
| 25> #Run DFT-D3 single point of the molecule with dimer basis set
| 26> $new_job
| 27> %base "15-156_DFT_A"
| 28> ! wB97X-D3 def2-TZVP TIGHTSCF CHELPG PMODEL
| 29>
| 30> %scf
| 31> MaxIter 1000
| 32> end
| 33>
| 34> * xyz 0 1
| 35>   C                      3.301948             -9.057515            10.758930
| 36>   O                      3.190514             -8.202666            9.652621
| 37>   H                      3.903634             -7.597619            9.670895
| 38>   H                      2.823542             -10.106211           10.576544
| 39>   H                      4.415125             -9.195970            11.000954
| 40>   H                      2.842183             -8.686226            11.681437
| 41>   C                    : 4.172070             -4.404791            9.266475
| 42>   O                    : 4.568291             -5.770132            9.094948
| 43>   H                    : 5.481680             -5.952398            9.237084
| 44>   H                    : 3.093478             -4.262770            9.240783
| 45>   H                    : 4.577018             -4.151827            10.280328
| 46>   H                    : 4.635899             -3.712360            8.532662
| 47> *
| 48>
| 49> #Run DFT-D3 single point of the particle with dimer basis set
| 50> $new_job
| 51> %base "15-156_DFT_B"
| 52> ! wB97X-D3 def2-TZVP TIGHTSCF CHELPG PMODEL
| 53>
| 54> %scf
| 55> MaxIter 1000
| 56> end
| 57>
| 58> * xyz 0 1
| 59>   C                    : 3.301948             -9.057515            10.758930
| 60>   O                    : 3.190514             -8.202666            9.652621
| 61>   H                    : 3.903634             -7.597619            9.670895
| 62>   H                    : 2.823542             -10.106211           10.576544
| 63>   H                    : 4.415125             -9.195970            11.000954
| 64>   H                    : 2.842183             -8.686226            11.681437
| 65>   C                      4.172070             -4.404791            9.266475
| 66>   O                      4.568291             -5.770132            9.094948
| 67>   H                      5.481680             -5.952398            9.237084
| 68>   H                      3.093478             -4.262770            9.240783
| 69>   H                      4.577018             -4.151827            10.280328
| 70>   H                      4.635899             -3.712360            8.532662
| 71> *
| 72>
| 73>                          ****END OF INPUT****
 Total Charge           Charge          ....    0
 Multiplicity           Mult            ....    1
 Number of Electrons    NEL             ....   36
Dispersion correction           -0.001460049
FINAL SINGLE POINT ENERGY      -231.465772789185
Dispersion correction           -0.000257782
FINAL SINGLE POINT ENERGY      -115.730274812187

CARTESIAN COORDINATES (ANGSTROEM)
---------------------------------
  C      3.301948   -9.057515   10.758930
  O      3.190514   -8.202666    9.652621
  H      3.903634   -7.597619    9.670895
  H      2.823542  -10.106211   10.576544
  H      4.415125   -9.195970   11.000954
  H      2.842183   -8.686226   11.681437
  C      4.172070   -4.404791    9.266475
  O      4.568291   -5.770132    9.094948
  H      5.481680   -5.952398    9.237084
  H      3.093478   -4.262770    9.240783
  H      4.577018   -4.151827   10.280328
  H      4.635899   -3.712360    8.532662

 Multiplicity           Mult            ....    1
 Number of Electrons    NEL             ....   18
 Basis Dimension        Dim             ....  172

ORBITAL ENERGIES
----------------

  NO   OCC          E(Eh)            E(eV)
   0   2.0000     -19.224064      -523.1134
   1   2.0000     -10.321285      -280.8564
   2   2.0000      -1.129156       -30.7259
   3   2.0000      -0.798282       -21.7224
   4   2.0000      -0.607906       -16.5420
   5   2.0000      -0.539649       -14.6846
   6   2.0000      -0.531984       -14.4760
   7   2.0000      -0.423489       -11.5237
   8   2.0000      -0.370082       -10.0705
   9   0.0000       0.096252         2.6191
  10   0.0000       0.122474         3.3327
  11   0.0000       0.151743         4.1291
  12   0.0000       0.193015         5.2522
  13   0.0000       0.199502         5.4287

MULLIKEN ATOMIC CHARGES
-----------------------
   0 C :    0.000775
   1 O :    0.003406
   2 H :   -0.018786
   3 H :   -0.000109
   4 H :   -0.000124
   5 H :   -0.000000
   6 C :   -0.146820
   7 O :   -0.486055
   8 H :    0.318462
   9 H :    0.129665
  10 H :    0.098130
  11 H :    0.101456
Sum of atomic charges:   -0.0000000

LOEWDIN ATOMIC CHARGES
----------------------
   0 C :   -0.001268
   1 O :   -0.007392
   2 H :   -0.037297
   3 H :   -0.000038
   4 H :   -0.000106
   5 H :   -0.000037
   6 C :   -0.365069
   7 O :   -0.051611
   8 H :    0.155191
   9 H :    0.107786
  10 H :    0.102123
  11 H :    0.097717

  Mayer bond orders larger than 0.1
B(  6-C ,  7-O ) :   0.9751 B(  6-C ,  9-H ) :   0.9707 B(  6-C , 10-H ) :   0.9904
B(  6-C , 11-H ) :   0.9651 B(  7-O ,  8-H ) :   0.8932

Dispersion correction           -0.000255729
FINAL SINGLE POINT ENERGY      -115.731287597125

DIPOLE MOMENT
-------------
                                X             Y             Z
Electronic contribution:      0.26607      -1.69918      -0.33953
Nuclear contribution   :      0.16196       2.17104       0.50452
                        -----------------------------------------
Total Dipole Moment    :      0.42803       0.47186       0.16500
                        -----------------------------------------
Magnitude (a.u.)       :      0.65809
Magnitude (Debye)      :      1.67272

Rotational constants in cm-1:     4.322857     0.806198     0.781265
Rotational constants in MHz : 129595.992921 24169.203866 23421.738093

                             ****ORCA TERMINATED NORMALLY****
TOTAL RUN TIME: 0 days 0 hours 1 minutes 6 seconds 179 msec
