                         Program Version 4.1.2  - RELEASE  -
|  1> #Run DFT-D3 single point of the dimer
|  2> ! wB97X-D3 def2-TZVP TIGHTSCF CHELPG PMODEL PAL8
|  3>
|  4> %base "14-80_DFT_AB"
|  5>
|  6> %scf
|  7> MaxIter 1000
|  8> end
|  9>
| 10> * xyz 0 1
| 11>   C                      -4.858137            8.794378             -2.162719
| 12>   O                      -5.057893            9.023676             -0.762485
| 13>   H                      -4.277961            8.800261             -0.211867
| 14>   H                      -5.459045            7.976104             -2.597022
| 15>   H                      -5.076426            9.725379             -2.688449
| 16>   H                      -3.806476            8.543483             -2.442663
| 17>   C                      -6.355175            4.803348             -0.633554
| 18>   O                      -6.165207            4.170899             0.606047
| 19>   H                      -6.825564            3.483296             0.638373
| 20>   H                      -7.380405            5.187809             -0.791474
| 21>   H                      -5.628031            5.602576             -0.976239
| 22>   H                      -6.191720            4.108695             -1.435763
| 23> *
| 24>
| 25> #Run DFT-D3 single point of the molecule with dimer basis set
| 26> $new_job
| 27> %base "14-80_DFT_A"
| 28> ! wB97X-D3 def2-TZVP TIGHTSCF CHELPG PMODEL
| 29>
| 30> %scf
| 31> MaxIter 1000
| 32> end
| 33>
| 34> * xyz 0 1
| 35>   C                      -4.858137            8.794378             -2.162719
| 36>   O                      -5.057893            9.023676             -0.762485
| 37>   H                      -4.277961            8.800261             -0.211867
| 38>   H                      -5.459045            7.976104             -2.597022
| 39>   H                      -5.076426            9.725379             -2.688449
| 40>   H                      -3.806476            8.543483             -2.442663
| 41>   C                    : -6.355175            4.803348             -0.633554
| 42>   O                    : -6.165207            4.170899             0.606047
| 43>   H                    : -6.825564            3.483296             0.638373
| 44>   H                    : -7.380405            5.187809             -0.791474
| 45>   H                    : -5.628031            5.602576             -0.976239
| 46>   H                    : -6.191720            4.108695             -1.435763
| 47> *
| 48>
| 49> #Run DFT-D3 single point of the particle with dimer basis set
| 50> $new_job
| 51> %base "14-80_DFT_B"
| 52> ! wB97X-D3 def2-TZVP TIGHTSCF CHELPG PMODEL
| 53>
| 54> %scf
| 55> MaxIter 1000
| 56> end
| 57>
| 58> * xyz 0 1
| 59>   C                    : -4.858137            8.794378             -2.162719
| 60>   O                    : -5.057893            9.023676             -0.762485
| 61>   H                    : -4.277961            8.800261             -0.211867
| 62>   H                    : -5.459045            7.976104             -2.597022
| 63>   H                    : -5.076426            9.725379             -2.688449
| 64>   H                    : -3.806476            8.543483             -2.442663
| 65>   C                      -6.355175            4.803348             -0.633554
| 66>   O                      -6.165207            4.170899             0.606047
| 67>   H                      -6.825564            3.483296             0.638373
| 68>   H                      -7.380405            5.187809             -0.791474
| 69>   H                      -5.628031            5.602576             -0.976239
| 70>   H                      -6.191720            4.108695             -1.435763
| 71> *
| 72>
| 73>                          ****END OF INPUT****
 Total Charge           Charge          ....    0
 Multiplicity           Mult            ....    1
 Number of Electrons    NEL             ....   36
Dispersion correction           -0.001202358
FINAL SINGLE POINT ENERGY      -231.462263687198
Dispersion correction           -0.000282954
FINAL SINGLE POINT ENERGY      -115.732921327572

CARTESIAN COORDINATES (ANGSTROEM)
---------------------------------
  C     -4.858137    8.794378   -2.162719
  O     -5.057893    9.023676   -0.762485
  H     -4.277961    8.800261   -0.211867
  H     -5.459045    7.976104   -2.597022
  H     -5.076426    9.725379   -2.688449
  H     -3.806476    8.543483   -2.442663
  C     -6.355175    4.803348   -0.633554
  O     -6.165207    4.170899    0.606047
  H     -6.825564    3.483296    0.638373
  H     -7.380405    5.187809   -0.791474
  H     -5.628031    5.602576   -0.976239
  H     -6.191720    4.108695   -1.435763

 Multiplicity           Mult            ....    1
 Number of Electrons    NEL             ....   18
 Basis Dimension        Dim             ....  172

ORBITAL ENERGIES
----------------

  NO   OCC          E(Eh)            E(eV)
   0   2.0000     -19.234458      -523.3962
   1   2.0000     -10.316139      -280.7164
   2   2.0000      -1.144445       -31.1419
   3   2.0000      -0.795131       -21.6366
   4   2.0000      -0.615857       -16.7583
   5   2.0000      -0.543402       -14.7867
   6   2.0000      -0.527755       -14.3609
   7   2.0000      -0.431064       -11.7298
   8   2.0000      -0.374129       -10.1806
   9   0.0000       0.083334         2.2676
  10   0.0000       0.116867         3.1801
  11   0.0000       0.148035         4.0282
  12   0.0000       0.162677         4.4267
  13   0.0000       0.190690         5.1889

MULLIKEN ATOMIC CHARGES
-----------------------
   0 C :   -0.000076
   1 O :    0.000029
   2 H :   -0.000042
   3 H :   -0.000054
   4 H :   -0.000000
   5 H :   -0.000090
   6 C :   -0.182255
   7 O :   -0.463304
   8 H :    0.318779
   9 H :    0.101738
  10 H :    0.121509
  11 H :    0.103767
Sum of atomic charges:    0.0000000

LOEWDIN ATOMIC CHARGES
----------------------
   0 C :   -0.001662
   1 O :   -0.000132
   2 H :   -0.000129
   3 H :   -0.000984
   4 H :   -0.000015
   5 H :   -0.000047
   6 C :   -0.408421
   7 O :   -0.064281
   8 H :    0.171059
   9 H :    0.096046
  10 H :    0.118754
  11 H :    0.089812

  Mayer bond orders larger than 0.1
B(  6-C ,  7-O ) :   1.0037 B(  6-C ,  9-H ) :   0.9769 B(  6-C , 10-H ) :   0.9697
B(  6-C , 11-H ) :   0.9794 B(  7-O ,  8-H ) :   0.8971

Dispersion correction           -0.000243351
FINAL SINGLE POINT ENERGY      -115.728627839697

DIPOLE MOMENT
-------------
                                X             Y             Z
Electronic contribution:      0.37519      -0.71053       1.85471
Nuclear contribution   :     -0.85046       0.49924      -2.33887
                        -----------------------------------------
Total Dipole Moment    :     -0.47526      -0.21129      -0.48416
                        -----------------------------------------
Magnitude (a.u.)       :      0.71058
Magnitude (Debye)      :      1.80616

Rotational constants in cm-1:     4.445145     0.826954     0.794709
Rotational constants in MHz : 133262.099640 24791.454814 23824.763936

                             ****ORCA TERMINATED NORMALLY****
TOTAL RUN TIME: 0 days 0 hours 0 minutes 55 seconds 57 msec
