                         Program Version 4.1.2  - RELEASE  -
|  1> #Run DFT-D3 single point of the dimer
|  2> ! wB97X-D3 def2-TZVP TIGHTSCF CHELPG PMODEL PAL8
|  3>
|  4> %base "2-41_DFT_AB"
|  5>
|  6> %scf
|  7> MaxIter 1000
|  8> end
|  9>
| 10> * xyz 0 1
| 11>   C                      -10.786374           -2.434926            6.102013
| 12>   O                      -9.534967            -2.920032            6.721126
| 13>   H                      -9.546065            -3.876163            6.859019
| 14>   H                      -10.700096           -1.362841            6.063289
| 15>   H                      -10.879818           -2.671802            5.082183
| 16>   H                      -11.722517           -2.729585            6.503359
| 17>   C                      -7.226407            0.241027             9.770082
| 18>   O                      -7.837410            0.242578             11.018162
| 19>   H                      -8.773012            0.018746             10.842653
| 20>   H                      -6.208939            0.676731             9.794001
| 21>   H                      -7.036564            -0.740355            9.376161
| 22>   H                      -7.751855            0.717789             8.953111
| 23> *
| 24>
| 25> #Run DFT-D3 single point of the molecule with dimer basis set
| 26> $new_job
| 27> %base "2-41_DFT_A"
| 28> ! wB97X-D3 def2-TZVP TIGHTSCF CHELPG PMODEL
| 29>
| 30> %scf
| 31> MaxIter 1000
| 32> end
| 33>
| 34> * xyz 0 1
| 35>   C                      -10.786374           -2.434926            6.102013
| 36>   O                      -9.534967            -2.920032            6.721126
| 37>   H                      -9.546065            -3.876163            6.859019
| 38>   H                      -10.700096           -1.362841            6.063289
| 39>   H                      -10.879818           -2.671802            5.082183
| 40>   H                      -11.722517           -2.729585            6.503359
| 41>   C                    : -7.226407            0.241027             9.770082
| 42>   O                    : -7.837410            0.242578             11.018162
| 43>   H                    : -8.773012            0.018746             10.842653
| 44>   H                    : -6.208939            0.676731             9.794001
| 45>   H                    : -7.036564            -0.740355            9.376161
| 46>   H                    : -7.751855            0.717789             8.953111
| 47> *
| 48>
| 49> #Run DFT-D3 single point of the particle with dimer basis set
| 50> $new_job
| 51> %base "2-41_DFT_B"
| 52> ! wB97X-D3 def2-TZVP TIGHTSCF CHELPG PMODEL
| 53>
| 54> %scf
| 55> MaxIter 1000
| 56> end
| 57>
| 58> * xyz 0 1
| 59>   C                    : -10.786374           -2.434926            6.102013
| 60>   O                    : -9.534967            -2.920032            6.721126
| 61>   H                    : -9.546065            -3.876163            6.859019
| 62>   H                    : -10.700096           -1.362841            6.063289
| 63>   H                    : -10.879818           -2.671802            5.082183
| 64>   H                    : -11.722517           -2.729585            6.503359
| 65>   C                      -7.226407            0.241027             9.770082
| 66>   O                      -7.837410            0.242578             11.018162
| 67>   H                      -8.773012            0.018746             10.842653
| 68>   H                      -6.208939            0.676731             9.794001
| 69>   H                      -7.036564            -0.740355            9.376161
| 70>   H                      -7.751855            0.717789             8.953111
| 71> *
| 72>
| 73>                          ****END OF INPUT****
 Total Charge           Charge          ....    0
 Multiplicity           Mult            ....    1
 Number of Electrons    NEL             ....   36
Dispersion correction           -0.000733628
FINAL SINGLE POINT ENERGY      -231.461295617672
Dispersion correction           -0.000293167
FINAL SINGLE POINT ENERGY      -115.727841457954

CARTESIAN COORDINATES (ANGSTROEM)
---------------------------------
  C    -10.786374   -2.434926    6.102013
  O     -9.534967   -2.920032    6.721126
  H     -9.546065   -3.876163    6.859019
  H    -10.700096   -1.362841    6.063289
  H    -10.879818   -2.671802    5.082183
  H    -11.722517   -2.729585    6.503359
  C     -7.226407    0.241027    9.770082
  O     -7.837410    0.242578   11.018162
  H     -8.773012    0.018746   10.842653
  H     -6.208939    0.676731    9.794001
  H     -7.036564   -0.740355    9.376161
  H     -7.751855    0.717789    8.953111

 Multiplicity           Mult            ....    1
 Number of Electrons    NEL             ....   18
 Basis Dimension        Dim             ....  172

ORBITAL ENERGIES
----------------

  NO   OCC          E(Eh)            E(eV)
   0   2.0000     -19.237209      -523.4711
   1   2.0000     -10.308103      -280.4977
   2   2.0000      -1.144474       -31.1427
   3   2.0000      -0.796227       -21.6664
   4   2.0000      -0.619478       -16.8569
   5   2.0000      -0.538217       -14.6456
   6   2.0000      -0.529676       -14.4132
   7   2.0000      -0.437958       -11.9174
   8   2.0000      -0.372834       -10.1453
   9   0.0000       0.080098         2.1796
  10   0.0000       0.113553         3.0899
  11   0.0000       0.148674         4.0456
  12   0.0000       0.157084         4.2745
  13   0.0000       0.192513         5.2385

MULLIKEN ATOMIC CHARGES
-----------------------
   0 C :    0.000003
   1 O :   -0.000015
   2 H :   -0.000006
   3 H :   -0.000027
   4 H :   -0.000000
   5 H :   -0.000001
   6 C :   -0.169878
   7 O :   -0.460620
   8 H :    0.318721
   9 H :    0.114515
  10 H :    0.095322
  11 H :    0.101987
Sum of atomic charges:   -0.0000000

LOEWDIN ATOMIC CHARGES
----------------------
   0 C :   -0.000011
   1 O :   -0.000037
   2 H :   -0.000008
   3 H :   -0.000010
   4 H :   -0.000000
   5 H :   -0.000000
   6 C :   -0.416292
   7 O :   -0.060399
   8 H :    0.185864
   9 H :    0.111630
  10 H :    0.088020
  11 H :    0.091244

  Mayer bond orders larger than 0.1
B(  6-C ,  7-O ) :   1.0120 B(  6-C ,  9-H ) :   0.9752 B(  6-C , 10-H ) :   0.9759
B(  6-C , 11-H ) :   0.9757 B(  7-O ,  8-H ) :   0.8952

Dispersion correction           -0.000240615
FINAL SINGLE POINT ENERGY      -115.732661575190

DIPOLE MOMENT
-------------
                                X             Y             Z
Electronic contribution:     -0.78546       0.09680       1.83920
Nuclear contribution   :      0.43157      -0.24158      -2.42315
                        -----------------------------------------
Total Dipole Moment    :     -0.35389      -0.14477      -0.58395
                        -----------------------------------------
Magnitude (a.u.)       :      0.69800
Magnitude (Debye)      :      1.77416

Rotational constants in cm-1:     4.470750     0.848047     0.808184
Rotational constants in MHz : 134029.714387 25423.805417 24228.743045

                             ****ORCA TERMINATED NORMALLY****
TOTAL RUN TIME: 0 days 0 hours 5 minutes 29 seconds 878 msec
