                         Program Version 4.1.2  - RELEASE  -
|  1> #Run DFT-D3 single point of the dimer
|  2> ! wB97X-D3 def2-TZVP TIGHTSCF CHELPG PMODEL PAL8
|  3>
|  4> %base "11-2_DFT_AB"
|  5>
|  6> %scf
|  7> MaxIter 1000
|  8> end
|  9>
| 10> * xyz 0 1
| 11>   C                      -2.148013            2.129847             1.911966
| 12>   O                      -0.703100            2.202816             2.039990
| 13>   H                      -0.327344            2.930984             1.522731
| 14>   H                      -2.414317            2.238284             0.914172
| 15>   H                      -2.582117            1.155431             2.198879
| 16>   H                      -2.594961            2.946416             2.554262
| 17>   C                      -5.235882            3.625782             3.629223
| 18>   O                      -5.157352            3.575601             2.260142
| 19>   H                      -5.339816            4.474139             1.905838
| 20>   H                      -4.746919            2.763487             4.126884
| 21>   H                      -4.722941            4.481456             4.022618
| 22>   H                      -6.300535            3.639498             3.943306
| 23> *
| 24>
| 25> #Run DFT-D3 single point of the molecule with dimer basis set
| 26> $new_job
| 27> %base "11-2_DFT_A"
| 28> ! wB97X-D3 def2-TZVP TIGHTSCF CHELPG PMODEL
| 29>
| 30> %scf
| 31> MaxIter 1000
| 32> end
| 33>
| 34> * xyz 0 1
| 35>   C                      -2.148013            2.129847             1.911966
| 36>   O                      -0.703100            2.202816             2.039990
| 37>   H                      -0.327344            2.930984             1.522731
| 38>   H                      -2.414317            2.238284             0.914172
| 39>   H                      -2.582117            1.155431             2.198879
| 40>   H                      -2.594961            2.946416             2.554262
| 41>   C                    : -5.235882            3.625782             3.629223
| 42>   O                    : -5.157352            3.575601             2.260142
| 43>   H                    : -5.339816            4.474139             1.905838
| 44>   H                    : -4.746919            2.763487             4.126884
| 45>   H                    : -4.722941            4.481456             4.022618
| 46>   H                    : -6.300535            3.639498             3.943306
| 47> *
| 48>
| 49> #Run DFT-D3 single point of the particle with dimer basis set
| 50> $new_job
| 51> %base "11-2_DFT_B"
| 52> ! wB97X-D3 def2-TZVP TIGHTSCF CHELPG PMODEL
| 53>
| 54> %scf
| 55> MaxIter 1000
| 56> end
| 57>
| 58> * xyz 0 1
| 59>   C                    : -2.148013            2.129847             1.911966
| 60>   O                    : -0.703100            2.202816             2.039990
| 61>   H                    : -0.327344            2.930984             1.522731
| 62>   H                    : -2.414317            2.238284             0.914172
| 63>   H                    : -2.582117            1.155431             2.198879
| 64>   H                    : -2.594961            2.946416             2.554262
| 65>   C                      -5.235882            3.625782             3.629223
| 66>   O                      -5.157352            3.575601             2.260142
| 67>   H                      -5.339816            4.474139             1.905838
| 68>   H                      -4.746919            2.763487             4.126884
| 69>   H                      -4.722941            4.481456             4.022618
| 70>   H                      -6.300535            3.639498             3.943306
| 71> *
| 72>
| 73>                          ****END OF INPUT****
 Total Charge           Charge          ....    0
 Multiplicity           Mult            ....    1
 Number of Electrons    NEL             ....   36
Dispersion correction           -0.001780574
FINAL SINGLE POINT ENERGY      -231.465435973431
Dispersion correction           -0.000260017
FINAL SINGLE POINT ENERGY      -115.729980891097

CARTESIAN COORDINATES (ANGSTROEM)
---------------------------------
  C     -2.148013    2.129847    1.911966
  O     -0.703100    2.202816    2.039990
  H     -0.327344    2.930984    1.522731
  H     -2.414317    2.238284    0.914172
  H     -2.582117    1.155431    2.198879
  H     -2.594961    2.946416    2.554262
  C     -5.235882    3.625782    3.629223
  O     -5.157352    3.575601    2.260142
  H     -5.339816    4.474139    1.905838
  H     -4.746919    2.763487    4.126884
  H     -4.722941    4.481456    4.022618
  H     -6.300535    3.639498    3.943306

 Multiplicity           Mult            ....    1
 Number of Electrons    NEL             ....   18
 Basis Dimension        Dim             ....  172

ORBITAL ENERGIES
----------------

  NO   OCC          E(Eh)            E(eV)
   0   2.0000     -19.232079      -523.3315
   1   2.0000     -10.309555      -280.5373
   2   2.0000      -1.146003       -31.1843
   3   2.0000      -0.790886       -21.5211
   4   2.0000      -0.616212       -16.7680
   5   2.0000      -0.548702       -14.9309
   6   2.0000      -0.532621       -14.4934
   7   2.0000      -0.425944       -11.5905
   8   2.0000      -0.371013       -10.0958
   9   0.0000       0.093029         2.5315
  10   0.0000       0.120410         3.2765
  11   0.0000       0.151296         4.1170
  12   0.0000       0.170313         4.6344
  13   0.0000       0.202497         5.5102

MULLIKEN ATOMIC CHARGES
-----------------------
   0 C :    0.004224
   1 O :    0.000014
   2 H :   -0.000003
   3 H :   -0.002948
   4 H :   -0.001727
   5 H :   -0.002805
   6 C :   -0.169513
   7 O :   -0.467133
   8 H :    0.319642
   9 H :    0.115396
  10 H :    0.104652
  11 H :    0.100202
Sum of atomic charges:    0.0000000

LOEWDIN ATOMIC CHARGES
----------------------
   0 C :   -0.009239
   1 O :   -0.000046
   2 H :   -0.000006
   3 H :   -0.001311
   4 H :   -0.000360
   5 H :   -0.006632
   6 C :   -0.422590
   7 O :   -0.045374
   8 H :    0.187787
   9 H :    0.111166
  10 H :    0.089512
  11 H :    0.097094

  Mayer bond orders larger than 0.1
B(  6-C ,  7-O ) :   0.9932 B(  6-C ,  9-H ) :   0.9733 B(  6-C , 10-H ) :   0.9845
B(  6-C , 11-H ) :   0.9755 B(  7-O ,  8-H ) :   0.8902

Dispersion correction           -0.000224264
FINAL SINGLE POINT ENERGY      -115.733935556450

DIPOLE MOMENT
-------------
                                X             Y             Z
Electronic contribution:      0.15632      -0.19848      -1.84058
Nuclear contribution   :     -0.28319       0.79483       2.13043
                        -----------------------------------------
Total Dipole Moment    :     -0.12686       0.59635       0.28985
                        -----------------------------------------
Magnitude (a.u.)       :      0.67509
Magnitude (Debye)      :      1.71594

Rotational constants in cm-1:     4.282854     0.865574     0.837878
Rotational constants in MHz : 128396.727408 25949.265895 25118.949162

                             ****ORCA TERMINATED NORMALLY****
TOTAL RUN TIME: 0 days 0 hours 1 minutes 4 seconds 722 msec
