                         Program Version 4.1.2  - RELEASE  -
|  1> #Run DFT-D3 single point of the dimer
|  2> ! wB97X-D3 def2-TZVP TIGHTSCF CHELPG PMODEL PAL8
|  3>
|  4> %base "12-177_DFT_AB"
|  5>
|  6> %scf
|  7> MaxIter 1000
|  8> end
|  9>
| 10> * xyz 0 1
| 11>   C                      -0.339149            -4.423199            -5.326055
| 12>   O                      -0.038769            -3.807960            -6.553983
| 13>   H                      0.856931             -4.029601            -6.766577
| 14>   H                      -1.183695            -3.938080            -4.910688
| 15>   H                      -0.641640            -5.450036            -5.588658
| 16>   H                      0.493558             -4.491203            -4.588605
| 17>   C                      3.342125             -5.023051            -5.318537
| 18>   O                      2.887319             -4.274273            -6.430763
| 19>   H                      3.572304             -4.139006            -7.111828
| 20>   H                      4.340022             -4.689167            -5.002145
| 21>   H                      2.573758             -5.014004            -4.521684
| 22>   H                      3.464078             -6.125490            -5.575400
| 23> *
| 24>
| 25> #Run DFT-D3 single point of the molecule with dimer basis set
| 26> $new_job
| 27> %base "12-177_DFT_A"
| 28> ! wB97X-D3 def2-TZVP TIGHTSCF CHELPG PMODEL
| 29>
| 30> %scf
| 31> MaxIter 1000
| 32> end
| 33>
| 34> * xyz 0 1
| 35>   C                      -0.339149            -4.423199            -5.326055
| 36>   O                      -0.038769            -3.807960            -6.553983
| 37>   H                      0.856931             -4.029601            -6.766577
| 38>   H                      -1.183695            -3.938080            -4.910688
| 39>   H                      -0.641640            -5.450036            -5.588658
| 40>   H                      0.493558             -4.491203            -4.588605
| 41>   C                    : 3.342125             -5.023051            -5.318537
| 42>   O                    : 2.887319             -4.274273            -6.430763
| 43>   H                    : 3.572304             -4.139006            -7.111828
| 44>   H                    : 4.340022             -4.689167            -5.002145
| 45>   H                    : 2.573758             -5.014004            -4.521684
| 46>   H                    : 3.464078             -6.125490            -5.575400
| 47> *
| 48>
| 49> #Run DFT-D3 single point of the particle with dimer basis set
| 50> $new_job
| 51> %base "12-177_DFT_B"
| 52> ! wB97X-D3 def2-TZVP TIGHTSCF CHELPG PMODEL
| 53>
| 54> %scf
| 55> MaxIter 1000
| 56> end
| 57>
| 58> * xyz 0 1
| 59>   C                    : -0.339149            -4.423199            -5.326055
| 60>   O                    : -0.038769            -3.807960            -6.553983
| 61>   H                    : 0.856931             -4.029601            -6.766577
| 62>   H                    : -1.183695            -3.938080            -4.910688
| 63>   H                    : -0.641640            -5.450036            -5.588658
| 64>   H                    : 0.493558             -4.491203            -4.588605
| 65>   C                      3.342125             -5.023051            -5.318537
| 66>   O                      2.887319             -4.274273            -6.430763
| 67>   H                      3.572304             -4.139006            -7.111828
| 68>   H                      4.340022             -4.689167            -5.002145
| 69>   H                      2.573758             -5.014004            -4.521684
| 70>   H                      3.464078             -6.125490            -5.575400
| 71> *
| 72>
| 73>                          ****END OF INPUT****
 Total Charge           Charge          ....    0
 Multiplicity           Mult            ....    1
 Number of Electrons    NEL             ....   36
Dispersion correction           -0.002080279
FINAL SINGLE POINT ENERGY      -231.475034201975
Dispersion correction           -0.000229591
FINAL SINGLE POINT ENERGY      -115.733969873943

CARTESIAN COORDINATES (ANGSTROEM)
---------------------------------
  C     -0.339149   -4.423199   -5.326055
  O     -0.038769   -3.807960   -6.553983
  H      0.856931   -4.029601   -6.766577
  H     -1.183695   -3.938080   -4.910688
  H     -0.641640   -5.450036   -5.588658
  H      0.493558   -4.491203   -4.588605
  C      3.342125   -5.023051   -5.318537
  O      2.887319   -4.274273   -6.430763
  H      3.572304   -4.139006   -7.111828
  H      4.340022   -4.689167   -5.002145
  H      2.573758   -5.014004   -4.521684
  H      3.464078   -6.125490   -5.575400

 Multiplicity           Mult            ....    1
 Number of Electrons    NEL             ....   18
 Basis Dimension        Dim             ....  172

ORBITAL ENERGIES
----------------

  NO   OCC          E(Eh)            E(eV)
   0   2.0000     -19.230552      -523.2899
   1   2.0000     -10.321720      -280.8683
   2   2.0000      -1.130199       -30.7543
   3   2.0000      -0.792275       -21.5589
   4   2.0000      -0.610737       -16.6190
   5   2.0000      -0.538026       -14.6404
   6   2.0000      -0.523662       -14.2496
   7   2.0000      -0.430511       -11.7148
   8   2.0000      -0.369054       -10.0425
   9   0.0000       0.098052         2.6681
  10   0.0000       0.123325         3.3559
  11   0.0000       0.150661         4.0997
  12   0.0000       0.192384         5.2350
  13   0.0000       0.197602         5.3770

MULLIKEN ATOMIC CHARGES
-----------------------
   0 C :    0.002313
   1 O :   -0.000970
   2 H :   -0.009674
   3 H :    0.000026
   4 H :   -0.000493
   5 H :    0.001087
   6 C :   -0.144810
   7 O :   -0.480278
   8 H :    0.316840
   9 H :    0.101231
  10 H :    0.120354
  11 H :    0.094373
Sum of atomic charges:    0.0000000

LOEWDIN ATOMIC CHARGES
----------------------
   0 C :   -0.005144
   1 O :   -0.004028
   2 H :   -0.032880
   3 H :   -0.000028
   4 H :   -0.000092
   5 H :   -0.005854
   6 C :   -0.382538
   7 O :   -0.054692
   8 H :    0.175905
   9 H :    0.095291
  10 H :    0.114659
  11 H :    0.099402

  Mayer bond orders larger than 0.1
B(  6-C ,  7-O ) :   0.9930 B(  6-C ,  9-H ) :   0.9748 B(  6-C , 10-H ) :   0.9740
B(  6-C , 11-H ) :   0.9756 B(  7-O ,  8-H ) :   0.8906

Dispersion correction           -0.000261690
FINAL SINGLE POINT ENERGY      -115.733950930576

DIPOLE MOMENT
-------------
                                X             Y             Z
Electronic contribution:     -0.69499       1.09107      -1.29543
Nuclear contribution   :      1.32560      -1.29542       1.30788
                        -----------------------------------------
Total Dipole Moment    :      0.63060      -0.20435       0.01245
                        -----------------------------------------
Magnitude (a.u.)       :      0.66300
Magnitude (Debye)      :      1.68522

Rotational constants in cm-1:     4.203085     0.821103     0.786783
Rotational constants in MHz : 126005.325934 24616.061452 23587.172607

                             ****ORCA TERMINATED NORMALLY****
TOTAL RUN TIME: 0 days 0 hours 1 minutes 15 seconds 994 msec
