                         Program Version 4.1.2  - RELEASE  -
|  1> #Run DFT-D3 single point of the dimer
|  2> ! wB97X-D3 def2-TZVP TIGHTSCF CHELPG PMODEL PAL8
|  3>
|  4> %base "5-55_DFT_AB"
|  5>
|  6> %scf
|  7> MaxIter 1000
|  8> end
|  9>
| 10> * xyz 0 1
| 11>   C                      -6.273322            -9.533329            -8.368384
| 12>   O                      -7.523562            -10.051300           -8.014050
| 13>   H                      -8.078851            -9.952586            -8.778788
| 14>   H                      -5.871098            -8.781854            -7.648397
| 15>   H                      -5.513111            -10.350072           -8.413968
| 16>   H                      -6.238926            -9.095729            -9.396470
| 17>   C                      -4.350654            -7.487115            -4.809428
| 18>   O                      -3.860675            -8.269056            -3.732070
| 19>   H                      -2.962024            -7.911483            -3.592213
| 20>   H                      -3.912617            -7.782667            -5.798155
| 21>   H                      -5.418089            -7.570817            -4.968837
| 22>   H                      -4.153602            -6.416138            -4.726686
| 23> *
| 24>
| 25> #Run DFT-D3 single point of the molecule with dimer basis set
| 26> $new_job
| 27> %base "5-55_DFT_A"
| 28> ! wB97X-D3 def2-TZVP TIGHTSCF CHELPG PMODEL
| 29>
| 30> %scf
| 31> MaxIter 1000
| 32> end
| 33>
| 34> * xyz 0 1
| 35>   C                      -6.273322            -9.533329            -8.368384
| 36>   O                      -7.523562            -10.051300           -8.014050
| 37>   H                      -8.078851            -9.952586            -8.778788
| 38>   H                      -5.871098            -8.781854            -7.648397
| 39>   H                      -5.513111            -10.350072           -8.413968
| 40>   H                      -6.238926            -9.095729            -9.396470
| 41>   C                    : -4.350654            -7.487115            -4.809428
| 42>   O                    : -3.860675            -8.269056            -3.732070
| 43>   H                    : -2.962024            -7.911483            -3.592213
| 44>   H                    : -3.912617            -7.782667            -5.798155
| 45>   H                    : -5.418089            -7.570817            -4.968837
| 46>   H                    : -4.153602            -6.416138            -4.726686
| 47> *
| 48>
| 49> #Run DFT-D3 single point of the particle with dimer basis set
| 50> $new_job
| 51> %base "5-55_DFT_B"
| 52> ! wB97X-D3 def2-TZVP TIGHTSCF CHELPG PMODEL
| 53>
| 54> %scf
| 55> MaxIter 1000
| 56> end
| 57>
| 58> * xyz 0 1
| 59>   C                    : -6.273322            -9.533329            -8.368384
| 60>   O                    : -7.523562            -10.051300           -8.014050
| 61>   H                    : -8.078851            -9.952586            -8.778788
| 62>   H                    : -5.871098            -8.781854            -7.648397
| 63>   H                    : -5.513111            -10.350072           -8.413968
| 64>   H                    : -6.238926            -9.095729            -9.396470
| 65>   C                      -4.350654            -7.487115            -4.809428
| 66>   O                      -3.860675            -8.269056            -3.732070
| 67>   H                      -2.962024            -7.911483            -3.592213
| 68>   H                      -3.912617            -7.782667            -5.798155
| 69>   H                      -5.418089            -7.570817            -4.968837
| 70>   H                      -4.153602            -6.416138            -4.726686
| 71> *
| 72>
| 73>                          ****END OF INPUT****
 Total Charge           Charge          ....    0
 Multiplicity           Mult            ....    1
 Number of Electrons    NEL             ....   36
Dispersion correction           -0.001080186
FINAL SINGLE POINT ENERGY      -231.467546285137
Dispersion correction           -0.000255993
FINAL SINGLE POINT ENERGY      -115.733551269138

CARTESIAN COORDINATES (ANGSTROEM)
---------------------------------
  C     -6.273322   -9.533329   -8.368384
  O     -7.523562  -10.051300   -8.014050
  H     -8.078851   -9.952586   -8.778788
  H     -5.871098   -8.781854   -7.648397
  H     -5.513111  -10.350072   -8.413968
  H     -6.238926   -9.095729   -9.396470
  C     -4.350654   -7.487115   -4.809428
  O     -3.860675   -8.269056   -3.732070
  H     -2.962024   -7.911483   -3.592213
  H     -3.912617   -7.782667   -5.798155
  H     -5.418089   -7.570817   -4.968837
  H     -4.153602   -6.416138   -4.726686

 Multiplicity           Mult            ....    1
 Number of Electrons    NEL             ....   18
 Basis Dimension        Dim             ....  172

ORBITAL ENERGIES
----------------

  NO   OCC          E(Eh)            E(eV)
   0   2.0000     -19.237733      -523.4853
   1   2.0000     -10.315208      -280.6911
   2   2.0000      -1.136815       -30.9343
   3   2.0000      -0.794096       -21.6085
   4   2.0000      -0.609984       -16.5985
   5   2.0000      -0.533792       -14.5252
   6   2.0000      -0.530183       -14.4270
   7   2.0000      -0.440728       -11.9928
   8   2.0000      -0.374466       -10.1897
   9   0.0000       0.086893         2.3645
  10   0.0000       0.114015         3.1025
  11   0.0000       0.144652         3.9362
  12   0.0000       0.170292         4.6339
  13   0.0000       0.192326         5.2335

MULLIKEN ATOMIC CHARGES
-----------------------
   0 C :    0.001507
   1 O :   -0.000028
   2 H :   -0.000002
   3 H :   -0.002717
   4 H :   -0.000161
   5 H :   -0.000043
   6 C :   -0.183282
   7 O :   -0.461494
   8 H :    0.318852
   9 H :    0.095667
  10 H :    0.123813
  11 H :    0.107888
Sum of atomic charges:   -0.0000000

LOEWDIN ATOMIC CHARGES
----------------------
   0 C :   -0.000572
   1 O :   -0.000005
   2 H :   -0.000001
   3 H :   -0.001904
   4 H :   -0.000027
   5 H :   -0.000002
   6 C :   -0.395920
   7 O :   -0.082381
   8 H :    0.183909
   9 H :    0.097861
  10 H :    0.104929
  11 H :    0.094113

  Mayer bond orders larger than 0.1
B(  6-C ,  7-O ) :   1.0045 B(  6-C ,  9-H ) :   0.9745 B(  6-C , 10-H ) :   0.9732
B(  6-C , 11-H ) :   0.9729 B(  7-O ,  8-H ) :   0.8972

Dispersion correction           -0.000249578
FINAL SINGLE POINT ENERGY      -115.733712079071

DIPOLE MOMENT
-------------
                                X             Y             Z
Electronic contribution:      0.48263      -1.14590       1.56774
Nuclear contribution   :     -0.13066       1.67853      -1.88631
                        -----------------------------------------
Total Dipole Moment    :      0.35197       0.53263      -0.31856
                        -----------------------------------------
Magnitude (a.u.)       :      0.71348
Magnitude (Debye)      :      1.81353

Rotational constants in cm-1:     4.337895     0.818666     0.788400
Rotational constants in MHz : 130046.819067 24542.992261 23635.627287

                             ****ORCA TERMINATED NORMALLY****
TOTAL RUN TIME: 0 days 0 hours 0 minutes 47 seconds 835 msec
