                         Program Version 4.1.2  - RELEASE  -
|  1> #Run DFT-D3 single point of the dimer
|  2> ! wB97X-D3 def2-TZVP TIGHTSCF CHELPG PMODEL PAL8
|  3>
|  4> %base "5-141_DFT_AB"
|  5>
|  6> %scf
|  7> MaxIter 1000
|  8> end
|  9>
| 10> * xyz 0 1
| 11>   C                      2.972572             -0.901774            1.372664
| 12>   O                      3.715877             -0.053173            0.503747
| 13>   H                      4.643713             -0.350892            0.272494
| 14>   H                      2.042537             -0.463022            1.683760
| 15>   H                      2.718830             -1.816522            0.938662
| 16>   H                      3.540776             -1.169969            2.319029
| 17>   C                      1.586198             3.064769             1.258012
| 18>   O                      2.942958             3.362784             1.580281
| 19>   H                      3.444564             3.670223             0.817226
| 20>   H                      1.019516             3.962641             1.026956
| 21>   H                      1.526199             2.411293             0.366586
| 22>   H                      0.905983             2.694856             2.019195
| 23> *
| 24>
| 25> #Run DFT-D3 single point of the molecule with dimer basis set
| 26> $new_job
| 27> %base "5-141_DFT_A"
| 28> ! wB97X-D3 def2-TZVP TIGHTSCF CHELPG PMODEL
| 29>
| 30> %scf
| 31> MaxIter 1000
| 32> end
| 33>
| 34> * xyz 0 1
| 35>   C                      2.972572             -0.901774            1.372664
| 36>   O                      3.715877             -0.053173            0.503747
| 37>   H                      4.643713             -0.350892            0.272494
| 38>   H                      2.042537             -0.463022            1.683760
| 39>   H                      2.718830             -1.816522            0.938662
| 40>   H                      3.540776             -1.169969            2.319029
| 41>   C                    : 1.586198             3.064769             1.258012
| 42>   O                    : 2.942958             3.362784             1.580281
| 43>   H                    : 3.444564             3.670223             0.817226
| 44>   H                    : 1.019516             3.962641             1.026956
| 45>   H                    : 1.526199             2.411293             0.366586
| 46>   H                    : 0.905983             2.694856             2.019195
| 47> *
| 48>
| 49> #Run DFT-D3 single point of the particle with dimer basis set
| 50> $new_job
| 51> %base "5-141_DFT_B"
| 52> ! wB97X-D3 def2-TZVP TIGHTSCF CHELPG PMODEL
| 53>
| 54> %scf
| 55> MaxIter 1000
| 56> end
| 57>
| 58> * xyz 0 1
| 59>   C                    : 2.972572             -0.901774            1.372664
| 60>   O                    : 3.715877             -0.053173            0.503747
| 61>   H                    : 4.643713             -0.350892            0.272494
| 62>   H                    : 2.042537             -0.463022            1.683760
| 63>   H                    : 2.718830             -1.816522            0.938662
| 64>   H                    : 3.540776             -1.169969            2.319029
| 65>   C                      1.586198             3.064769             1.258012
| 66>   O                      2.942958             3.362784             1.580281
| 67>   H                      3.444564             3.670223             0.817226
| 68>   H                      1.019516             3.962641             1.026956
| 69>   H                      1.526199             2.411293             0.366586
| 70>   H                      0.905983             2.694856             2.019195
| 71> *
| 72>
| 73>                          ****END OF INPUT****
 Total Charge           Charge          ....    0
 Multiplicity           Mult            ....    1
 Number of Electrons    NEL             ....   36
Dispersion correction           -0.001563742
FINAL SINGLE POINT ENERGY      -231.457851491235
Dispersion correction           -0.000276552
FINAL SINGLE POINT ENERGY      -115.729489677891

CARTESIAN COORDINATES (ANGSTROEM)
---------------------------------
  C      2.972572   -0.901774    1.372664
  O      3.715877   -0.053173    0.503747
  H      4.643713   -0.350892    0.272494
  H      2.042537   -0.463022    1.683760
  H      2.718830   -1.816522    0.938662
  H      3.540776   -1.169969    2.319029
  C      1.586198    3.064769    1.258012
  O      2.942958    3.362784    1.580281
  H      3.444564    3.670223    0.817226
  H      1.019516    3.962641    1.026956
  H      1.526199    2.411293    0.366586
  H      0.905983    2.694856    2.019195

 Multiplicity           Mult            ....    1
 Number of Electrons    NEL             ....   18
 Basis Dimension        Dim             ....  172

ORBITAL ENERGIES
----------------

  NO   OCC          E(Eh)            E(eV)
   0   2.0000     -19.231303      -523.3104
   1   2.0000     -10.314993      -280.6852
   2   2.0000      -1.129805       -30.7436
   3   2.0000      -0.801523       -21.8106
   4   2.0000      -0.611246       -16.6329
   5   2.0000      -0.545158       -14.8345
   6   2.0000      -0.523941       -14.2571
   7   2.0000      -0.424732       -11.5576
   8   2.0000      -0.372584       -10.1385
   9   0.0000       0.086733         2.3601
  10   0.0000       0.120387         3.2759
  11   0.0000       0.142680         3.8825
  12   0.0000       0.170043         4.6271
  13   0.0000       0.193931         5.2771

MULLIKEN ATOMIC CHARGES
-----------------------
   0 C :   -0.000476
   1 O :   -0.000260
   2 H :   -0.000096
   3 H :   -0.000382
   4 H :    0.000013
   5 H :    0.000075
   6 C :   -0.176929
   7 O :   -0.487279
   8 H :    0.322718
   9 H :    0.106991
  10 H :    0.106130
  11 H :    0.129496
Sum of atomic charges:    0.0000000

LOEWDIN ATOMIC CHARGES
----------------------
   0 C :   -0.001189
   1 O :   -0.001086
   2 H :   -0.000126
   3 H :   -0.000545
   4 H :   -0.000026
   5 H :   -0.000015
   6 C :   -0.384468
   7 O :   -0.087754
   8 H :    0.172285
   9 H :    0.094467
  10 H :    0.098578
  11 H :    0.109879

  Mayer bond orders larger than 0.1
B(  6-C ,  7-O ) :   0.9873 B(  6-C ,  9-H ) :   0.9769 B(  6-C , 10-H ) :   0.9822
B(  6-C , 11-H ) :   0.9689 B(  7-O ,  8-H ) :   0.8907

Dispersion correction           -0.000267075
FINAL SINGLE POINT ENERGY      -115.727899181889

DIPOLE MOMENT
-------------
                                X             Y             Z
Electronic contribution:      1.81992       0.26228       0.64219
Nuclear contribution   :     -2.08020      -0.16282      -1.25891
                        -----------------------------------------
Total Dipole Moment    :     -0.26028       0.09945      -0.61671
                        -----------------------------------------
Magnitude (a.u.)       :      0.67674
Magnitude (Debye)      :      1.72013

Rotational constants in cm-1:     4.565972     0.800397     0.773425
Rotational constants in MHz : 136884.400373 23995.305398 23186.710060

                             ****ORCA TERMINATED NORMALLY****
TOTAL RUN TIME: 0 days 0 hours 1 minutes 1 seconds 86 msec
