                         Program Version 4.1.2  - RELEASE  -
|  1> #Run DFT-D3 single point of the dimer
|  2> ! wB97X-D3 def2-TZVP TIGHTSCF CHELPG PMODEL PAL8
|  3>
|  4> %base "12-74_DFT_AB"
|  5>
|  6> %scf
|  7> MaxIter 1000
|  8> end
|  9>
| 10> * xyz 0 1
| 11>   C                      7.095750             3.934989             5.712976
| 12>   O                      8.233398             3.019336             5.783510
| 13>   H                      8.730311             3.165655             4.956165
| 14>   H                      6.340234             3.723684             6.452433
| 15>   H                      7.425371             4.894638             6.015371
| 16>   H                      6.636750             3.988568             4.765022
| 17>   C                      5.018682             3.647154             2.266529
| 18>   O                      4.344760             3.389571             1.100863
| 19>   H                      3.404297             3.200617             1.319677
| 20>   H                      5.043372             2.728457             2.908457
| 21>   H                      6.070344             3.937796             2.139085
| 22>   H                      4.514807             4.440137             2.832299
| 23> *
| 24>
| 25> #Run DFT-D3 single point of the molecule with dimer basis set
| 26> $new_job
| 27> %base "12-74_DFT_A"
| 28> ! wB97X-D3 def2-TZVP TIGHTSCF CHELPG PMODEL
| 29>
| 30> %scf
| 31> MaxIter 1000
| 32> end
| 33>
| 34> * xyz 0 1
| 35>   C                      7.095750             3.934989             5.712976
| 36>   O                      8.233398             3.019336             5.783510
| 37>   H                      8.730311             3.165655             4.956165
| 38>   H                      6.340234             3.723684             6.452433
| 39>   H                      7.425371             4.894638             6.015371
| 40>   H                      6.636750             3.988568             4.765022
| 41>   C                    : 5.018682             3.647154             2.266529
| 42>   O                    : 4.344760             3.389571             1.100863
| 43>   H                    : 3.404297             3.200617             1.319677
| 44>   H                    : 5.043372             2.728457             2.908457
| 45>   H                    : 6.070344             3.937796             2.139085
| 46>   H                    : 4.514807             4.440137             2.832299
| 47> *
| 48>
| 49> #Run DFT-D3 single point of the particle with dimer basis set
| 50> $new_job
| 51> %base "12-74_DFT_B"
| 52> ! wB97X-D3 def2-TZVP TIGHTSCF CHELPG PMODEL
| 53>
| 54> %scf
| 55> MaxIter 1000
| 56> end
| 57>
| 58> * xyz 0 1
| 59>   C                    : 7.095750             3.934989             5.712976
| 60>   O                    : 8.233398             3.019336             5.783510
| 61>   H                    : 8.730311             3.165655             4.956165
| 62>   H                    : 6.340234             3.723684             6.452433
| 63>   H                    : 7.425371             4.894638             6.015371
| 64>   H                    : 6.636750             3.988568             4.765022
| 65>   C                      5.018682             3.647154             2.266529
| 66>   O                      4.344760             3.389571             1.100863
| 67>   H                      3.404297             3.200617             1.319677
| 68>   H                      5.043372             2.728457             2.908457
| 69>   H                      6.070344             3.937796             2.139085
| 70>   H                      4.514807             4.440137             2.832299
| 71> *
| 72>
| 73>                          ****END OF INPUT****
 Total Charge           Charge          ....    0
 Multiplicity           Mult            ....    1
 Number of Electrons    NEL             ....   36
Dispersion correction           -0.001339649
FINAL SINGLE POINT ENERGY      -231.465012214322
Dispersion correction           -0.000247378
FINAL SINGLE POINT ENERGY      -115.730931929205

CARTESIAN COORDINATES (ANGSTROEM)
---------------------------------
  C      7.095750    3.934989    5.712976
  O      8.233398    3.019336    5.783510
  H      8.730311    3.165655    4.956165
  H      6.340234    3.723684    6.452433
  H      7.425371    4.894638    6.015371
  H      6.636750    3.988568    4.765022
  C      5.018682    3.647154    2.266529
  O      4.344760    3.389571    1.100863
  H      3.404297    3.200617    1.319677
  H      5.043372    2.728457    2.908457
  H      6.070344    3.937796    2.139085
  H      4.514807    4.440137    2.832299

 Multiplicity           Mult            ....    1
 Number of Electrons    NEL             ....   18
 Basis Dimension        Dim             ....  172

ORBITAL ENERGIES
----------------

  NO   OCC          E(Eh)            E(eV)
   0   2.0000     -19.231895      -523.3265
   1   2.0000     -10.313019      -280.6315
   2   2.0000      -1.146199       -31.1897
   3   2.0000      -0.789133       -21.4734
   4   2.0000      -0.615038       -16.7360
   5   2.0000      -0.544527       -14.8173
   6   2.0000      -0.536188       -14.5904
   7   2.0000      -0.426623       -11.6090
   8   2.0000      -0.368361       -10.0236
   9   0.0000       0.083481         2.2716
  10   0.0000       0.112210         3.0534
  11   0.0000       0.154719         4.2101
  12   0.0000       0.159646         4.3442
  13   0.0000       0.185793         5.0557

MULLIKEN ATOMIC CHARGES
-----------------------
   0 C :   -0.001117
   1 O :    0.000062
   2 H :   -0.000021
   3 H :   -0.000039
   4 H :    0.000016
   5 H :    0.001791
   6 C :   -0.163341
   7 O :   -0.468340
   8 H :    0.322372
   9 H :    0.092193
  10 H :    0.119994
  11 H :    0.096430
Sum of atomic charges:    0.0000000

LOEWDIN ATOMIC CHARGES
----------------------
   0 C :   -0.001351
   1 O :   -0.000008
   2 H :   -0.000028
   3 H :   -0.000029
   4 H :   -0.000007
   5 H :   -0.002426
   6 C :   -0.426863
   7 O :   -0.056500
   8 H :    0.189101
   9 H :    0.096068
  10 H :    0.109262
  11 H :    0.092779

  Mayer bond orders larger than 0.1
B(  6-C ,  7-O ) :   1.0109 B(  6-C ,  9-H ) :   0.9790 B(  6-C , 10-H ) :   0.9685
B(  6-C , 11-H ) :   0.9801 B(  7-O ,  8-H ) :   0.8891

Dispersion correction           -0.000223990
FINAL SINGLE POINT ENERGY      -115.733510195715

DIPOLE MOMENT
-------------
                                X             Y             Z
Electronic contribution:     -0.73971      -0.26134      -1.72778
Nuclear contribution   :      0.40378       0.24992       2.28491
                        -----------------------------------------
Total Dipole Moment    :     -0.33593      -0.01142       0.55713
                        -----------------------------------------
Magnitude (a.u.)       :      0.65067
Magnitude (Debye)      :      1.65387

Rotational constants in cm-1:     4.245507     0.865911     0.834439
Rotational constants in MHz : 127277.083443 25959.347673 25015.852202

                             ****ORCA TERMINATED NORMALLY****
TOTAL RUN TIME: 0 days 0 hours 1 minutes 7 seconds 22 msec
