                         Program Version 4.1.2  - RELEASE  -
|  1> #Run DFT-D3 single point of the dimer
|  2> ! wB97X-D3 def2-TZVP TIGHTSCF CHELPG PMODEL PAL8
|  3>
|  4> %base "21-98_DFT_AB"
|  5>
|  6> %scf
|  7> MaxIter 1000
|  8> end
|  9>
| 10> * xyz 0 1
| 11>   C                      -9.935633            -1.088503            1.284899
| 12>   O                      -11.033869           -1.960237            1.345496
| 13>   H                      -11.887862           -1.623931            1.666152
| 14>   H                      -8.996411            -1.368978            1.817904
| 15>   H                      -9.676983            -0.896278            0.194077
| 16>   H                      -10.219109           -0.076535            1.690126
| 17>   C                      -7.636382            2.344616             4.192458
| 18>   O                      -6.453534            2.105180             4.947122
| 19>   H                      -6.202331            2.949047             5.289194
| 20>   H                      -8.470495            2.421654             4.892306
| 21>   H                      -7.650019            3.244742             3.613226
| 22>   H                      -7.911625            1.543454             3.565426
| 23> *
| 24>
| 25> #Run DFT-D3 single point of the molecule with dimer basis set
| 26> $new_job
| 27> %base "21-98_DFT_A"
| 28> ! wB97X-D3 def2-TZVP TIGHTSCF CHELPG PMODEL
| 29>
| 30> %scf
| 31> MaxIter 1000
| 32> end
| 33>
| 34> * xyz 0 1
| 35>   C                      -9.935633            -1.088503            1.284899
| 36>   O                      -11.033869           -1.960237            1.345496
| 37>   H                      -11.887862           -1.623931            1.666152
| 38>   H                      -8.996411            -1.368978            1.817904
| 39>   H                      -9.676983            -0.896278            0.194077
| 40>   H                      -10.219109           -0.076535            1.690126
| 41>   C                    : -7.636382            2.344616             4.192458
| 42>   O                    : -6.453534            2.105180             4.947122
| 43>   H                    : -6.202331            2.949047             5.289194
| 44>   H                    : -8.470495            2.421654             4.892306
| 45>   H                    : -7.650019            3.244742             3.613226
| 46>   H                    : -7.911625            1.543454             3.565426
| 47> *
| 48>
| 49> #Run DFT-D3 single point of the particle with dimer basis set
| 50> $new_job
| 51> %base "21-98_DFT_B"
| 52> ! wB97X-D3 def2-TZVP TIGHTSCF CHELPG PMODEL
| 53>
| 54> %scf
| 55> MaxIter 1000
| 56> end
| 57>
| 58> * xyz 0 1
| 59>   C                    : -9.935633            -1.088503            1.284899
| 60>   O                    : -11.033869           -1.960237            1.345496
| 61>   H                    : -11.887862           -1.623931            1.666152
| 62>   H                    : -8.996411            -1.368978            1.817904
| 63>   H                    : -9.676983            -0.896278            0.194077
| 64>   H                    : -10.219109           -0.076535            1.690126
| 65>   C                      -7.636382            2.344616             4.192458
| 66>   O                      -6.453534            2.105180             4.947122
| 67>   H                      -6.202331            2.949047             5.289194
| 68>   H                      -8.470495            2.421654             4.892306
| 69>   H                      -7.650019            3.244742             3.613226
| 70>   H                      -7.911625            1.543454             3.565426
| 71> *
| 72>
| 73>                          ****END OF INPUT****
 Total Charge           Charge          ....    0
 Multiplicity           Mult            ....    1
 Number of Electrons    NEL             ....   36
Dispersion correction           -0.000839596
FINAL SINGLE POINT ENERGY      -231.461012933154
Dispersion correction           -0.000280027
FINAL SINGLE POINT ENERGY      -115.728052495773

CARTESIAN COORDINATES (ANGSTROEM)
---------------------------------
  C     -9.935633   -1.088503    1.284899
  O    -11.033869   -1.960237    1.345496
  H    -11.887862   -1.623931    1.666152
  H     -8.996411   -1.368978    1.817904
  H     -9.676983   -0.896278    0.194077
  H    -10.219109   -0.076535    1.690126
  C     -7.636382    2.344616    4.192458
  O     -6.453534    2.105180    4.947122
  H     -6.202331    2.949047    5.289194
  H     -8.470495    2.421654    4.892306
  H     -7.650019    3.244742    3.613226
  H     -7.911625    1.543454    3.565426

 Multiplicity           Mult            ....    1
 Number of Electrons    NEL             ....   18
 Basis Dimension        Dim             ....  172

ORBITAL ENERGIES
----------------

  NO   OCC          E(Eh)            E(eV)
   0   2.0000     -19.230160      -523.2793
   1   2.0000     -10.306693      -280.4594
   2   2.0000      -1.138208       -30.9722
   3   2.0000      -0.803144       -21.8546
   4   2.0000      -0.613026       -16.6813
   5   2.0000      -0.537566       -14.6279
   6   2.0000      -0.533771       -14.5247
   7   2.0000      -0.442682       -12.0460
   8   2.0000      -0.372660       -10.1406
   9   0.0000       0.083888         2.2827
  10   0.0000       0.118116         3.2141
  11   0.0000       0.144372         3.9286
  12   0.0000       0.166752         4.5376
  13   0.0000       0.191711         5.2167

MULLIKEN ATOMIC CHARGES
-----------------------
   0 C :   -0.000085
   1 O :    0.000001
   2 H :   -0.000000
   3 H :   -0.000026
   4 H :   -0.000000
   5 H :    0.000005
   6 C :   -0.173342
   7 O :   -0.471378
   8 H :    0.312937
   9 H :    0.098059
  10 H :    0.107303
  11 H :    0.126527
Sum of atomic charges:    0.0000000

LOEWDIN ATOMIC CHARGES
----------------------
   0 C :   -0.000306
   1 O :   -0.000004
   2 H :   -0.000000
   3 H :   -0.000127
   4 H :   -0.000002
   5 H :   -0.000211
   6 C :   -0.373055
   7 O :   -0.074470
   8 H :    0.160440
   9 H :    0.096302
  10 H :    0.091684
  11 H :    0.099750

  Mayer bond orders larger than 0.1
B(  6-C ,  7-O ) :   1.0014 B(  6-C ,  9-H ) :   0.9843 B(  6-C , 10-H ) :   0.9755
B(  6-C , 11-H ) :   0.9741 B(  7-O ,  8-H ) :   0.9039

Dispersion correction           -0.000232863
FINAL SINGLE POINT ENERGY      -115.732751882754

DIPOLE MOMENT
-------------
                                X             Y             Z
Electronic contribution:      1.62962      -0.45750       0.82457
Nuclear contribution   :     -1.95267       1.08656      -0.92462
                        -----------------------------------------
Total Dipole Moment    :     -0.32305       0.62906      -0.10005
                        -----------------------------------------
Magnitude (a.u.)       :      0.71421
Magnitude (Debye)      :      1.81537

Rotational constants in cm-1:     4.528845     0.824366     0.794528
Rotational constants in MHz : 135771.360870 24713.872713 23819.350389

                             ****ORCA TERMINATED NORMALLY****
TOTAL RUN TIME: 0 days 0 hours 0 minutes 44 seconds 319 msec
