                         Program Version 4.1.2  - RELEASE  -
|  1> #Run DFT-D3 single point of the dimer
|  2> ! wB97X-D3 def2-TZVP TIGHTSCF CHELPG PMODEL PAL8
|  3>
|  4> %base "10-141_DFT_AB"
|  5>
|  6> %scf
|  7> MaxIter 1000
|  8> end
|  9>
| 10> * xyz 0 1
| 11>   C                      -3.729851            3.038293             4.185323
| 12>   O                      -3.523052            2.471416             5.433180
| 13>   H                      -4.135422            2.762021             6.113348
| 14>   H                      -4.740345            3.461552             4.070275
| 15>   H                      -3.093136            3.884884             4.062776
| 16>   H                      -3.567683            2.320354             3.352861
| 17>   C                      -3.872528            2.001226             10.864595
| 18>   O                      -3.736998            1.696973             9.499086
| 19>   H                      -3.554987            0.750151             9.587223
| 20>   H                      -4.390555            1.165372             11.388547
| 21>   H                      -3.011502            2.207887             11.433390
| 22>   H                      -4.542137            2.906519             11.106688
| 23> *
| 24>
| 25> #Run DFT-D3 single point of the molecule with dimer basis set
| 26> $new_job
| 27> %base "10-141_DFT_A"
| 28> ! wB97X-D3 def2-TZVP TIGHTSCF CHELPG PMODEL
| 29>
| 30> %scf
| 31> MaxIter 1000
| 32> end
| 33>
| 34> * xyz 0 1
| 35>   C                      -3.729851            3.038293             4.185323
| 36>   O                      -3.523052            2.471416             5.433180
| 37>   H                      -4.135422            2.762021             6.113348
| 38>   H                      -4.740345            3.461552             4.070275
| 39>   H                      -3.093136            3.884884             4.062776
| 40>   H                      -3.567683            2.320354             3.352861
| 41>   C                    : -3.872528            2.001226             10.864595
| 42>   O                    : -3.736998            1.696973             9.499086
| 43>   H                    : -3.554987            0.750151             9.587223
| 44>   H                    : -4.390555            1.165372             11.388547
| 45>   H                    : -3.011502            2.207887             11.433390
| 46>   H                    : -4.542137            2.906519             11.106688
| 47> *
| 48>
| 49> #Run DFT-D3 single point of the particle with dimer basis set
| 50> $new_job
| 51> %base "10-141_DFT_B"
| 52> ! wB97X-D3 def2-TZVP TIGHTSCF CHELPG PMODEL
| 53>
| 54> %scf
| 55> MaxIter 1000
| 56> end
| 57>
| 58> * xyz 0 1
| 59>   C                    : -3.729851            3.038293             4.185323
| 60>   O                    : -3.523052            2.471416             5.433180
| 61>   H                    : -4.135422            2.762021             6.113348
| 62>   H                    : -4.740345            3.461552             4.070275
| 63>   H                    : -3.093136            3.884884             4.062776
| 64>   H                    : -3.567683            2.320354             3.352861
| 65>   C                      -3.872528            2.001226             10.864595
| 66>   O                      -3.736998            1.696973             9.499086
| 67>   H                      -3.554987            0.750151             9.587223
| 68>   H                      -4.390555            1.165372             11.388547
| 69>   H                      -3.011502            2.207887             11.433390
| 70>   H                      -4.542137            2.906519             11.106688
| 71> *
| 72>
| 73>                          ****END OF INPUT****
 Total Charge           Charge          ....    0
 Multiplicity           Mult            ....    1
 Number of Electrons    NEL             ....   36
Dispersion correction           -0.000739168
FINAL SINGLE POINT ENERGY      -231.460793666726
Dispersion correction           -0.000246681
FINAL SINGLE POINT ENERGY      -115.733214624775

CARTESIAN COORDINATES (ANGSTROEM)
---------------------------------
  C     -3.729851    3.038293    4.185323
  O     -3.523052    2.471416    5.433180
  H     -4.135422    2.762021    6.113348
  H     -4.740345    3.461552    4.070275
  H     -3.093136    3.884884    4.062776
  H     -3.567683    2.320354    3.352861
  C     -3.872528    2.001226   10.864595
  O     -3.736998    1.696973    9.499086
  H     -3.554987    0.750151    9.587223
  H     -4.390555    1.165372   11.388547
  H     -3.011502    2.207887   11.433390
  H     -4.542137    2.906519   11.106688

 Multiplicity           Mult            ....    1
 Number of Electrons    NEL             ....   18
 Basis Dimension        Dim             ....  172

ORBITAL ENERGIES
----------------

  NO   OCC          E(Eh)            E(eV)
   0   2.0000     -19.239671      -523.5381
   1   2.0000     -10.316995      -280.7397
   2   2.0000      -1.147656       -31.2293
   3   2.0000      -0.791487       -21.5375
   4   2.0000      -0.613631       -16.6977
   5   2.0000      -0.546235       -14.8638
   6   2.0000      -0.526424       -14.3247
   7   2.0000      -0.434753       -11.8302
   8   2.0000      -0.378492       -10.2993
   9   0.0000       0.094830         2.5804
  10   0.0000       0.110802         3.0151
  11   0.0000       0.148171         4.0319
  12   0.0000       0.178905         4.8683
  13   0.0000       0.198047         5.3891

MULLIKEN ATOMIC CHARGES
-----------------------
   0 C :    0.000077
   1 O :    0.000015
   2 H :   -0.001667
   3 H :   -0.000004
   4 H :   -0.000006
   5 H :    0.000002
   6 C :   -0.194593
   7 O :   -0.445858
   8 H :    0.319586
   9 H :    0.100653
  10 H :    0.110022
  11 H :    0.111774
Sum of atomic charges:   -0.0000000

LOEWDIN ATOMIC CHARGES
----------------------
   0 C :   -0.000007
   1 O :   -0.000127
   2 H :   -0.001185
   3 H :   -0.000001
   4 H :   -0.000000
   5 H :   -0.000000
   6 C :   -0.413006
   7 O :   -0.067290
   8 H :    0.184054
   9 H :    0.098682
  10 H :    0.083346
  11 H :    0.115535

  Mayer bond orders larger than 0.1
B(  6-C ,  7-O ) :   1.0105 B(  6-C ,  9-H ) :   0.9897 B(  6-C , 10-H ) :   0.9636
B(  6-C , 11-H ) :   0.9750 B(  7-O ,  8-H ) :   0.8989

Dispersion correction           -0.000239851
FINAL SINGLE POINT ENERGY      -115.726327029711

DIPOLE MOMENT
-------------
                                X             Y             Z
Electronic contribution:      0.32819      -0.24615      -2.02503
Nuclear contribution   :     -0.26038      -0.23129       2.59565
                        -----------------------------------------
Total Dipole Moment    :      0.06781      -0.47744       0.57062
                        -----------------------------------------
Magnitude (a.u.)       :      0.74710
Magnitude (Debye)      :      1.89898

Rotational constants in cm-1:     4.333807     0.834951     0.797746
Rotational constants in MHz : 129924.274066 25031.215919 23915.838350

                             ****ORCA TERMINATED NORMALLY****
TOTAL RUN TIME: 0 days 0 hours 1 minutes 4 seconds 291 msec
