                         Program Version 4.1.2  - RELEASE  -
|  1> #Run DFT-D3 single point of the dimer
|  2> ! wB97X-D3 def2-TZVP TIGHTSCF CHELPG PMODEL PAL8
|  3>
|  4> %base "17-108_DFT_AB"
|  5>
|  6> %scf
|  7> MaxIter 1000
|  8> end
|  9>
| 10> * xyz 0 1
| 11>   C                      3.179179             -10.939931           3.485136
| 12>   O                      3.246952             -11.712566           2.378431
| 13>   H                      4.017949             -11.518141           1.825070
| 14>   H                      3.999599             -11.078683           4.177273
| 15>   H                      3.185205             -9.884947            3.229160
| 16>   H                      2.258283             -11.102446           4.065731
| 17>   C                      2.761676             -6.208087            3.528277
| 18>   O                      3.031626             -7.417651            2.918432
| 19>   H                      2.459564             -7.478778            2.192738
| 20>   H                      3.046349             -6.231249            4.572474
| 21>   H                      3.447008             -5.440362            3.205289
| 22>   H                      1.725867             -5.883107            3.328720
| 23> *
| 24>
| 25> #Run DFT-D3 single point of the molecule with dimer basis set
| 26> $new_job
| 27> %base "17-108_DFT_A"
| 28> ! wB97X-D3 def2-TZVP TIGHTSCF CHELPG PMODEL
| 29>
| 30> %scf
| 31> MaxIter 1000
| 32> end
| 33>
| 34> * xyz 0 1
| 35>   C                      3.179179             -10.939931           3.485136
| 36>   O                      3.246952             -11.712566           2.378431
| 37>   H                      4.017949             -11.518141           1.825070
| 38>   H                      3.999599             -11.078683           4.177273
| 39>   H                      3.185205             -9.884947            3.229160
| 40>   H                      2.258283             -11.102446           4.065731
| 41>   C                    : 2.761676             -6.208087            3.528277
| 42>   O                    : 3.031626             -7.417651            2.918432
| 43>   H                    : 2.459564             -7.478778            2.192738
| 44>   H                    : 3.046349             -6.231249            4.572474
| 45>   H                    : 3.447008             -5.440362            3.205289
| 46>   H                    : 1.725867             -5.883107            3.328720
| 47> *
| 48>
| 49> #Run DFT-D3 single point of the particle with dimer basis set
| 50> $new_job
| 51> %base "17-108_DFT_B"
| 52> ! wB97X-D3 def2-TZVP TIGHTSCF CHELPG PMODEL
| 53>
| 54> %scf
| 55> MaxIter 1000
| 56> end
| 57>
| 58> * xyz 0 1
| 59>   C                    : 3.179179             -10.939931           3.485136
| 60>   O                    : 3.246952             -11.712566           2.378431
| 61>   H                    : 4.017949             -11.518141           1.825070
| 62>   H                    : 3.999599             -11.078683           4.177273
| 63>   H                    : 3.185205             -9.884947            3.229160
| 64>   H                    : 2.258283             -11.102446           4.065731
| 65>   C                      2.761676             -6.208087            3.528277
| 66>   O                      3.031626             -7.417651            2.918432
| 67>   H                      2.459564             -7.478778            2.192738
| 68>   H                      3.046349             -6.231249            4.572474
| 69>   H                      3.447008             -5.440362            3.205289
| 70>   H                      1.725867             -5.883107            3.328720
| 71> *
| 72>
| 73>                          ****END OF INPUT****
 Total Charge           Charge          ....    0
 Multiplicity           Mult            ....    1
 Number of Electrons    NEL             ....   36
Dispersion correction           -0.001252350
FINAL SINGLE POINT ENERGY      -231.465811018953
Dispersion correction           -0.000227750
FINAL SINGLE POINT ENERGY      -115.733443624759

CARTESIAN COORDINATES (ANGSTROEM)
---------------------------------
  C      3.179179  -10.939931    3.485136
  O      3.246952  -11.712566    2.378431
  H      4.017949  -11.518141    1.825070
  H      3.999599  -11.078683    4.177273
  H      3.185205   -9.884947    3.229160
  H      2.258283  -11.102446    4.065731
  C      2.761676   -6.208087    3.528277
  O      3.031626   -7.417651    2.918432
  H      2.459564   -7.478778    2.192738
  H      3.046349   -6.231249    4.572474
  H      3.447008   -5.440362    3.205289
  H      1.725867   -5.883107    3.328720

 Multiplicity           Mult            ....    1
 Number of Electrons    NEL             ....   18
 Basis Dimension        Dim             ....  172

ORBITAL ENERGIES
----------------

  NO   OCC          E(Eh)            E(eV)
   0   2.0000     -19.227693      -523.2121
   1   2.0000     -10.308751      -280.5154
   2   2.0000      -1.155235       -31.4355
   3   2.0000      -0.799702       -21.7610
   4   2.0000      -0.621661       -16.9163
   5   2.0000      -0.550181       -14.9712
   6   2.0000      -0.531014       -14.4496
   7   2.0000      -0.439349       -11.9553
   8   2.0000      -0.368493       -10.0272
   9   0.0000       0.097018         2.6400
  10   0.0000       0.122056         3.3213
  11   0.0000       0.159163         4.3310
  12   0.0000       0.172816         4.7026
  13   0.0000       0.197334         5.3697

MULLIKEN ATOMIC CHARGES
-----------------------
   0 C :    0.002297
   1 O :   -0.000042
   2 H :   -0.000083
   3 H :   -0.000550
   4 H :   -0.011056
   5 H :   -0.000049
   6 C :   -0.162255
   7 O :   -0.448439
   8 H :    0.310672
   9 H :    0.115963
  10 H :    0.094927
  11 H :    0.098616
Sum of atomic charges:   -0.0000000

LOEWDIN ATOMIC CHARGES
----------------------
   0 C :   -0.004836
   1 O :   -0.000030
   2 H :   -0.000013
   3 H :   -0.000084
   4 H :   -0.013459
   5 H :   -0.000120
   6 C :   -0.407261
   7 O :   -0.021855
   8 H :    0.152075
   9 H :    0.105078
  10 H :    0.091821
  11 H :    0.098684

  Mayer bond orders larger than 0.1
B(  6-C ,  7-O ) :   1.0079 B(  6-C ,  9-H ) :   0.9805 B(  6-C , 10-H ) :   0.9732
B(  6-C , 11-H ) :   0.9839 B(  7-O ,  8-H ) :   0.9053

Dispersion correction           -0.000222216
FINAL SINGLE POINT ENERGY      -115.730908559431

DIPOLE MOMENT
-------------
                                X             Y             Z
Electronic contribution:      0.34531      -1.66014      -0.71022
Nuclear contribution   :     -0.80539       2.09262       0.47109
                        -----------------------------------------
Total Dipole Moment    :     -0.46008       0.43249      -0.23913
                        -----------------------------------------
Magnitude (a.u.)       :      0.67521
Magnitude (Debye)      :      1.71624

Rotational constants in cm-1:     4.401802     0.876002     0.828442
Rotational constants in MHz : 131962.718582 26261.867456 24836.065048

                             ****ORCA TERMINATED NORMALLY****
TOTAL RUN TIME: 0 days 0 hours 1 minutes 0 seconds 505 msec
