                         Program Version 4.1.2  - RELEASE  -
|  1> #Run DFT-D3 single point of the dimer
|  2> ! wB97X-D3 def2-TZVP TIGHTSCF CHELPG PMODEL PAL8
|  3>
|  4> %base "8-97_DFT_AB"
|  5>
|  6> %scf
|  7> MaxIter 1000
|  8> end
|  9>
| 10> * xyz 0 1
| 11>   C                      -5.195719            -0.427144            9.365506
| 12>   O                      -6.124433            -1.080566            10.163934
| 13>   H                      -6.539004            -1.747450            9.631112
| 14>   H                      -5.596017            -0.049719            8.423426
| 15>   H                      -4.831508            0.366167             9.977338
| 16>   H                      -4.342301            -1.112926            9.156067
| 17>   C                      -6.923567            -5.166898            10.063239
| 18>   O                      -5.847240            -4.952195            10.936113
| 19>   H                      -5.114193            -4.818601            10.339546
| 20>   H                      -7.744408            -5.654483            10.533506
| 21>   H                      -7.218197            -4.328937            9.486715
| 22>   H                      -6.503203            -5.832648            9.320677
| 23> *
| 24>
| 25> #Run DFT-D3 single point of the molecule with dimer basis set
| 26> $new_job
| 27> %base "8-97_DFT_A"
| 28> ! wB97X-D3 def2-TZVP TIGHTSCF CHELPG PMODEL
| 29>
| 30> %scf
| 31> MaxIter 1000
| 32> end
| 33>
| 34> * xyz 0 1
| 35>   C                      -5.195719            -0.427144            9.365506
| 36>   O                      -6.124433            -1.080566            10.163934
| 37>   H                      -6.539004            -1.747450            9.631112
| 38>   H                      -5.596017            -0.049719            8.423426
| 39>   H                      -4.831508            0.366167             9.977338
| 40>   H                      -4.342301            -1.112926            9.156067
| 41>   C                    : -6.923567            -5.166898            10.063239
| 42>   O                    : -5.847240            -4.952195            10.936113
| 43>   H                    : -5.114193            -4.818601            10.339546
| 44>   H                    : -7.744408            -5.654483            10.533506
| 45>   H                    : -7.218197            -4.328937            9.486715
| 46>   H                    : -6.503203            -5.832648            9.320677
| 47> *
| 48>
| 49> #Run DFT-D3 single point of the particle with dimer basis set
| 50> $new_job
| 51> %base "8-97_DFT_B"
| 52> ! wB97X-D3 def2-TZVP TIGHTSCF CHELPG PMODEL
| 53>
| 54> %scf
| 55> MaxIter 1000
| 56> end
| 57>
| 58> * xyz 0 1
| 59>   C                    : -5.195719            -0.427144            9.365506
| 60>   O                    : -6.124433            -1.080566            10.163934
| 61>   H                    : -6.539004            -1.747450            9.631112
| 62>   H                    : -5.596017            -0.049719            8.423426
| 63>   H                    : -4.831508            0.366167             9.977338
| 64>   H                    : -4.342301            -1.112926            9.156067
| 65>   C                      -6.923567            -5.166898            10.063239
| 66>   O                      -5.847240            -4.952195            10.936113
| 67>   H                      -5.114193            -4.818601            10.339546
| 68>   H                      -7.744408            -5.654483            10.533506
| 69>   H                      -7.218197            -4.328937            9.486715
| 70>   H                      -6.503203            -5.832648            9.320677
| 71> *
| 72>
| 73>                          ****END OF INPUT****
 Total Charge           Charge          ....    0
 Multiplicity           Mult            ....    1
 Number of Electrons    NEL             ....   36
Dispersion correction           -0.001212600
FINAL SINGLE POINT ENERGY      -231.464347904869
Dispersion correction           -0.000220311
FINAL SINGLE POINT ENERGY      -115.735730836628

CARTESIAN COORDINATES (ANGSTROEM)
---------------------------------
  C     -5.195719   -0.427144    9.365506
  O     -6.124433   -1.080566   10.163934
  H     -6.539004   -1.747450    9.631112
  H     -5.596017   -0.049719    8.423426
  H     -4.831508    0.366167    9.977338
  H     -4.342301   -1.112926    9.156067
  C     -6.923567   -5.166898   10.063239
  O     -5.847240   -4.952195   10.936113
  H     -5.114193   -4.818601   10.339546
  H     -7.744408   -5.654483   10.533506
  H     -7.218197   -4.328937    9.486715
  H     -6.503203   -5.832648    9.320677

 Multiplicity           Mult            ....    1
 Number of Electrons    NEL             ....   18
 Basis Dimension        Dim             ....  172

ORBITAL ENERGIES
----------------

  NO   OCC          E(Eh)            E(eV)
   0   2.0000     -19.228794      -523.2421
   1   2.0000     -10.303812      -280.3810
   2   2.0000      -1.144603       -31.1462
   3   2.0000      -0.798413       -21.7259
   4   2.0000      -0.617409       -16.8005
   5   2.0000      -0.544514       -14.8170
   6   2.0000      -0.536119       -14.5885
   7   2.0000      -0.440031       -11.9738
   8   2.0000      -0.370139       -10.0720
   9   0.0000       0.081785         2.2255
  10   0.0000       0.118322         3.2197
  11   0.0000       0.154959         4.2166
  12   0.0000       0.172834         4.7030
  13   0.0000       0.194486         5.2922

MULLIKEN ATOMIC CHARGES
-----------------------
   0 C :   -0.000109
   1 O :   -0.000283
   2 H :    0.000889
   3 H :   -0.000001
   4 H :    0.000019
   5 H :   -0.000231
   6 C :   -0.171007
   7 O :   -0.464687
   8 H :    0.313182
   9 H :    0.123707
  10 H :    0.100226
  11 H :    0.098297
Sum of atomic charges:   -0.0000000

LOEWDIN ATOMIC CHARGES
----------------------
   0 C :   -0.000172
   1 O :   -0.000402
   2 H :   -0.001577
   3 H :   -0.000002
   4 H :   -0.000001
   5 H :   -0.000096
   6 C :   -0.385660
   7 O :   -0.066662
   8 H :    0.169641
   9 H :    0.102281
  10 H :    0.086289
  11 H :    0.096361

  Mayer bond orders larger than 0.1
B(  6-C ,  7-O ) :   0.9994 B(  6-C ,  9-H ) :   0.9754 B(  6-C , 10-H ) :   0.9647
B(  6-C , 11-H ) :   1.0030 B(  7-O ,  8-H ) :   0.9039

Dispersion correction           -0.000200120
FINAL SINGLE POINT ENERGY      -115.729317522587

DIPOLE MOMENT
-------------
                                X             Y             Z
Electronic contribution:      1.13870       0.35777       1.37627
Nuclear contribution   :     -1.09551      -0.37373      -2.09837
                        -----------------------------------------
Total Dipole Moment    :      0.04319      -0.01596      -0.72210
                        -----------------------------------------
Magnitude (a.u.)       :      0.72356
Magnitude (Debye)      :      1.83915

Rotational constants in cm-1:     4.423999     0.862110     0.821428
Rotational constants in MHz : 132628.166176 25845.395631 24625.783637

                             ****ORCA TERMINATED NORMALLY****
TOTAL RUN TIME: 0 days 0 hours 0 minutes 34 seconds 588 msec
