                         Program Version 4.1.2  - RELEASE  -
|  1> #Run DFT-D3 single point of the dimer
|  2> ! wB97X-D3 def2-TZVP TIGHTSCF CHELPG PMODEL PAL8
|  3>
|  4> %base "1-112_DFT_AB"
|  5>
|  6> %scf
|  7> MaxIter 1000
|  8> end
|  9>
| 10> * xyz 0 1
| 11>   C                      4.888409             3.253564             1.564337
| 12>   O                      3.677006             2.583596             1.661210
| 13>   H                      3.206091             3.184549             2.313653
| 14>   H                      4.815171             4.370015             1.276239
| 15>   H                      5.420325             3.232220             2.517922
| 16>   H                      5.548820             2.761538             0.826897
| 17>   C                      4.084307             2.905663             -1.131637
| 18>   O                      2.690844             3.091497             -1.427230
| 19>   H                      2.283715             2.918009             -0.586846
| 20>   H                      4.691900             2.980177             -2.059033
| 21>   H                      4.424294             3.604252             -0.342808
| 22>   H                      4.175476             1.870421             -0.749583
| 23> *
| 24>
| 25> #Run DFT-D3 single point of the molecule with dimer basis set
| 26> $new_job
| 27> %base "1-112_DFT_A"
| 28> ! wB97X-D3 def2-TZVP TIGHTSCF CHELPG PMODEL
| 29>
| 30> %scf
| 31> MaxIter 1000
| 32> end
| 33>
| 34> * xyz 0 1
| 35>   C                      4.888409             3.253564             1.564337
| 36>   O                      3.677006             2.583596             1.661210
| 37>   H                      3.206091             3.184549             2.313653
| 38>   H                      4.815171             4.370015             1.276239
| 39>   H                      5.420325             3.232220             2.517922
| 40>   H                      5.548820             2.761538             0.826897
| 41>   C                    : 4.084307             2.905663             -1.131637
| 42>   O                    : 2.690844             3.091497             -1.427230
| 43>   H                    : 2.283715             2.918009             -0.586846
| 44>   H                    : 4.691900             2.980177             -2.059033
| 45>   H                    : 4.424294             3.604252             -0.342808
| 46>   H                    : 4.175476             1.870421             -0.749583
| 47> *
| 48>
| 49> #Run DFT-D3 single point of the particle with dimer basis set
| 50> $new_job
| 51> %base "1-112_DFT_B"
| 52> ! wB97X-D3 def2-TZVP TIGHTSCF CHELPG PMODEL
| 53>
| 54> %scf
| 55> MaxIter 1000
| 56> end
| 57>
| 58> * xyz 0 1
| 59>   C                    : 4.888409             3.253564             1.564337
| 60>   O                    : 3.677006             2.583596             1.661210
| 61>   H                    : 3.206091             3.184549             2.313653
| 62>   H                    : 4.815171             4.370015             1.276239
| 63>   H                    : 5.420325             3.232220             2.517922
| 64>   H                    : 5.548820             2.761538             0.826897
| 65>   C                      4.084307             2.905663             -1.131637
| 66>   O                      2.690844             3.091497             -1.427230
| 67>   H                      2.283715             2.918009             -0.586846
| 68>   H                      4.691900             2.980177             -2.059033
| 69>   H                      4.424294             3.604252             -0.342808
| 70>   H                      4.175476             1.870421             -0.749583
| 71> *
| 72>
| 73>                          ****END OF INPUT****
 Total Charge           Charge          ....    0
 Multiplicity           Mult            ....    1
 Number of Electrons    NEL             ....   36
Dispersion correction           -0.002315197
FINAL SINGLE POINT ENERGY      -231.454300757284
Dispersion correction           -0.000226900
FINAL SINGLE POINT ENERGY      -115.730748133239

CARTESIAN COORDINATES (ANGSTROEM)
---------------------------------
  C      4.888409    3.253564    1.564337
  O      3.677006    2.583596    1.661210
  H      3.206091    3.184549    2.313653
  H      4.815171    4.370015    1.276239
  H      5.420325    3.232220    2.517922
  H      5.548820    2.761538    0.826897
  C      4.084307    2.905663   -1.131637
  O      2.690844    3.091497   -1.427230
  H      2.283715    2.918009   -0.586846
  H      4.691900    2.980177   -2.059033
  H      4.424294    3.604252   -0.342808
  H      4.175476    1.870421   -0.749583

 Multiplicity           Mult            ....    1
 Number of Electrons    NEL             ....   18
 Basis Dimension        Dim             ....  172

ORBITAL ENERGIES
----------------

  NO   OCC          E(Eh)            E(eV)
   0   2.0000     -19.228955      -523.2465
   1   2.0000     -10.319977      -280.8208
   2   2.0000      -1.135109       -30.8879
   3   2.0000      -0.789724       -21.4895
   4   2.0000      -0.605231       -16.4692
   5   2.0000      -0.540749       -14.7145
   6   2.0000      -0.523914       -14.2564
   7   2.0000      -0.440876       -11.9968
   8   2.0000      -0.372646       -10.1402
   9   0.0000       0.077851         2.1184
  10   0.0000       0.121910         3.3174
  11   0.0000       0.153122         4.1667
  12   0.0000       0.172777         4.7015
  13   0.0000       0.190394         5.1809

MULLIKEN ATOMIC CHARGES
-----------------------
   0 C :   -0.012948
   1 O :    0.001031
   2 H :   -0.000179
   3 H :    0.002171
   4 H :   -0.001125
   5 H :    0.000383
   6 C :   -0.178480
   7 O :   -0.462703
   8 H :    0.309642
   9 H :    0.126856
  10 H :    0.112094
  11 H :    0.103257
Sum of atomic charges:    0.0000000

LOEWDIN ATOMIC CHARGES
----------------------
   0 C :   -0.064904
   1 O :   -0.011552
   2 H :   -0.000669
   3 H :   -0.010173
   4 H :   -0.000651
   5 H :   -0.015364
   6 C :   -0.334080
   7 O :   -0.085711
   8 H :    0.161713
   9 H :    0.112565
  10 H :    0.141091
  11 H :    0.107735

  Mayer bond orders larger than 0.1
B(  6-C ,  7-O ) :   0.9975 B(  6-C ,  9-H ) :   0.9636 B(  6-C , 10-H ) :   0.9681
B(  6-C , 11-H ) :   0.9854 B(  7-O ,  8-H ) :   0.9076

Dispersion correction           -0.000223462
FINAL SINGLE POINT ENERGY      -115.734175506753

DIPOLE MOMENT
-------------
                                X             Y             Z
Electronic contribution:     -1.67610       0.36273      -0.57188
Nuclear contribution   :      1.97627      -0.55158       1.19780
                        -----------------------------------------
Total Dipole Moment    :      0.30017      -0.18885       0.62592
                        -----------------------------------------
Magnitude (a.u.)       :      0.71940
Magnitude (Debye)      :      1.82857

Rotational constants in cm-1:     4.105849     0.821910     0.789297
Rotational constants in MHz : 123090.255735 24640.255377 23662.533245

                             ****ORCA TERMINATED NORMALLY****
TOTAL RUN TIME: 0 days 0 hours 5 minutes 41 seconds 172 msec
