                         Program Version 4.1.2  - RELEASE  -
|  1> #Run DFT-D3 single point of the dimer
|  2> ! wB97X-D3 def2-TZVP TIGHTSCF CHELPG PMODEL PAL8
|  3>
|  4> %base "21-192_DFT_AB"
|  5>
|  6> %scf
|  7> MaxIter 1000
|  8> end
|  9>
| 10> * xyz 0 1
| 11>   C                      -0.485163            3.922118             5.725866
| 12>   O                      0.047863             2.990680             6.609788
| 13>   H                      0.912320             3.261742             6.846728
| 14>   H                      -1.565628            4.196665             5.887215
| 15>   H                      0.170080             4.812169             5.724016
| 16>   H                      -0.569948            3.523899             4.712004
| 17>   C                      0.268052             -0.046767            5.581680
| 18>   O                      -0.161142            0.920445             4.714740
| 19>   H                      -0.409012            1.609506             5.350271
| 20>   H                      0.077832             0.085115             6.615020
| 21>   H                      -0.236730            -0.938475            5.403433
| 22>   H                      1.366188             -0.264199            5.530111
| 23> *
| 24>
| 25> #Run DFT-D3 single point of the molecule with dimer basis set
| 26> $new_job
| 27> %base "21-192_DFT_A"
| 28> ! wB97X-D3 def2-TZVP TIGHTSCF CHELPG PMODEL
| 29>
| 30> %scf
| 31> MaxIter 1000
| 32> end
| 33>
| 34> * xyz 0 1
| 35>   C                      -0.485163            3.922118             5.725866
| 36>   O                      0.047863             2.990680             6.609788
| 37>   H                      0.912320             3.261742             6.846728
| 38>   H                      -1.565628            4.196665             5.887215
| 39>   H                      0.170080             4.812169             5.724016
| 40>   H                      -0.569948            3.523899             4.712004
| 41>   C                    : 0.268052             -0.046767            5.581680
| 42>   O                    : -0.161142            0.920445             4.714740
| 43>   H                    : -0.409012            1.609506             5.350271
| 44>   H                    : 0.077832             0.085115             6.615020
| 45>   H                    : -0.236730            -0.938475            5.403433
| 46>   H                    : 1.366188             -0.264199            5.530111
| 47> *
| 48>
| 49> #Run DFT-D3 single point of the particle with dimer basis set
| 50> $new_job
| 51> %base "21-192_DFT_B"
| 52> ! wB97X-D3 def2-TZVP TIGHTSCF CHELPG PMODEL
| 53>
| 54> %scf
| 55> MaxIter 1000
| 56> end
| 57>
| 58> * xyz 0 1
| 59>   C                    : -0.485163            3.922118             5.725866
| 60>   O                    : 0.047863             2.990680             6.609788
| 61>   H                    : 0.912320             3.261742             6.846728
| 62>   H                    : -1.565628            4.196665             5.887215
| 63>   H                    : 0.170080             4.812169             5.724016
| 64>   H                    : -0.569948            3.523899             4.712004
| 65>   C                      0.268052             -0.046767            5.581680
| 66>   O                      -0.161142            0.920445             4.714740
| 67>   H                      -0.409012            1.609506             5.350271
| 68>   H                      0.077832             0.085115             6.615020
| 69>   H                      -0.236730            -0.938475            5.403433
| 70>   H                      1.366188             -0.264199            5.530111
| 71> *
| 72>
| 73>                          ****END OF INPUT****
 Total Charge           Charge          ....    0
 Multiplicity           Mult            ....    1
 Number of Electrons    NEL             ....   36
Dispersion correction           -0.002029999
FINAL SINGLE POINT ENERGY      -231.463000483206
Dispersion correction           -0.000245064
FINAL SINGLE POINT ENERGY      -115.731007380760

CARTESIAN COORDINATES (ANGSTROEM)
---------------------------------
  C     -0.485163    3.922118    5.725866
  O      0.047863    2.990680    6.609788
  H      0.912320    3.261742    6.846728
  H     -1.565628    4.196665    5.887215
  H      0.170080    4.812169    5.724016
  H     -0.569948    3.523899    4.712004
  C      0.268052   -0.046767    5.581680
  O     -0.161142    0.920445    4.714740
  H     -0.409012    1.609506    5.350271
  H      0.077832    0.085115    6.615020
  H     -0.236730   -0.938475    5.403433
  H      1.366188   -0.264199    5.530111

 Multiplicity           Mult            ....    1
 Number of Electrons    NEL             ....   18
 Basis Dimension        Dim             ....  172

ORBITAL ENERGIES
----------------

  NO   OCC          E(Eh)            E(eV)
   0   2.0000     -19.237644      -523.4829
   1   2.0000     -10.301379      -280.3148
   2   2.0000      -1.157871       -31.5073
   3   2.0000      -0.797734       -21.7074
   4   2.0000      -0.626212       -17.0401
   5   2.0000      -0.548442       -14.9239
   6   2.0000      -0.530891       -14.4463
   7   2.0000      -0.439897       -11.9702
   8   2.0000      -0.374554       -10.1921
   9   0.0000       0.072654         1.9770
  10   0.0000       0.132727         3.6117
  11   0.0000       0.161025         4.3817
  12   0.0000       0.166467         4.5298
  13   0.0000       0.188944         5.1414

MULLIKEN ATOMIC CHARGES
-----------------------
   0 C :   -0.003090
   1 O :   -0.006592
   2 H :   -0.000110
   3 H :    0.000240
   4 H :    0.000478
   5 H :   -0.002213
   6 C :   -0.175991
   7 O :   -0.440768
   8 H :    0.318513
   9 H :    0.105519
  10 H :    0.109886
  11 H :    0.094129
Sum of atomic charges:    0.0000000

LOEWDIN ATOMIC CHARGES
----------------------
   0 C :   -0.016309
   1 O :   -0.018453
   2 H :   -0.001239
   3 H :   -0.000304
   4 H :   -0.000183
   5 H :   -0.006143
   6 C :   -0.425857
   7 O :   -0.017909
   8 H :    0.201274
   9 H :    0.091484
  10 H :    0.090955
  11 H :    0.102685

  Mayer bond orders larger than 0.1
B(  6-C ,  7-O ) :   1.0102 B(  6-C ,  9-H ) :   0.9848 B(  6-C , 10-H ) :   0.9839
B(  6-C , 11-H ) :   0.9733 B(  7-O ,  8-H ) :   0.9033

Dispersion correction           -0.000220822
FINAL SINGLE POINT ENERGY      -115.725980607702

DIPOLE MOMENT
-------------
                                X             Y             Z
Electronic contribution:     -0.61761       1.32044      -1.35910
Nuclear contribution   :      0.57651      -1.24862       2.08697
                        -----------------------------------------
Total Dipole Moment    :     -0.04110       0.07182       0.72787
                        -----------------------------------------
Magnitude (a.u.)       :      0.73255
Magnitude (Debye)      :      1.86200

Rotational constants in cm-1:     4.506926     0.875601     0.846801
Rotational constants in MHz : 135114.229626 26249.860322 25386.447147

                             ****ORCA TERMINATED NORMALLY****
TOTAL RUN TIME: 0 days 0 hours 1 minutes 9 seconds 26 msec
