                         Program Version 4.1.2  - RELEASE  -
|  1> #Run DFT-D3 single point of the dimer
|  2> ! wB97X-D3 def2-TZVP TIGHTSCF CHELPG PMODEL PAL8
|  3>
|  4> %base "17-3_DFT_AB"
|  5>
|  6> %scf
|  7> MaxIter 1000
|  8> end
|  9>
| 10> * xyz 0 1
| 11>   C                      4.197069             -5.731458            9.963804
| 12>   O                      3.094894             -5.843376            9.191124
| 13>   H                      2.638128             -4.976491            9.044959
| 14>   H                      4.671865             -6.648630            10.240441
| 15>   H                      4.946971             -5.153106            9.403973
| 16>   H                      3.975430             -5.220114            10.891315
| 17>   C                      7.365069             -7.681559            8.766105
| 18>   O                      7.672023             -6.390432            9.124255
| 19>   H                      7.661325             -6.344541            10.049661
| 20>   H                      8.065978             -8.404759            9.169280
| 21>   H                      6.408734             -8.016274            9.069796
| 22>   H                      7.248683             -7.726035            7.660480
| 23> *
| 24>
| 25> #Run DFT-D3 single point of the molecule with dimer basis set
| 26> $new_job
| 27> %base "17-3_DFT_A"
| 28> ! wB97X-D3 def2-TZVP TIGHTSCF CHELPG PMODEL
| 29>
| 30> %scf
| 31> MaxIter 1000
| 32> end
| 33>
| 34> * xyz 0 1
| 35>   C                      4.197069             -5.731458            9.963804
| 36>   O                      3.094894             -5.843376            9.191124
| 37>   H                      2.638128             -4.976491            9.044959
| 38>   H                      4.671865             -6.648630            10.240441
| 39>   H                      4.946971             -5.153106            9.403973
| 40>   H                      3.975430             -5.220114            10.891315
| 41>   C                    : 7.365069             -7.681559            8.766105
| 42>   O                    : 7.672023             -6.390432            9.124255
| 43>   H                    : 7.661325             -6.344541            10.049661
| 44>   H                    : 8.065978             -8.404759            9.169280
| 45>   H                    : 6.408734             -8.016274            9.069796
| 46>   H                    : 7.248683             -7.726035            7.660480
| 47> *
| 48>
| 49> #Run DFT-D3 single point of the particle with dimer basis set
| 50> $new_job
| 51> %base "17-3_DFT_B"
| 52> ! wB97X-D3 def2-TZVP TIGHTSCF CHELPG PMODEL
| 53>
| 54> %scf
| 55> MaxIter 1000
| 56> end
| 57>
| 58> * xyz 0 1
| 59>   C                    : 4.197069             -5.731458            9.963804
| 60>   O                    : 3.094894             -5.843376            9.191124
| 61>   H                    : 2.638128             -4.976491            9.044959
| 62>   H                    : 4.671865             -6.648630            10.240441
| 63>   H                    : 4.946971             -5.153106            9.403973
| 64>   H                    : 3.975430             -5.220114            10.891315
| 65>   C                      7.365069             -7.681559            8.766105
| 66>   O                      7.672023             -6.390432            9.124255
| 67>   H                      7.661325             -6.344541            10.049661
| 68>   H                      8.065978             -8.404759            9.169280
| 69>   H                      6.408734             -8.016274            9.069796
| 70>   H                      7.248683             -7.726035            7.660480
| 71> *
| 72>
| 73>                          ****END OF INPUT****
 Total Charge           Charge          ....    0
 Multiplicity           Mult            ....    1
 Number of Electrons    NEL             ....   36
Dispersion correction           -0.001751196
FINAL SINGLE POINT ENERGY      -231.463336277860
Dispersion correction           -0.000216573
FINAL SINGLE POINT ENERGY      -115.730135178296

CARTESIAN COORDINATES (ANGSTROEM)
---------------------------------
  C      4.197069   -5.731458    9.963804
  O      3.094894   -5.843376    9.191124
  H      2.638128   -4.976491    9.044959
  H      4.671865   -6.648630   10.240441
  H      4.946971   -5.153106    9.403973
  H      3.975430   -5.220114   10.891315
  C      7.365069   -7.681559    8.766105
  O      7.672023   -6.390432    9.124255
  H      7.661325   -6.344541   10.049661
  H      8.065978   -8.404759    9.169280
  H      6.408734   -8.016274    9.069796
  H      7.248683   -7.726035    7.660480

 Multiplicity           Mult            ....    1
 Number of Electrons    NEL             ....   18
 Basis Dimension        Dim             ....  172

ORBITAL ENERGIES
----------------

  NO   OCC          E(Eh)            E(eV)
   0   2.0000     -19.229579      -523.2634
   1   2.0000     -10.306468      -280.4533
   2   2.0000      -1.157181       -31.4885
   3   2.0000      -0.800734       -21.7891
   4   2.0000      -0.627633       -17.0788
   5   2.0000      -0.552816       -15.0429
   6   2.0000      -0.525948       -14.3118
   7   2.0000      -0.433959       -11.8086
   8   2.0000      -0.374395       -10.1878
   9   0.0000       0.086776         2.3613
  10   0.0000       0.127765         3.4767
  11   0.0000       0.154217         4.1965
  12   0.0000       0.175869         4.7856
  13   0.0000       0.197140         5.3644

MULLIKEN ATOMIC CHARGES
-----------------------
   0 C :    0.000362
   1 O :   -0.000219
   2 H :   -0.000036
   3 H :    0.000040
   4 H :   -0.004911
   5 H :   -0.000034
   6 C :   -0.156930
   7 O :   -0.454159
   8 H :    0.308029
   9 H :    0.101697
  10 H :    0.092265
  11 H :    0.113897
Sum of atomic charges:   -0.0000000

LOEWDIN ATOMIC CHARGES
----------------------
   0 C :   -0.005189
   1 O :   -0.000033
   2 H :   -0.000005
   3 H :   -0.002721
   4 H :   -0.004419
   5 H :   -0.000031
   6 C :   -0.411184
   7 O :   -0.020676
   8 H :    0.151092
   9 H :    0.092845
  10 H :    0.084494
  11 H :    0.115825

  Mayer bond orders larger than 0.1
B(  6-C ,  7-O ) :   1.0039 B(  6-C ,  9-H ) :   0.9796 B(  6-C , 10-H ) :   0.9741
B(  6-C , 11-H ) :   0.9771 B(  7-O ,  8-H ) :   0.9073

Dispersion correction           -0.000219125
FINAL SINGLE POINT ENERGY      -115.732143056290

DIPOLE MOMENT
-------------
                                X             Y             Z
Electronic contribution:      0.49279       1.76222       0.41446
Nuclear contribution   :     -0.63482      -2.21741       0.05679
                        -----------------------------------------
Total Dipole Moment    :     -0.14203      -0.45518       0.47125
                        -----------------------------------------
Magnitude (a.u.)       :      0.67041
Magnitude (Debye)      :      1.70404

Rotational constants in cm-1:     4.470813     0.873958     0.835221
Rotational constants in MHz : 134031.596146 26200.593522 25039.297651

                             ****ORCA TERMINATED NORMALLY****
TOTAL RUN TIME: 0 days 0 hours 1 minutes 11 seconds 304 msec
