                         Program Version 4.1.2  - RELEASE  -
|  1> #Run DFT-D3 single point of the dimer
|  2> ! wB97X-D3 def2-TZVP TIGHTSCF CHELPG PMODEL PAL8
|  3>
|  4> %base "1-147_DFT_AB"
|  5>
|  6> %scf
|  7> MaxIter 1000
|  8> end
|  9>
| 10> * xyz 0 1
| 11>   C                      4.251394             7.294140             -9.071538
| 12>   O                      4.129112             8.085859             -7.910491
| 13>   H                      4.697433             7.799815             -7.200312
| 14>   H                      3.814201             6.341575             -8.870141
| 15>   H                      3.722404             7.551431             -9.934583
| 16>   H                      5.262686             7.043294             -9.364330
| 17>   C                      6.137537             7.329484             -5.029090
| 18>   O                      4.993816             8.083205             -4.789981
| 19>   H                      5.298773             8.977023             -4.746202
| 20>   H                      5.937156             6.232689             -4.958911
| 21>   H                      6.633981             7.570980             -5.974501
| 22>   H                      6.921082             7.612239             -4.311870
| 23> *
| 24>
| 25> #Run DFT-D3 single point of the molecule with dimer basis set
| 26> $new_job
| 27> %base "1-147_DFT_A"
| 28> ! wB97X-D3 def2-TZVP TIGHTSCF CHELPG PMODEL
| 29>
| 30> %scf
| 31> MaxIter 1000
| 32> end
| 33>
| 34> * xyz 0 1
| 35>   C                      4.251394             7.294140             -9.071538
| 36>   O                      4.129112             8.085859             -7.910491
| 37>   H                      4.697433             7.799815             -7.200312
| 38>   H                      3.814201             6.341575             -8.870141
| 39>   H                      3.722404             7.551431             -9.934583
| 40>   H                      5.262686             7.043294             -9.364330
| 41>   C                    : 6.137537             7.329484             -5.029090
| 42>   O                    : 4.993816             8.083205             -4.789981
| 43>   H                    : 5.298773             8.977023             -4.746202
| 44>   H                    : 5.937156             6.232689             -4.958911
| 45>   H                    : 6.633981             7.570980             -5.974501
| 46>   H                    : 6.921082             7.612239             -4.311870
| 47> *
| 48>
| 49> #Run DFT-D3 single point of the particle with dimer basis set
| 50> $new_job
| 51> %base "1-147_DFT_B"
| 52> ! wB97X-D3 def2-TZVP TIGHTSCF CHELPG PMODEL
| 53>
| 54> %scf
| 55> MaxIter 1000
| 56> end
| 57>
| 58> * xyz 0 1
| 59>   C                    : 4.251394             7.294140             -9.071538
| 60>   O                    : 4.129112             8.085859             -7.910491
| 61>   H                    : 4.697433             7.799815             -7.200312
| 62>   H                    : 3.814201             6.341575             -8.870141
| 63>   H                    : 3.722404             7.551431             -9.934583
| 64>   H                    : 5.262686             7.043294             -9.364330
| 65>   C                      6.137537             7.329484             -5.029090
| 66>   O                      4.993816             8.083205             -4.789981
| 67>   H                      5.298773             8.977023             -4.746202
| 68>   H                      5.937156             6.232689             -4.958911
| 69>   H                      6.633981             7.570980             -5.974501
| 70>   H                      6.921082             7.612239             -4.311870
| 71> *
| 72>
| 73>                          ****END OF INPUT****
 Total Charge           Charge          ....    0
 Multiplicity           Mult            ....    1
 Number of Electrons    NEL             ....   36
Dispersion correction           -0.001644320
FINAL SINGLE POINT ENERGY      -231.463256837146
Dispersion correction           -0.000248047
FINAL SINGLE POINT ENERGY      -115.726809857971

CARTESIAN COORDINATES (ANGSTROEM)
---------------------------------
  C      4.251394    7.294140   -9.071538
  O      4.129112    8.085859   -7.910491
  H      4.697433    7.799815   -7.200312
  H      3.814201    6.341575   -8.870141
  H      3.722404    7.551431   -9.934583
  H      5.262686    7.043294   -9.364330
  C      6.137537    7.329484   -5.029090
  O      4.993816    8.083205   -4.789981
  H      5.298773    8.977023   -4.746202
  H      5.937156    6.232689   -4.958911
  H      6.633981    7.570980   -5.974501
  H      6.921082    7.612239   -4.311870

 Multiplicity           Mult            ....    1
 Number of Electrons    NEL             ....   18
 Basis Dimension        Dim             ....  172

ORBITAL ENERGIES
----------------

  NO   OCC          E(Eh)            E(eV)
   0   2.0000     -19.231551      -523.3171
   1   2.0000     -10.314880      -280.6821
   2   2.0000      -1.150492       -31.3065
   3   2.0000      -0.792633       -21.5686
   4   2.0000      -0.622254       -16.9324
   5   2.0000      -0.536756       -14.6059
   6   2.0000      -0.532060       -14.4781
   7   2.0000      -0.441162       -12.0046
   8   2.0000      -0.370062       -10.0699
   9   0.0000       0.089897         2.4462
  10   0.0000       0.119353         3.2478
  11   0.0000       0.155331         4.2268
  12   0.0000       0.184425         5.0185
  13   0.0000       0.191299         5.2055

MULLIKEN ATOMIC CHARGES
-----------------------
   0 C :   -0.000370
   1 O :   -0.001281
   2 H :   -0.000161
   3 H :   -0.000038
   4 H :    0.000020
   5 H :   -0.000023
   6 C :   -0.186042
   7 O :   -0.460987
   8 H :    0.314490
   9 H :    0.123131
  10 H :    0.102290
  11 H :    0.108971
Sum of atomic charges:    0.0000000

LOEWDIN ATOMIC CHARGES
----------------------
   0 C :   -0.000366
   1 O :   -0.003073
   2 H :   -0.013685
   3 H :   -0.000007
   4 H :   -0.000003
   5 H :   -0.000091
   6 C :   -0.408267
   7 O :   -0.042993
   8 H :    0.165333
   9 H :    0.114682
  10 H :    0.093424
  11 H :    0.095045

  Mayer bond orders larger than 0.1
B(  6-C ,  7-O ) :   0.9832 B(  6-C ,  9-H ) :   0.9720 B(  6-C , 10-H ) :   0.9752
B(  6-C , 11-H ) :   0.9828 B(  7-O ,  8-H ) :   0.9017

Dispersion correction           -0.000219287
FINAL SINGLE POINT ENERGY      -115.733743957336

DIPOLE MOMENT
-------------
                                X             Y             Z
Electronic contribution:     -1.70160       0.81698       0.29765
Nuclear contribution   :      2.33202      -0.52560      -0.34391
                        -----------------------------------------
Total Dipole Moment    :      0.63042       0.29138      -0.04626
                        -----------------------------------------
Magnitude (a.u.)       :      0.69603
Magnitude (Debye)      :      1.76918

Rotational constants in cm-1:     4.267871     0.861052     0.816274
Rotational constants in MHz : 127947.539219 25813.682288 24471.263910

                             ****ORCA TERMINATED NORMALLY****
TOTAL RUN TIME: 0 days 0 hours 5 minutes 59 seconds 470 msec
