                         Program Version 4.1.2  - RELEASE  -
|  1> #Run DFT-D3 single point of the dimer
|  2> ! wB97X-D3 def2-TZVP TIGHTSCF CHELPG PMODEL PAL8
|  3>
|  4> %base "4-57_DFT_AB"
|  5>
|  6> %scf
|  7> MaxIter 1000
|  8> end
|  9>
| 10> * xyz 0 1
| 11>   C                      -10.731025           2.823541             -1.194444
| 12>   O                      -10.503371           3.750135             -0.081358
| 13>   H                      -9.717192            3.611297             0.489731
| 14>   H                      -10.037854           3.038673             -2.059465
| 15>   H                      -10.587128           1.762189             -0.946121
| 16>   H                      -11.729911           2.863897             -1.670803
| 17>   C                      -7.165838            1.970965             -4.316710
| 18>   O                      -8.140504            2.659230             -3.460284
| 19>   H                      -7.664392            2.899198             -2.666859
| 20>   H                      -6.972118            0.987659             -3.975152
| 21>   H                      -7.564475            1.801484             -5.267749
| 22>   H                      -6.156702            2.463355             -4.387189
| 23> *
| 24>
| 25> #Run DFT-D3 single point of the molecule with dimer basis set
| 26> $new_job
| 27> %base "4-57_DFT_A"
| 28> ! wB97X-D3 def2-TZVP TIGHTSCF CHELPG PMODEL
| 29>
| 30> %scf
| 31> MaxIter 1000
| 32> end
| 33>
| 34> * xyz 0 1
| 35>   C                      -10.731025           2.823541             -1.194444
| 36>   O                      -10.503371           3.750135             -0.081358
| 37>   H                      -9.717192            3.611297             0.489731
| 38>   H                      -10.037854           3.038673             -2.059465
| 39>   H                      -10.587128           1.762189             -0.946121
| 40>   H                      -11.729911           2.863897             -1.670803
| 41>   C                    : -7.165838            1.970965             -4.316710
| 42>   O                    : -8.140504            2.659230             -3.460284
| 43>   H                    : -7.664392            2.899198             -2.666859
| 44>   H                    : -6.972118            0.987659             -3.975152
| 45>   H                    : -7.564475            1.801484             -5.267749
| 46>   H                    : -6.156702            2.463355             -4.387189
| 47> *
| 48>
| 49> #Run DFT-D3 single point of the particle with dimer basis set
| 50> $new_job
| 51> %base "4-57_DFT_B"
| 52> ! wB97X-D3 def2-TZVP TIGHTSCF CHELPG PMODEL
| 53>
| 54> %scf
| 55> MaxIter 1000
| 56> end
| 57>
| 58> * xyz 0 1
| 59>   C                    : -10.731025           2.823541             -1.194444
| 60>   O                    : -10.503371           3.750135             -0.081358
| 61>   H                    : -9.717192            3.611297             0.489731
| 62>   H                    : -10.037854           3.038673             -2.059465
| 63>   H                    : -10.587128           1.762189             -0.946121
| 64>   H                    : -11.729911           2.863897             -1.670803
| 65>   C                      -7.165838            1.970965             -4.316710
| 66>   O                      -8.140504            2.659230             -3.460284
| 67>   H                      -7.664392            2.899198             -2.666859
| 68>   H                      -6.972118            0.987659             -3.975152
| 69>   H                      -7.564475            1.801484             -5.267749
| 70>   H                      -6.156702            2.463355             -4.387189
| 71> *
| 72>
| 73>                          ****END OF INPUT****
 Total Charge           Charge          ....    0
 Multiplicity           Mult            ....    1
 Number of Electrons    NEL             ....   36
Dispersion correction           -0.001433497
FINAL SINGLE POINT ENERGY      -231.457661266926
Dispersion correction           -0.000319201
FINAL SINGLE POINT ENERGY      -115.726280110052

CARTESIAN COORDINATES (ANGSTROEM)
---------------------------------
  C    -10.731025    2.823541   -1.194444
  O    -10.503371    3.750135   -0.081358
  H     -9.717192    3.611297    0.489731
  H    -10.037854    3.038673   -2.059465
  H    -10.587128    1.762189   -0.946121
  H    -11.729911    2.863897   -1.670803
  C     -7.165838    1.970965   -4.316710
  O     -8.140504    2.659230   -3.460284
  H     -7.664392    2.899198   -2.666859
  H     -6.972118    0.987659   -3.975152
  H     -7.564475    1.801484   -5.267749
  H     -6.156702    2.463355   -4.387189

 Multiplicity           Mult            ....    1
 Number of Electrons    NEL             ....   18
 Basis Dimension        Dim             ....  172

ORBITAL ENERGIES
----------------

  NO   OCC          E(Eh)            E(eV)
   0   2.0000     -19.233212      -523.3623
   1   2.0000     -10.312447      -280.6159
   2   2.0000      -1.123411       -30.5696
   3   2.0000      -0.805238       -21.9116
   4   2.0000      -0.603013       -16.4088
   5   2.0000      -0.533495       -14.5171
   6   2.0000      -0.526383       -14.3236
   7   2.0000      -0.445218       -12.1150
   8   2.0000      -0.376629       -10.2486
   9   0.0000       0.090221         2.4550
  10   0.0000       0.125726         3.4212
  11   0.0000       0.151755         4.1295
  12   0.0000       0.165250         4.4967
  13   0.0000       0.199317         5.4237

MULLIKEN ATOMIC CHARGES
-----------------------
   0 C :   -0.001637
   1 O :    0.000099
   2 H :    0.000002
   3 H :   -0.007156
   4 H :   -0.000039
   5 H :   -0.000501
   6 C :   -0.180594
   7 O :   -0.465027
   8 H :    0.313704
   9 H :    0.108707
  10 H :    0.126692
  11 H :    0.105751
Sum of atomic charges:    0.0000000

LOEWDIN ATOMIC CHARGES
----------------------
   0 C :   -0.006137
   1 O :   -0.000041
   2 H :   -0.000027
   3 H :   -0.013567
   4 H :   -0.000435
   5 H :   -0.000072
   6 C :   -0.342679
   7 O :   -0.093854
   8 H :    0.164935
   9 H :    0.089535
  10 H :    0.097843
  11 H :    0.104501

  Mayer bond orders larger than 0.1
B(  6-C ,  7-O ) :   0.9971 B(  6-C ,  9-H ) :   0.9740 B(  6-C , 10-H ) :   0.9789
B(  6-C , 11-H ) :   0.9721 B(  7-O ,  8-H ) :   0.9010

Dispersion correction           -0.000265872
FINAL SINGLE POINT ENERGY      -115.730707015621

DIPOLE MOMENT
-------------
                                X             Y             Z
Electronic contribution:     -1.35549       0.89376       0.92260
Nuclear contribution   :      2.06963      -1.06502      -0.80343
                        -----------------------------------------
Total Dipole Moment    :      0.71414      -0.17127       0.11917
                        -----------------------------------------
Magnitude (a.u.)       :      0.74399
Magnitude (Debye)      :      1.89108

Rotational constants in cm-1:     4.469294     0.782331     0.750386
Rotational constants in MHz : 133986.060619 23453.707872 22496.019761

                             ****ORCA TERMINATED NORMALLY****
TOTAL RUN TIME: 0 days 0 hours 1 minutes 35 seconds 751 msec
