                         Program Version 4.1.2  - RELEASE  -
|  1> #Run DFT-D3 single point of the dimer
|  2> ! wB97X-D3 def2-TZVP TIGHTSCF CHELPG PMODEL PAL8
|  3>
|  4> %base "22-177_DFT_AB"
|  5>
|  6> %scf
|  7> MaxIter 1000
|  8> end
|  9>
| 10> * xyz 0 1
| 11>   C                      -8.408628            -6.077330            5.994400
| 12>   O                      -8.191129            -6.136432            7.414931
| 13>   H                      -8.526472            -6.979729            7.689551
| 14>   H                      -8.233246            -5.066164            5.609936
| 15>   H                      -7.815096            -6.825520            5.471362
| 16>   H                      -9.422987            -6.376404            5.755330
| 17>   C                      -5.704143            -4.582436            9.340201
| 18>   O                      -6.258970            -4.143728            8.110816
| 19>   H                      -6.607318            -4.873166            7.598088
| 20>   H                      -5.487212            -3.772024            10.044190
| 21>   H                      -6.435321            -5.206368            9.937870
| 22>   H                      -4.824860            -5.154785            9.351215
| 23> *
| 24>
| 25> #Run DFT-D3 single point of the molecule with dimer basis set
| 26> $new_job
| 27> %base "22-177_DFT_A"
| 28> ! wB97X-D3 def2-TZVP TIGHTSCF CHELPG PMODEL
| 29>
| 30> %scf
| 31> MaxIter 1000
| 32> end
| 33>
| 34> * xyz 0 1
| 35>   C                      -8.408628            -6.077330            5.994400
| 36>   O                      -8.191129            -6.136432            7.414931
| 37>   H                      -8.526472            -6.979729            7.689551
| 38>   H                      -8.233246            -5.066164            5.609936
| 39>   H                      -7.815096            -6.825520            5.471362
| 40>   H                      -9.422987            -6.376404            5.755330
| 41>   C                    : -5.704143            -4.582436            9.340201
| 42>   O                    : -6.258970            -4.143728            8.110816
| 43>   H                    : -6.607318            -4.873166            7.598088
| 44>   H                    : -5.487212            -3.772024            10.044190
| 45>   H                    : -6.435321            -5.206368            9.937870
| 46>   H                    : -4.824860            -5.154785            9.351215
| 47> *
| 48>
| 49> #Run DFT-D3 single point of the particle with dimer basis set
| 50> $new_job
| 51> %base "22-177_DFT_B"
| 52> ! wB97X-D3 def2-TZVP TIGHTSCF CHELPG PMODEL
| 53>
| 54> %scf
| 55> MaxIter 1000
| 56> end
| 57>
| 58> * xyz 0 1
| 59>   C                    : -8.408628            -6.077330            5.994400
| 60>   O                    : -8.191129            -6.136432            7.414931
| 61>   H                    : -8.526472            -6.979729            7.689551
| 62>   H                    : -8.233246            -5.066164            5.609936
| 63>   H                    : -7.815096            -6.825520            5.471362
| 64>   H                    : -9.422987            -6.376404            5.755330
| 65>   C                      -5.704143            -4.582436            9.340201
| 66>   O                      -6.258970            -4.143728            8.110816
| 67>   H                      -6.607318            -4.873166            7.598088
| 68>   H                      -5.487212            -3.772024            10.044190
| 69>   H                      -6.435321            -5.206368            9.937870
| 70>   H                      -4.824860            -5.154785            9.351215
| 71> *
| 72>
| 73>                          ****END OF INPUT****
 Total Charge           Charge          ....    0
 Multiplicity           Mult            ....    1
 Number of Electrons    NEL             ....   36
Dispersion correction           -0.001754760
FINAL SINGLE POINT ENERGY      -231.470744129257
Dispersion correction           -0.000234036
FINAL SINGLE POINT ENERGY      -115.735145552625

CARTESIAN COORDINATES (ANGSTROEM)
---------------------------------
  C     -8.408628   -6.077330    5.994400
  O     -8.191129   -6.136432    7.414931
  H     -8.526472   -6.979729    7.689551
  H     -8.233246   -5.066164    5.609936
  H     -7.815096   -6.825520    5.471362
  H     -9.422987   -6.376404    5.755330
  C     -5.704143   -4.582436    9.340201
  O     -6.258970   -4.143728    8.110816
  H     -6.607318   -4.873166    7.598088
  H     -5.487212   -3.772024   10.044190
  H     -6.435321   -5.206368    9.937870
  H     -4.824860   -5.154785    9.351215

 Multiplicity           Mult            ....    1
 Number of Electrons    NEL             ....   18
 Basis Dimension        Dim             ....  172

ORBITAL ENERGIES
----------------

  NO   OCC          E(Eh)            E(eV)
   0   2.0000     -19.235726      -523.4307
   1   2.0000     -10.313766      -280.6519
   2   2.0000      -1.135781       -30.9062
   3   2.0000      -0.803060       -21.8524
   4   2.0000      -0.618528       -16.8310
   5   2.0000      -0.535722       -14.5777
   6   2.0000      -0.528142       -14.3715
   7   2.0000      -0.429533       -11.6882
   8   2.0000      -0.377436       -10.2706
   9   0.0000       0.070885         1.9289
  10   0.0000       0.131484         3.5779
  11   0.0000       0.149306         4.0628
  12   0.0000       0.165026         4.4906
  13   0.0000       0.192898         5.2490

MULLIKEN ATOMIC CHARGES
-----------------------
   0 C :   -0.002147
   1 O :   -0.005347
   2 H :   -0.000155
   3 H :   -0.000297
   4 H :    0.000045
   5 H :    0.000150
   6 C :   -0.173594
   7 O :   -0.468383
   8 H :    0.318184
   9 H :    0.122094
  10 H :    0.096514
  11 H :    0.112936
Sum of atomic charges:   -0.0000000

LOEWDIN ATOMIC CHARGES
----------------------
   0 C :   -0.006379
   1 O :   -0.016534
   2 H :   -0.000683
   3 H :   -0.000889
   4 H :   -0.000163
   5 H :   -0.000099
   6 C :   -0.387318
   7 O :   -0.059215
   8 H :    0.174814
   9 H :    0.110660
  10 H :    0.101524
  11 H :    0.084283

  Mayer bond orders larger than 0.1
B(  6-C ,  7-O ) :   1.0046 B(  6-C ,  9-H ) :   0.9735 B(  6-C , 10-H ) :   0.9797
B(  6-C , 11-H ) :   0.9698 B(  7-O ,  8-H ) :   0.8999

Dispersion correction           -0.000276247
FINAL SINGLE POINT ENERGY      -115.730562895553

DIPOLE MOMENT
-------------
                                X             Y             Z
Electronic contribution:     -0.57810       0.74233      -1.76594
Nuclear contribution   :      0.59442      -1.37337       1.94250
                        -----------------------------------------
Total Dipole Moment    :      0.01633      -0.63104       0.17656
                        -----------------------------------------
Magnitude (a.u.)       :      0.65548
Magnitude (Debye)      :      1.66609

Rotational constants in cm-1:     4.603162     0.805095     0.778420
Rotational constants in MHz : 137999.310145 24136.146802 23336.444868

                             ****ORCA TERMINATED NORMALLY****
TOTAL RUN TIME: 0 days 0 hours 1 minutes 8 seconds 468 msec
