                         Program Version 4.1.2  - RELEASE  -
|  1> #Run DFT-D3 single point of the dimer
|  2> ! wB97X-D3 def2-TZVP TIGHTSCF CHELPG PMODEL PAL8
|  3>
|  4> %base "21-151_DFT_AB"
|  5>
|  6> %scf
|  7> MaxIter 1000
|  8> end
|  9>
| 10> * xyz 0 1
| 11>   C                      11.352334            -1.833774            7.507405
| 12>   O                      10.991320            -2.294420            8.776849
| 13>   H                      11.814612            -2.590562            9.205641
| 14>   H                      11.764814            -0.857709            7.498647
| 15>   H                      12.122750            -2.483678            6.969875
| 16>   H                      10.452367            -1.798629            6.862661
| 17>   C                      7.527733             -3.690692            8.592855
| 18>   O                      8.773299             -4.235503            8.239078
| 19>   H                      9.453713             -3.525060            8.388681
| 20>   H                      6.792228             -3.555723            7.760058
| 21>   H                      7.113101             -4.348131            9.399772
| 22>   H                      7.661775             -2.667663            8.929465
| 23> *
| 24>
| 25> #Run DFT-D3 single point of the molecule with dimer basis set
| 26> $new_job
| 27> %base "21-151_DFT_A"
| 28> ! wB97X-D3 def2-TZVP TIGHTSCF CHELPG PMODEL
| 29>
| 30> %scf
| 31> MaxIter 1000
| 32> end
| 33>
| 34> * xyz 0 1
| 35>   C                      11.352334            -1.833774            7.507405
| 36>   O                      10.991320            -2.294420            8.776849
| 37>   H                      11.814612            -2.590562            9.205641
| 38>   H                      11.764814            -0.857709            7.498647
| 39>   H                      12.122750            -2.483678            6.969875
| 40>   H                      10.452367            -1.798629            6.862661
| 41>   C                    : 7.527733             -3.690692            8.592855
| 42>   O                    : 8.773299             -4.235503            8.239078
| 43>   H                    : 9.453713             -3.525060            8.388681
| 44>   H                    : 6.792228             -3.555723            7.760058
| 45>   H                    : 7.113101             -4.348131            9.399772
| 46>   H                    : 7.661775             -2.667663            8.929465
| 47> *
| 48>
| 49> #Run DFT-D3 single point of the particle with dimer basis set
| 50> $new_job
| 51> %base "21-151_DFT_B"
| 52> ! wB97X-D3 def2-TZVP TIGHTSCF CHELPG PMODEL
| 53>
| 54> %scf
| 55> MaxIter 1000
| 56> end
| 57>
| 58> * xyz 0 1
| 59>   C                    : 11.352334            -1.833774            7.507405
| 60>   O                    : 10.991320            -2.294420            8.776849
| 61>   H                    : 11.814612            -2.590562            9.205641
| 62>   H                    : 11.764814            -0.857709            7.498647
| 63>   H                    : 12.122750            -2.483678            6.969875
| 64>   H                    : 10.452367            -1.798629            6.862661
| 65>   C                      7.527733             -3.690692            8.592855
| 66>   O                      8.773299             -4.235503            8.239078
| 67>   H                      9.453713             -3.525060            8.388681
| 68>   H                      6.792228             -3.555723            7.760058
| 69>   H                      7.113101             -4.348131            9.399772
| 70>   H                      7.661775             -2.667663            8.929465
| 71> *
| 72>
| 73>                          ****END OF INPUT****
 Total Charge           Charge          ....    0
 Multiplicity           Mult            ....    1
 Number of Electrons    NEL             ....   36
Dispersion correction           -0.001768254
FINAL SINGLE POINT ENERGY      -231.474178762841
Dispersion correction           -0.000245969
FINAL SINGLE POINT ENERGY      -115.734381271046

CARTESIAN COORDINATES (ANGSTROEM)
---------------------------------
  C     11.352334   -1.833774    7.507405
  O     10.991320   -2.294420    8.776849
  H     11.814612   -2.590562    9.205641
  H     11.764814   -0.857709    7.498647
  H     12.122750   -2.483678    6.969875
  H     10.452367   -1.798629    6.862661
  C      7.527733   -3.690692    8.592855
  O      8.773299   -4.235503    8.239078
  H      9.453713   -3.525060    8.388681
  H      6.792228   -3.555723    7.760058
  H      7.113101   -4.348131    9.399772
  H      7.661775   -2.667663    8.929465

 Multiplicity           Mult            ....    1
 Number of Electrons    NEL             ....   18
 Basis Dimension        Dim             ....  172

ORBITAL ENERGIES
----------------

  NO   OCC          E(Eh)            E(eV)
   0   2.0000     -19.234138      -523.3875
   1   2.0000     -10.316613      -280.7293
   2   2.0000      -1.134619       -30.8745
   3   2.0000      -0.787728       -21.4352
   4   2.0000      -0.613368       -16.6906
   5   2.0000      -0.538581       -14.6555
   6   2.0000      -0.525636       -14.3033
   7   2.0000      -0.430291       -11.7088
   8   2.0000      -0.372020       -10.1232
   9   0.0000       0.067142         1.8270
  10   0.0000       0.130295         3.5455
  11   0.0000       0.148763         4.0480
  12   0.0000       0.165824         4.5123
  13   0.0000       0.186060         5.0629

MULLIKEN ATOMIC CHARGES
-----------------------
   0 C :   -0.000860
   1 O :   -0.001250
   2 H :   -0.000378
   3 H :   -0.000287
   4 H :    0.000092
   5 H :   -0.003673
   6 C :   -0.163827
   7 O :   -0.461690
   8 H :    0.315639
   9 H :    0.103351
  10 H :    0.112860
  11 H :    0.100022
Sum of atomic charges:    0.0000000

LOEWDIN ATOMIC CHARGES
----------------------
   0 C :   -0.007351
   1 O :   -0.015427
   2 H :   -0.001038
   3 H :   -0.000129
   4 H :   -0.000140
   5 H :   -0.002565
   6 C :   -0.401083
   7 O :   -0.076218
   8 H :    0.201509
   9 H :    0.101278
  10 H :    0.107484
  11 H :    0.093681

  Mayer bond orders larger than 0.1
B(  6-C ,  7-O ) :   1.0006 B(  6-C ,  9-H ) :   0.9650 B(  6-C , 10-H ) :   0.9796
B(  6-C , 11-H ) :   0.9873 B(  7-O ,  8-H ) :   0.9025

Dispersion correction           -0.000248385
FINAL SINGLE POINT ENERGY      -115.730854042249

DIPOLE MOMENT
-------------
                                X             Y             Z
Electronic contribution:      1.54082      -0.87999      -0.51040
Nuclear contribution   :     -1.57890       1.56287       0.74762
                        -----------------------------------------
Total Dipole Moment    :     -0.03807       0.68288       0.23722
                        -----------------------------------------
Magnitude (a.u.)       :      0.72391
Magnitude (Debye)      :      1.84003

Rotational constants in cm-1:     4.148034     0.836510     0.806919
Rotational constants in MHz : 124354.942555 25077.944020 24190.813492

                             ****ORCA TERMINATED NORMALLY****
TOTAL RUN TIME: 0 days 0 hours 1 minutes 3 seconds 581 msec
