                         Program Version 4.1.2  - RELEASE  -
|  1> #Run DFT-D3 single point of the dimer
|  2> ! wB97X-D3 def2-TZVP TIGHTSCF CHELPG PMODEL PAL8
|  3>
|  4> %base "20-136_DFT_AB"
|  5>
|  6> %scf
|  7> MaxIter 1000
|  8> end
|  9>
| 10> * xyz 0 1
| 11>   C                      2.644582             -4.496149            4.921701
| 12>   O                      1.571882             -5.465876            5.016327
| 13>   H                      0.734321             -5.043278            5.354497
| 14>   H                      3.257729             -4.554362            5.857195
| 15>   H                      3.420873             -4.747145            4.172869
| 16>   H                      2.283139             -3.498105            4.678804
| 17>   C                      3.521563             -8.395177            6.505984
| 18>   O                      2.803893             -7.956454            5.383226
| 19>   H                      2.484946             -7.127804            5.680847
| 20>   H                      2.867925             -8.568424            7.366260
| 21>   H                      3.884699             -9.352271            6.189371
| 22>   H                      4.433381             -7.748269            6.774794
| 23> *
| 24>
| 25> #Run DFT-D3 single point of the molecule with dimer basis set
| 26> $new_job
| 27> %base "20-136_DFT_A"
| 28> ! wB97X-D3 def2-TZVP TIGHTSCF CHELPG PMODEL
| 29>
| 30> %scf
| 31> MaxIter 1000
| 32> end
| 33>
| 34> * xyz 0 1
| 35>   C                      2.644582             -4.496149            4.921701
| 36>   O                      1.571882             -5.465876            5.016327
| 37>   H                      0.734321             -5.043278            5.354497
| 38>   H                      3.257729             -4.554362            5.857195
| 39>   H                      3.420873             -4.747145            4.172869
| 40>   H                      2.283139             -3.498105            4.678804
| 41>   C                    : 3.521563             -8.395177            6.505984
| 42>   O                    : 2.803893             -7.956454            5.383226
| 43>   H                    : 2.484946             -7.127804            5.680847
| 44>   H                    : 2.867925             -8.568424            7.366260
| 45>   H                    : 3.884699             -9.352271            6.189371
| 46>   H                    : 4.433381             -7.748269            6.774794
| 47> *
| 48>
| 49> #Run DFT-D3 single point of the particle with dimer basis set
| 50> $new_job
| 51> %base "20-136_DFT_B"
| 52> ! wB97X-D3 def2-TZVP TIGHTSCF CHELPG PMODEL
| 53>
| 54> %scf
| 55> MaxIter 1000
| 56> end
| 57>
| 58> * xyz 0 1
| 59>   C                    : 2.644582             -4.496149            4.921701
| 60>   O                    : 1.571882             -5.465876            5.016327
| 61>   H                    : 0.734321             -5.043278            5.354497
| 62>   H                    : 3.257729             -4.554362            5.857195
| 63>   H                    : 3.420873             -4.747145            4.172869
| 64>   H                    : 2.283139             -3.498105            4.678804
| 65>   C                      3.521563             -8.395177            6.505984
| 66>   O                      2.803893             -7.956454            5.383226
| 67>   H                      2.484946             -7.127804            5.680847
| 68>   H                      2.867925             -8.568424            7.366260
| 69>   H                      3.884699             -9.352271            6.189371
| 70>   H                      4.433381             -7.748269            6.774794
| 71> *
| 72>
| 73>                          ****END OF INPUT****
 Total Charge           Charge          ....    0
 Multiplicity           Mult            ....    1
 Number of Electrons    NEL             ....   36
Dispersion correction           -0.001772240
FINAL SINGLE POINT ENERGY      -231.467261547230
Dispersion correction           -0.000278783
FINAL SINGLE POINT ENERGY      -115.730127114241

CARTESIAN COORDINATES (ANGSTROEM)
---------------------------------
  C      2.644582   -4.496149    4.921701
  O      1.571882   -5.465876    5.016327
  H      0.734321   -5.043278    5.354497
  H      3.257729   -4.554362    5.857195
  H      3.420873   -4.747145    4.172869
  H      2.283139   -3.498105    4.678804
  C      3.521563   -8.395177    6.505984
  O      2.803893   -7.956454    5.383226
  H      2.484946   -7.127804    5.680847
  H      2.867925   -8.568424    7.366260
  H      3.884699   -9.352271    6.189371
  H      4.433381   -7.748269    6.774794

 Multiplicity           Mult            ....    1
 Number of Electrons    NEL             ....   18
 Basis Dimension        Dim             ....  172

ORBITAL ENERGIES
----------------

  NO   OCC          E(Eh)            E(eV)
   0   2.0000     -19.232275      -523.3368
   1   2.0000     -10.315193      -280.6907
   2   2.0000      -1.151089       -31.3227
   3   2.0000      -0.792526       -21.5657
   4   2.0000      -0.613961       -16.7067
   5   2.0000      -0.545072       -14.8322
   6   2.0000      -0.524050       -14.2601
   7   2.0000      -0.441086       -12.0025
   8   2.0000      -0.377614       -10.2754
   9   0.0000       0.073322         1.9952
  10   0.0000       0.134090         3.6488
  11   0.0000       0.149584         4.0704
  12   0.0000       0.167150         4.5484
  13   0.0000       0.193370         5.2619

MULLIKEN ATOMIC CHARGES
-----------------------
   0 C :   -0.006670
   1 O :   -0.000238
   2 H :   -0.000112
   3 H :    0.000338
   4 H :    0.000362
   5 H :   -0.000440
   6 C :   -0.167317
   7 O :   -0.446808
   8 H :    0.306308
   9 H :    0.105643
  10 H :    0.113439
  11 H :    0.095495
Sum of atomic charges:   -0.0000000

LOEWDIN ATOMIC CHARGES
----------------------
   0 C :   -0.007587
   1 O :   -0.016741
   2 H :   -0.000824
   3 H :   -0.000770
   4 H :   -0.000835
   5 H :   -0.000178
   6 C :   -0.399324
   7 O :   -0.039973
   8 H :    0.163555
   9 H :    0.094697
  10 H :    0.104397
  11 H :    0.103583

  Mayer bond orders larger than 0.1
B(  6-C ,  7-O ) :   1.0048 B(  6-C ,  9-H ) :   0.9780 B(  6-C , 10-H ) :   0.9804
B(  6-C , 11-H ) :   0.9646 B(  7-O ,  8-H ) :   0.9112

Dispersion correction           -0.000225396
FINAL SINGLE POINT ENERGY      -115.732424953440

DIPOLE MOMENT
-------------
                                X             Y             Z
Electronic contribution:     -0.93836       0.48611      -1.49485
Nuclear contribution   :      0.99903      -0.17626       2.08510
                        -----------------------------------------
Total Dipole Moment    :      0.06067       0.30985       0.59025
                        -----------------------------------------
Magnitude (a.u.)       :      0.66939
Magnitude (Debye)      :      1.70146

Rotational constants in cm-1:     4.176075     0.848283     0.825475
Rotational constants in MHz : 125195.573085 25430.892262 24747.110948

                             ****ORCA TERMINATED NORMALLY****
TOTAL RUN TIME: 0 days 0 hours 0 minutes 58 seconds 371 msec
