                         Program Version 4.1.2  - RELEASE  -
|  1> #Run DFT-D3 single point of the dimer
|  2> ! wB97X-D3 def2-TZVP TIGHTSCF CHELPG PMODEL PAL8
|  3>
|  4> %base "11-194_DFT_AB"
|  5>
|  6> %scf
|  7> MaxIter 1000
|  8> end
|  9>
| 10> * xyz 0 1
| 11>   C                      1.492828             0.368408             -5.091656
| 12>   O                      1.961456             0.876587             -3.881381
| 13>   H                      2.572465             0.270275             -3.456347
| 14>   H                      2.162575             0.620419             -5.884801
| 15>   H                      1.356467             -0.711084            -4.939639
| 16>   H                      0.515742             0.725289             -5.371675
| 17>   C                      5.800142             1.167734             -5.349560
| 18>   O                      5.149286             0.644954             -4.224245
| 19>   H                      4.889621             -0.272798            -4.504109
| 20>   H                      5.999497             2.296061             -5.132088
| 21>   H                      6.720259             0.635451             -5.634512
| 22>   H                      5.156302             1.094712             -6.343768
| 23> *
| 24>
| 25> #Run DFT-D3 single point of the molecule with dimer basis set
| 26> $new_job
| 27> %base "11-194_DFT_A"
| 28> ! wB97X-D3 def2-TZVP TIGHTSCF CHELPG PMODEL
| 29>
| 30> %scf
| 31> MaxIter 1000
| 32> end
| 33>
| 34> * xyz 0 1
| 35>   C                      1.492828             0.368408             -5.091656
| 36>   O                      1.961456             0.876587             -3.881381
| 37>   H                      2.572465             0.270275             -3.456347
| 38>   H                      2.162575             0.620419             -5.884801
| 39>   H                      1.356467             -0.711084            -4.939639
| 40>   H                      0.515742             0.725289             -5.371675
| 41>   C                    : 5.800142             1.167734             -5.349560
| 42>   O                    : 5.149286             0.644954             -4.224245
| 43>   H                    : 4.889621             -0.272798            -4.504109
| 44>   H                    : 5.999497             2.296061             -5.132088
| 45>   H                    : 6.720259             0.635451             -5.634512
| 46>   H                    : 5.156302             1.094712             -6.343768
| 47> *
| 48>
| 49> #Run DFT-D3 single point of the particle with dimer basis set
| 50> $new_job
| 51> %base "11-194_DFT_B"
| 52> ! wB97X-D3 def2-TZVP TIGHTSCF CHELPG PMODEL
| 53>
| 54> %scf
| 55> MaxIter 1000
| 56> end
| 57>
| 58> * xyz 0 1
| 59>   C                    : 1.492828             0.368408             -5.091656
| 60>   O                    : 1.961456             0.876587             -3.881381
| 61>   H                    : 2.572465             0.270275             -3.456347
| 62>   H                    : 2.162575             0.620419             -5.884801
| 63>   H                    : 1.356467             -0.711084            -4.939639
| 64>   H                    : 0.515742             0.725289             -5.371675
| 65>   C                      5.800142             1.167734             -5.349560
| 66>   O                      5.149286             0.644954             -4.224245
| 67>   H                      4.889621             -0.272798            -4.504109
| 68>   H                      5.999497             2.296061             -5.132088
| 69>   H                      6.720259             0.635451             -5.634512
| 70>   H                      5.156302             1.094712             -6.343768
| 71> *
| 72>
| 73>                          ****END OF INPUT****
 Total Charge           Charge          ....    0
 Multiplicity           Mult            ....    1
 Number of Electrons    NEL             ....   36
Dispersion correction           -0.001842400
FINAL SINGLE POINT ENERGY      -231.460525660831
Dispersion correction           -0.000226568
FINAL SINGLE POINT ENERGY      -115.733034270259

CARTESIAN COORDINATES (ANGSTROEM)
---------------------------------
  C      1.492828    0.368408   -5.091656
  O      1.961456    0.876587   -3.881381
  H      2.572465    0.270275   -3.456347
  H      2.162575    0.620419   -5.884801
  H      1.356467   -0.711084   -4.939639
  H      0.515742    0.725289   -5.371675
  C      5.800142    1.167734   -5.349560
  O      5.149286    0.644954   -4.224245
  H      4.889621   -0.272798   -4.504109
  H      5.999497    2.296061   -5.132088
  H      6.720259    0.635451   -5.634512
  H      5.156302    1.094712   -6.343768

 Multiplicity           Mult            ....    1
 Number of Electrons    NEL             ....   18
 Basis Dimension        Dim             ....  172

ORBITAL ENERGIES
----------------

  NO   OCC          E(Eh)            E(eV)
   0   2.0000     -19.241132      -523.5778
   1   2.0000     -10.330541      -281.1083
   2   2.0000      -1.141216       -31.0541
   3   2.0000      -0.778965       -21.1967
   4   2.0000      -0.613753       -16.7011
   5   2.0000      -0.531550       -14.4642
   6   2.0000      -0.520830       -14.1725
   7   2.0000      -0.437498       -11.9049
   8   2.0000      -0.372131       -10.1262
   9   0.0000       0.082640         2.2488
  10   0.0000       0.125130         3.4049
  11   0.0000       0.144290         3.9263
  12   0.0000       0.178640         4.8610
  13   0.0000       0.188460         5.1283

MULLIKEN ATOMIC CHARGES
-----------------------
   0 C :   -0.006118
   1 O :    0.002298
   2 H :   -0.003962
   3 H :    0.000342
   4 H :    0.000485
   5 H :   -0.000306
   6 C :   -0.181747
   7 O :   -0.450906
   8 H :    0.320384
   9 H :    0.121126
  10 H :    0.107483
  11 H :    0.090920
Sum of atomic charges:    0.0000000

LOEWDIN ATOMIC CHARGES
----------------------
   0 C :   -0.003449
   1 O :   -0.003493
   2 H :   -0.007291
   3 H :   -0.000879
   4 H :   -0.000077
   5 H :   -0.000097
   6 C :   -0.424336
   7 O :   -0.068154
   8 H :    0.193433
   9 H :    0.121613
  10 H :    0.091093
  11 H :    0.101637

  Mayer bond orders larger than 0.1
B(  6-C ,  7-O ) :   1.0061 B(  6-C ,  9-H ) :   0.9723 B(  6-C , 10-H ) :   0.9648
B(  6-C , 11-H ) :   0.9695 B(  7-O ,  8-H ) :   0.8910

Dispersion correction           -0.000257090
FINAL SINGLE POINT ENERGY      -115.727784919393

DIPOLE MOMENT
-------------
                                X             Y             Z
Electronic contribution:     -0.75509      -0.60577       1.72063
Nuclear contribution   :      0.85828       0.22366      -2.27750
                        -----------------------------------------
Total Dipole Moment    :      0.10319      -0.38211      -0.55686
                        -----------------------------------------
Magnitude (a.u.)       :      0.68319
Magnitude (Debye)      :      1.73654

Rotational constants in cm-1:     3.893184     0.838988     0.793861
Rotational constants in MHz : 116714.721921 25152.230540 23799.356561

                             ****ORCA TERMINATED NORMALLY****
TOTAL RUN TIME: 0 days 0 hours 1 minutes 13 seconds 860 msec
