                         Program Version 4.1.2  - RELEASE  -
|  1> #Run DFT-D3 single point of the dimer
|  2> ! wB97X-D3 def2-TZVP TIGHTSCF CHELPG PMODEL PAL8
|  3>
|  4> %base "17-113_DFT_AB"
|  5>
|  6> %scf
|  7> MaxIter 1000
|  8> end
|  9>
| 10> * xyz 0 1
| 11>   C                      2.691571             0.366371             -10.424290
| 12>   O                      4.008650             -0.066053            -10.578584
| 13>   H                      4.418914             -0.313077            -9.738664
| 14>   H                      2.458512             1.242766             -11.098825
| 15>   H                      2.004740             -0.422140            -10.644969
| 16>   H                      2.538412             0.814848             -9.449670
| 17>   C                      5.883173             0.533306             -8.003842
| 18>   O                      5.021030             -0.564613            -7.820799
| 19>   H                      4.841940             -0.573416            -6.877146
| 20>   H                      6.488032             0.635416             -7.090840
| 21>   H                      6.629714             0.371416             -8.743524
| 22>   H                      5.350123             1.407600             -8.375128
| 23> *
| 24>
| 25> #Run DFT-D3 single point of the molecule with dimer basis set
| 26> $new_job
| 27> %base "17-113_DFT_A"
| 28> ! wB97X-D3 def2-TZVP TIGHTSCF CHELPG PMODEL
| 29>
| 30> %scf
| 31> MaxIter 1000
| 32> end
| 33>
| 34> * xyz 0 1
| 35>   C                      2.691571             0.366371             -10.424290
| 36>   O                      4.008650             -0.066053            -10.578584
| 37>   H                      4.418914             -0.313077            -9.738664
| 38>   H                      2.458512             1.242766             -11.098825
| 39>   H                      2.004740             -0.422140            -10.644969
| 40>   H                      2.538412             0.814848             -9.449670
| 41>   C                    : 5.883173             0.533306             -8.003842
| 42>   O                    : 5.021030             -0.564613            -7.820799
| 43>   H                    : 4.841940             -0.573416            -6.877146
| 44>   H                    : 6.488032             0.635416             -7.090840
| 45>   H                    : 6.629714             0.371416             -8.743524
| 46>   H                    : 5.350123             1.407600             -8.375128
| 47> *
| 48>
| 49> #Run DFT-D3 single point of the particle with dimer basis set
| 50> $new_job
| 51> %base "17-113_DFT_B"
| 52> ! wB97X-D3 def2-TZVP TIGHTSCF CHELPG PMODEL
| 53>
| 54> %scf
| 55> MaxIter 1000
| 56> end
| 57>
| 58> * xyz 0 1
| 59>   C                    : 2.691571             0.366371             -10.424290
| 60>   O                    : 4.008650             -0.066053            -10.578584
| 61>   H                    : 4.418914             -0.313077            -9.738664
| 62>   H                    : 2.458512             1.242766             -11.098825
| 63>   H                    : 2.004740             -0.422140            -10.644969
| 64>   H                    : 2.538412             0.814848             -9.449670
| 65>   C                      5.883173             0.533306             -8.003842
| 66>   O                      5.021030             -0.564613            -7.820799
| 67>   H                      4.841940             -0.573416            -6.877146
| 68>   H                      6.488032             0.635416             -7.090840
| 69>   H                      6.629714             0.371416             -8.743524
| 70>   H                      5.350123             1.407600             -8.375128
| 71> *
| 72>
| 73>                          ****END OF INPUT****
 Total Charge           Charge          ....    0
 Multiplicity           Mult            ....    1
 Number of Electrons    NEL             ....   36
Dispersion correction           -0.002003131
FINAL SINGLE POINT ENERGY      -231.471022172249
Dispersion correction           -0.000246235
FINAL SINGLE POINT ENERGY      -115.733630086402

CARTESIAN COORDINATES (ANGSTROEM)
---------------------------------
  C      2.691571    0.366371  -10.424290
  O      4.008650   -0.066053  -10.578584
  H      4.418914   -0.313077   -9.738664
  H      2.458512    1.242766  -11.098825
  H      2.004740   -0.422140  -10.644969
  H      2.538412    0.814848   -9.449670
  C      5.883173    0.533306   -8.003842
  O      5.021030   -0.564613   -7.820799
  H      4.841940   -0.573416   -6.877146
  H      6.488032    0.635416   -7.090840
  H      6.629714    0.371416   -8.743524
  H      5.350123    1.407600   -8.375128

 Multiplicity           Mult            ....    1
 Number of Electrons    NEL             ....   18
 Basis Dimension        Dim             ....  172

ORBITAL ENERGIES
----------------

  NO   OCC          E(Eh)            E(eV)
   0   2.0000     -19.230351      -523.2845
   1   2.0000     -10.309207      -280.5278
   2   2.0000      -1.140268       -31.0283
   3   2.0000      -0.797205       -21.6931
   4   2.0000      -0.608804       -16.5664
   5   2.0000      -0.550421       -14.9777
   6   2.0000      -0.532927       -14.5017
   7   2.0000      -0.428991       -11.6734
   8   2.0000      -0.375080       -10.2064
   9   0.0000       0.094824         2.5803
  10   0.0000       0.123355         3.3567
  11   0.0000       0.153984         4.1901
  12   0.0000       0.188464         5.1284
  13   0.0000       0.192875         5.2484

MULLIKEN ATOMIC CHARGES
-----------------------
   0 C :   -0.000385
   1 O :   -0.000817
   2 H :    0.002232
   3 H :   -0.000174
   4 H :   -0.000053
   5 H :   -0.002777
   6 C :   -0.181052
   7 O :   -0.467588
   8 H :    0.314071
   9 H :    0.110716
  10 H :    0.116157
  11 H :    0.109669
Sum of atomic charges:   -0.0000000

LOEWDIN ATOMIC CHARGES
----------------------
   0 C :   -0.003476
   1 O :   -0.002850
   2 H :   -0.027376
   3 H :   -0.000034
   4 H :   -0.000037
   5 H :   -0.001293
   6 C :   -0.386770
   7 O :   -0.051445
   8 H :    0.171951
   9 H :    0.102982
  10 H :    0.099100
  11 H :    0.099247

  Mayer bond orders larger than 0.1
B(  6-C ,  7-O ) :   1.0044 B(  6-C ,  9-H ) :   0.9839 B(  6-C , 10-H ) :   0.9797
B(  6-C , 11-H ) :   0.9754 B(  7-O ,  8-H ) :   0.9016

Dispersion correction           -0.000231179
FINAL SINGLE POINT ENERGY      -115.731055077361

DIPOLE MOMENT
-------------
                                X             Y             Z
Electronic contribution:     -1.16207      -1.40770       0.09529
Nuclear contribution   :      1.42639       1.80961       0.41961
                        -----------------------------------------
Total Dipole Moment    :      0.26432       0.40191       0.51491
                        -----------------------------------------
Magnitude (a.u.)       :      0.70465
Magnitude (Debye)      :      1.79107

Rotational constants in cm-1:     4.346990     0.842407     0.812263
Rotational constants in MHz : 130319.493449 25254.721192 24351.018403

                             ****ORCA TERMINATED NORMALLY****
TOTAL RUN TIME: 0 days 0 hours 1 minutes 5 seconds 118 msec
