                         Program Version 4.1.2  - RELEASE  -
|  1> #Run DFT-D3 single point of the dimer
|  2> ! wB97X-D3 def2-TZVP TIGHTSCF CHELPG PMODEL PAL8
|  3>
|  4> %base "1-132_DFT_AB"
|  5>
|  6> %scf
|  7> MaxIter 1000
|  8> end
|  9>
| 10> * xyz 0 1
| 11>   C                      8.306979             -1.199292            -5.182348
| 12>   O                      7.537905             -1.703815            -6.246899
| 13>   H                      7.832907             -1.390369            -7.097220
| 14>   H                      8.184739             -0.143854            -5.200148
| 15>   H                      8.096430             -1.585496            -4.205000
| 16>   H                      9.355720             -1.370345            -5.333518
| 17>   C                      5.063099             -1.500940            -9.334182
| 18>   O                      4.808947             -0.973593            -8.100371
| 19>   H                      5.054176             -1.569019            -7.353234
| 20>   H                      6.141937             -1.618277            -9.421419
| 21>   H                      4.541301             -2.439187            -9.608588
| 22>   H                      4.776940             -0.855996            -10.258623
| 23> *
| 24>
| 25> #Run DFT-D3 single point of the molecule with dimer basis set
| 26> $new_job
| 27> %base "1-132_DFT_A"
| 28> ! wB97X-D3 def2-TZVP TIGHTSCF CHELPG PMODEL
| 29>
| 30> %scf
| 31> MaxIter 1000
| 32> end
| 33>
| 34> * xyz 0 1
| 35>   C                      8.306979             -1.199292            -5.182348
| 36>   O                      7.537905             -1.703815            -6.246899
| 37>   H                      7.832907             -1.390369            -7.097220
| 38>   H                      8.184739             -0.143854            -5.200148
| 39>   H                      8.096430             -1.585496            -4.205000
| 40>   H                      9.355720             -1.370345            -5.333518
| 41>   C                    : 5.063099             -1.500940            -9.334182
| 42>   O                    : 4.808947             -0.973593            -8.100371
| 43>   H                    : 5.054176             -1.569019            -7.353234
| 44>   H                    : 6.141937             -1.618277            -9.421419
| 45>   H                    : 4.541301             -2.439187            -9.608588
| 46>   H                    : 4.776940             -0.855996            -10.258623
| 47> *
| 48>
| 49> #Run DFT-D3 single point of the particle with dimer basis set
| 50> $new_job
| 51> %base "1-132_DFT_B"
| 52> ! wB97X-D3 def2-TZVP TIGHTSCF CHELPG PMODEL
| 53>
| 54> %scf
| 55> MaxIter 1000
| 56> end
| 57>
| 58> * xyz 0 1
| 59>   C                    : 8.306979             -1.199292            -5.182348
| 60>   O                    : 7.537905             -1.703815            -6.246899
| 61>   H                    : 7.832907             -1.390369            -7.097220
| 62>   H                    : 8.184739             -0.143854            -5.200148
| 63>   H                    : 8.096430             -1.585496            -4.205000
| 64>   H                    : 9.355720             -1.370345            -5.333518
| 65>   C                      5.063099             -1.500940            -9.334182
| 66>   O                      4.808947             -0.973593            -8.100371
| 67>   H                      5.054176             -1.569019            -7.353234
| 68>   H                      6.141937             -1.618277            -9.421419
| 69>   H                      4.541301             -2.439187            -9.608588
| 70>   H                      4.776940             -0.855996            -10.258623
| 71> *
| 72>
| 73>                          ****END OF INPUT****
 Total Charge           Charge          ....    0
 Multiplicity           Mult            ....    1
 Number of Electrons    NEL             ....   36
Dispersion correction           -0.001476980
FINAL SINGLE POINT ENERGY      -231.462346409406
Dispersion correction           -0.000227317
FINAL SINGLE POINT ENERGY      -115.731434263838

CARTESIAN COORDINATES (ANGSTROEM)
---------------------------------
  C      8.306979   -1.199292   -5.182348
  O      7.537905   -1.703815   -6.246899
  H      7.832907   -1.390369   -7.097220
  H      8.184739   -0.143854   -5.200148
  H      8.096430   -1.585496   -4.205000
  H      9.355720   -1.370345   -5.333518
  C      5.063099   -1.500940   -9.334182
  O      4.808947   -0.973593   -8.100371
  H      5.054176   -1.569019   -7.353234
  H      6.141937   -1.618277   -9.421419
  H      4.541301   -2.439187   -9.608588
  H      4.776940   -0.855996  -10.258623

 Multiplicity           Mult            ....    1
 Number of Electrons    NEL             ....   18
 Basis Dimension        Dim             ....  172

ORBITAL ENERGIES
----------------

  NO   OCC          E(Eh)            E(eV)
   0   2.0000     -19.234525      -523.3980
   1   2.0000     -10.317113      -280.7429
   2   2.0000      -1.146083       -31.1865
   3   2.0000      -0.790057       -21.4985
   4   2.0000      -0.618997       -16.8438
   5   2.0000      -0.550901       -14.9908
   6   2.0000      -0.527398       -14.3512
   7   2.0000      -0.412170       -11.2157
   8   2.0000      -0.372485       -10.1358
   9   0.0000       0.078031         2.1233
  10   0.0000       0.120312         3.2739
  11   0.0000       0.144028         3.9192
  12   0.0000       0.170308         4.6343
  13   0.0000       0.197089         5.3631

MULLIKEN ATOMIC CHARGES
-----------------------
   0 C :   -0.000385
   1 O :   -0.001962
   2 H :   -0.001079
   3 H :   -0.000149
   4 H :    0.000059
   5 H :    0.000002
   6 C :   -0.161744
   7 O :   -0.470421
   8 H :    0.327027
   9 H :    0.099997
  10 H :    0.096213
  11 H :    0.112440
Sum of atomic charges:    0.0000000

LOEWDIN ATOMIC CHARGES
----------------------
   0 C :   -0.000396
   1 O :   -0.003497
   2 H :   -0.001840
   3 H :   -0.000053
   4 H :   -0.000005
   5 H :   -0.000010
   6 C :   -0.440149
   7 O :   -0.048340
   8 H :    0.190099
   9 H :    0.091370
  10 H :    0.092599
  11 H :    0.120223

  Mayer bond orders larger than 0.1
B(  6-C ,  7-O ) :   1.0116 B(  6-C ,  9-H ) :   0.9840 B(  6-C , 10-H ) :   0.9736
B(  6-C , 11-H ) :   0.9655 B(  7-O ,  8-H ) :   0.8823

Dispersion correction           -0.000257958
FINAL SINGLE POINT ENERGY      -115.726643591523

DIPOLE MOMENT
-------------
                                X             Y             Z
Electronic contribution:     -0.43988       0.79820       1.75439
Nuclear contribution   :      0.68906      -1.37661      -1.73320
                        -----------------------------------------
Total Dipole Moment    :      0.24918      -0.57841       0.02119
                        -----------------------------------------
Magnitude (a.u.)       :      0.63015
Magnitude (Debye)      :      1.60172

Rotational constants in cm-1:     4.384949     0.846401     0.822475
Rotational constants in MHz : 131457.470964 25374.454461 24657.191649

                             ****ORCA TERMINATED NORMALLY****
TOTAL RUN TIME: 0 days 0 hours 5 minutes 38 seconds 583 msec
