                         Program Version 4.1.2  - RELEASE  -
|  1> #Run DFT-D3 single point of the dimer
|  2> ! wB97X-D3 def2-TZVP TIGHTSCF CHELPG PMODEL PAL8
|  3>
|  4> %base "2-99_DFT_AB"
|  5>
|  6> %scf
|  7> MaxIter 1000
|  8> end
|  9>
| 10> * xyz 0 1
| 11>   C                      10.131559            -0.929883            -3.069840
| 12>   O                      8.749478             -0.835584            -3.413896
| 13>   H                      8.295501             -1.609561            -3.197512
| 14>   H                      10.881002            -1.133662            -3.916814
| 15>   H                      10.518113            -0.027949            -2.527007
| 16>   H                      10.152257            -1.698416            -2.209900
| 17>   C                      7.289697             -2.882623            -5.340441
| 18>   O                      7.141422             -4.009326            -6.192982
| 19>   H                      7.377751             -4.729199            -5.616488
| 20>   H                      7.258130             -1.981662            -5.920827
| 21>   H                      6.546377             -2.809169            -4.543690
| 22>   H                      8.229608             -2.859571            -4.816235
| 23> *
| 24>
| 25> #Run DFT-D3 single point of the molecule with dimer basis set
| 26> $new_job
| 27> %base "2-99_DFT_A"
| 28> ! wB97X-D3 def2-TZVP TIGHTSCF CHELPG PMODEL
| 29>
| 30> %scf
| 31> MaxIter 1000
| 32> end
| 33>
| 34> * xyz 0 1
| 35>   C                      10.131559            -0.929883            -3.069840
| 36>   O                      8.749478             -0.835584            -3.413896
| 37>   H                      8.295501             -1.609561            -3.197512
| 38>   H                      10.881002            -1.133662            -3.916814
| 39>   H                      10.518113            -0.027949            -2.527007
| 40>   H                      10.152257            -1.698416            -2.209900
| 41>   C                    : 7.289697             -2.882623            -5.340441
| 42>   O                    : 7.141422             -4.009326            -6.192982
| 43>   H                    : 7.377751             -4.729199            -5.616488
| 44>   H                    : 7.258130             -1.981662            -5.920827
| 45>   H                    : 6.546377             -2.809169            -4.543690
| 46>   H                    : 8.229608             -2.859571            -4.816235
| 47> *
| 48>
| 49> #Run DFT-D3 single point of the particle with dimer basis set
| 50> $new_job
| 51> %base "2-99_DFT_B"
| 52> ! wB97X-D3 def2-TZVP TIGHTSCF CHELPG PMODEL
| 53>
| 54> %scf
| 55> MaxIter 1000
| 56> end
| 57>
| 58> * xyz 0 1
| 59>   C                    : 10.131559            -0.929883            -3.069840
| 60>   O                    : 8.749478             -0.835584            -3.413896
| 61>   H                    : 8.295501             -1.609561            -3.197512
| 62>   H                    : 10.881002            -1.133662            -3.916814
| 63>   H                    : 10.518113            -0.027949            -2.527007
| 64>   H                    : 10.152257            -1.698416            -2.209900
| 65>   C                      7.289697             -2.882623            -5.340441
| 66>   O                      7.141422             -4.009326            -6.192982
| 67>   H                      7.377751             -4.729199            -5.616488
| 68>   H                      7.258130             -1.981662            -5.920827
| 69>   H                      6.546377             -2.809169            -4.543690
| 70>   H                      8.229608             -2.859571            -4.816235
| 71> *
| 72>
| 73>                          ****END OF INPUT****
 Total Charge           Charge          ....    0
 Multiplicity           Mult            ....    1
 Number of Electrons    NEL             ....   36
Dispersion correction           -0.001739853
FINAL SINGLE POINT ENERGY      -231.458926459665
Dispersion correction           -0.000278317
FINAL SINGLE POINT ENERGY      -115.724882758816

CARTESIAN COORDINATES (ANGSTROEM)
---------------------------------
  C     10.131559   -0.929883   -3.069840
  O      8.749478   -0.835584   -3.413896
  H      8.295501   -1.609561   -3.197512
  H     10.881002   -1.133662   -3.916814
  H     10.518113   -0.027949   -2.527007
  H     10.152257   -1.698416   -2.209900
  C      7.289697   -2.882623   -5.340441
  O      7.141422   -4.009326   -6.192982
  H      7.377751   -4.729199   -5.616488
  H      7.258130   -1.981662   -5.920827
  H      6.546377   -2.809169   -4.543690
  H      8.229608   -2.859571   -4.816235

 Multiplicity           Mult            ....    1
 Number of Electrons    NEL             ....   18
 Basis Dimension        Dim             ....  172

ORBITAL ENERGIES
----------------

  NO   OCC          E(Eh)            E(eV)
   0   2.0000     -19.233785      -523.3779
   1   2.0000     -10.309033      -280.5230
   2   2.0000      -1.140773       -31.0420
   3   2.0000      -0.799046       -21.7431
   4   2.0000      -0.614526       -16.7221
   5   2.0000      -0.538350       -14.6493
   6   2.0000      -0.526823       -14.3356
   7   2.0000      -0.445792       -12.1306
   8   2.0000      -0.376027       -10.2322
   9   0.0000       0.082245         2.2380
  10   0.0000       0.118572         3.2265
  11   0.0000       0.145986         3.9725
  12   0.0000       0.180753         4.9185
  13   0.0000       0.188043         5.1169

MULLIKEN ATOMIC CHARGES
-----------------------
   0 C :    0.000058
   1 O :    0.000601
   2 H :   -0.003972
   3 H :   -0.000177
   4 H :   -0.000037
   5 H :   -0.000010
   6 C :   -0.170306
   7 O :   -0.460769
   8 H :    0.310982
   9 H :    0.119903
  10 H :    0.100018
  11 H :    0.103710
Sum of atomic charges:    0.0000000

LOEWDIN ATOMIC CHARGES
----------------------
   0 C :   -0.002852
   1 O :   -0.005047
   2 H :   -0.009822
   3 H :   -0.000268
   4 H :   -0.000050
   5 H :   -0.000102
   6 C :   -0.377868
   7 O :   -0.069873
   8 H :    0.166563
   9 H :    0.105819
  10 H :    0.095229
  11 H :    0.098269

  Mayer bond orders larger than 0.1
B(  6-C ,  7-O ) :   1.0048 B(  6-C ,  9-H ) :   0.9737 B(  6-C , 10-H ) :   0.9709
B(  6-C , 11-H ) :   0.9805 B(  7-O ,  8-H ) :   0.9063

Dispersion correction           -0.000231874
FINAL SINGLE POINT ENERGY      -115.734858376061

DIPOLE MOMENT
-------------
                                X             Y             Z
Electronic contribution:     -0.26046      -1.41066      -1.28744
Nuclear contribution   :      0.48417       1.40687       1.97191
                        -----------------------------------------
Total Dipole Moment    :      0.22371      -0.00379       0.68447
                        -----------------------------------------
Magnitude (a.u.)       :      0.72011
Magnitude (Debye)      :      1.83037

Rotational constants in cm-1:     4.428225     0.829026     0.795979
Rotational constants in MHz : 132754.852383 24853.588123 23862.860269

                             ****ORCA TERMINATED NORMALLY****
TOTAL RUN TIME: 0 days 0 hours 6 minutes 24 seconds 697 msec
