                         Program Version 4.1.2  - RELEASE  -
|  1> #Run DFT-D3 single point of the dimer
|  2> ! wB97X-D3 def2-TZVP TIGHTSCF CHELPG PMODEL PAL8
|  3>
|  4> %base "12-148_DFT_AB"
|  5>
|  6> %scf
|  7> MaxIter 1000
|  8> end
|  9>
| 10> * xyz 0 1
| 11>   C                      9.593647             9.761217             -0.123887
| 12>   O                      8.529113             9.505773             -1.008125
| 13>   H                      7.909642             8.855972             -0.683073
| 14>   H                      9.488921             9.329439             0.871033
| 15>   H                      10.485594            9.475938             -0.574217
| 16>   H                      9.706793             10.836368            0.068840
| 17>   C                      8.624912             10.634205            -4.484992
| 18>   O                      8.377446             9.432427             -3.867024
| 19>   H                      8.470871             9.577524             -2.909244
| 20>   H                      9.698390             10.845328            -4.516165
| 21>   H                      8.160481             10.843815            -5.491393
| 22>   H                      8.099689             11.472356            -3.885346
| 23> *
| 24>
| 25> #Run DFT-D3 single point of the molecule with dimer basis set
| 26> $new_job
| 27> %base "12-148_DFT_A"
| 28> ! wB97X-D3 def2-TZVP TIGHTSCF CHELPG PMODEL
| 29>
| 30> %scf
| 31> MaxIter 1000
| 32> end
| 33>
| 34> * xyz 0 1
| 35>   C                      9.593647             9.761217             -0.123887
| 36>   O                      8.529113             9.505773             -1.008125
| 37>   H                      7.909642             8.855972             -0.683073
| 38>   H                      9.488921             9.329439             0.871033
| 39>   H                      10.485594            9.475938             -0.574217
| 40>   H                      9.706793             10.836368            0.068840
| 41>   C                    : 8.624912             10.634205            -4.484992
| 42>   O                    : 8.377446             9.432427             -3.867024
| 43>   H                    : 8.470871             9.577524             -2.909244
| 44>   H                    : 9.698390             10.845328            -4.516165
| 45>   H                    : 8.160481             10.843815            -5.491393
| 46>   H                    : 8.099689             11.472356            -3.885346
| 47> *
| 48>
| 49> #Run DFT-D3 single point of the particle with dimer basis set
| 50> $new_job
| 51> %base "12-148_DFT_B"
| 52> ! wB97X-D3 def2-TZVP TIGHTSCF CHELPG PMODEL
| 53>
| 54> %scf
| 55> MaxIter 1000
| 56> end
| 57>
| 58> * xyz 0 1
| 59>   C                    : 9.593647             9.761217             -0.123887
| 60>   O                    : 8.529113             9.505773             -1.008125
| 61>   H                    : 7.909642             8.855972             -0.683073
| 62>   H                    : 9.488921             9.329439             0.871033
| 63>   H                    : 10.485594            9.475938             -0.574217
| 64>   H                    : 9.706793             10.836368            0.068840
| 65>   C                      8.624912             10.634205            -4.484992
| 66>   O                      8.377446             9.432427             -3.867024
| 67>   H                      8.470871             9.577524             -2.909244
| 68>   H                      9.698390             10.845328            -4.516165
| 69>   H                      8.160481             10.843815            -5.491393
| 70>   H                      8.099689             11.472356            -3.885346
| 71> *
| 72>
| 73>                          ****END OF INPUT****
 Total Charge           Charge          ....    0
 Multiplicity           Mult            ....    1
 Number of Electrons    NEL             ....   36
Dispersion correction           -0.001613912
FINAL SINGLE POINT ENERGY      -231.470070639391
Dispersion correction           -0.000255638
FINAL SINGLE POINT ENERGY      -115.732741553129

CARTESIAN COORDINATES (ANGSTROEM)
---------------------------------
  C      9.593647    9.761217   -0.123887
  O      8.529113    9.505773   -1.008125
  H      7.909642    8.855972   -0.683073
  H      9.488921    9.329439    0.871033
  H     10.485594    9.475938   -0.574217
  H      9.706793   10.836368    0.068840
  C      8.624912   10.634205   -4.484992
  O      8.377446    9.432427   -3.867024
  H      8.470871    9.577524   -2.909244
  H      9.698390   10.845328   -4.516165
  H      8.160481   10.843815   -5.491393
  H      8.099689   11.472356   -3.885346

 Multiplicity           Mult            ....    1
 Number of Electrons    NEL             ....   18
 Basis Dimension        Dim             ....  172

ORBITAL ENERGIES
----------------

  NO   OCC          E(Eh)            E(eV)
   0   2.0000     -19.234267      -523.3910
   1   2.0000     -10.320678      -280.8399
   2   2.0000      -1.149736       -31.2859
   3   2.0000      -0.786298       -21.3963
   4   2.0000      -0.615617       -16.7518
   5   2.0000      -0.551014       -14.9939
   6   2.0000      -0.530613       -14.4387
   7   2.0000      -0.418028       -11.3751
   8   2.0000      -0.373218       -10.1558
   9   0.0000       0.067896         1.8476
  10   0.0000       0.128827         3.5056
  11   0.0000       0.144036         3.9194
  12   0.0000       0.171906         4.6778
  13   0.0000       0.185305         5.0424

MULLIKEN ATOMIC CHARGES
-----------------------
   0 C :   -0.001338
   1 O :   -0.001691
   2 H :   -0.000375
   3 H :   -0.000043
   4 H :   -0.000221
   5 H :    0.000055
   6 C :   -0.167163
   7 O :   -0.456538
   8 H :    0.320613
   9 H :    0.102032
  10 H :    0.118325
  11 H :    0.086344
Sum of atomic charges:   -0.0000000

LOEWDIN ATOMIC CHARGES
----------------------
   0 C :   -0.002844
   1 O :   -0.020974
   2 H :   -0.001758
   3 H :   -0.000074
   4 H :   -0.000345
   5 H :   -0.000055
   6 C :   -0.433102
   7 O :   -0.043336
   8 H :    0.195690
   9 H :    0.092270
  10 H :    0.112827
  11 H :    0.101702

  Mayer bond orders larger than 0.1
B(  6-C ,  7-O ) :   0.9993 B(  6-C ,  9-H ) :   0.9741 B(  6-C , 10-H ) :   0.9653
B(  6-C , 11-H ) :   0.9867 B(  7-O ,  8-H ) :   0.8981

Dispersion correction           -0.000235937
FINAL SINGLE POINT ENERGY      -115.727644428228

DIPOLE MOMENT
-------------
                                X             Y             Z
Electronic contribution:     -0.27184      -1.88033       0.59153
Nuclear contribution   :      0.40431       2.40870      -0.22074
                        -----------------------------------------
Total Dipole Moment    :      0.13247       0.52837       0.37079
                        -----------------------------------------
Magnitude (a.u.)       :      0.65895
Magnitude (Debye)      :      1.67491

Rotational constants in cm-1:     4.195808     0.851024     0.828498
Rotational constants in MHz : 125787.157225 25513.061793 24837.748677

                             ****ORCA TERMINATED NORMALLY****
TOTAL RUN TIME: 0 days 0 hours 1 minutes 10 seconds 548 msec
