                         Program Version 4.1.2  - RELEASE  -
|  1> #Run DFT-D3 single point of the dimer
|  2> ! wB97X-D3 def2-TZVP TIGHTSCF CHELPG PMODEL PAL8
|  3>
|  4> %base "3-26_DFT_AB"
|  5>
|  6> %scf
|  7> MaxIter 1000
|  8> end
|  9>
| 10> * xyz 0 1
| 11>   C                      -1.479890            -2.782146            -10.347695
| 12>   O                      -2.119262            -3.328411            -11.446586
| 13>   H                      -1.445049            -3.506653            -12.123038
| 14>   H                      -2.045989            -2.790401            -9.457301
| 15>   H                      -0.487859            -3.274771            -10.077993
| 16>   H                      -1.208709            -1.733125            -10.415487
| 17>   C                      -0.476334            -6.443746            -10.023954
| 18>   O                      -1.875961            -6.487827            -9.636245
| 19>   H                      -1.998111            -5.789325            -8.966662
| 20>   H                      0.182757             -6.617556            -9.120200
| 21>   H                      -0.286599            -7.294597            -10.680926
| 22>   H                      -0.244265            -5.575583            -10.590777
| 23> *
| 24>
| 25> #Run DFT-D3 single point of the molecule with dimer basis set
| 26> $new_job
| 27> %base "3-26_DFT_A"
| 28> ! wB97X-D3 def2-TZVP TIGHTSCF CHELPG PMODEL
| 29>
| 30> %scf
| 31> MaxIter 1000
| 32> end
| 33>
| 34> * xyz 0 1
| 35>   C                      -1.479890            -2.782146            -10.347695
| 36>   O                      -2.119262            -3.328411            -11.446586
| 37>   H                      -1.445049            -3.506653            -12.123038
| 38>   H                      -2.045989            -2.790401            -9.457301
| 39>   H                      -0.487859            -3.274771            -10.077993
| 40>   H                      -1.208709            -1.733125            -10.415487
| 41>   C                    : -0.476334            -6.443746            -10.023954
| 42>   O                    : -1.875961            -6.487827            -9.636245
| 43>   H                    : -1.998111            -5.789325            -8.966662
| 44>   H                    : 0.182757             -6.617556            -9.120200
| 45>   H                    : -0.286599            -7.294597            -10.680926
| 46>   H                    : -0.244265            -5.575583            -10.590777
| 47> *
| 48>
| 49> #Run DFT-D3 single point of the particle with dimer basis set
| 50> $new_job
| 51> %base "3-26_DFT_B"
| 52> ! wB97X-D3 def2-TZVP TIGHTSCF CHELPG PMODEL
| 53>
| 54> %scf
| 55> MaxIter 1000
| 56> end
| 57>
| 58> * xyz 0 1
| 59>   C                    : -1.479890            -2.782146            -10.347695
| 60>   O                    : -2.119262            -3.328411            -11.446586
| 61>   H                    : -1.445049            -3.506653            -12.123038
| 62>   H                    : -2.045989            -2.790401            -9.457301
| 63>   H                    : -0.487859            -3.274771            -10.077993
| 64>   H                    : -1.208709            -1.733125            -10.415487
| 65>   C                      -0.476334            -6.443746            -10.023954
| 66>   O                      -1.875961            -6.487827            -9.636245
| 67>   H                      -1.998111            -5.789325            -8.966662
| 68>   H                      0.182757             -6.617556            -9.120200
| 69>   H                      -0.286599            -7.294597            -10.680926
| 70>   H                      -0.244265            -5.575583            -10.590777
| 71> *
| 72>
| 73>                          ****END OF INPUT****
 Total Charge           Charge          ....    0
 Multiplicity           Mult            ....    1
 Number of Electrons    NEL             ....   36
Dispersion correction           -0.002109482
FINAL SINGLE POINT ENERGY      -231.465957621679
Dispersion correction           -0.000252274
FINAL SINGLE POINT ENERGY      -115.731638483094

CARTESIAN COORDINATES (ANGSTROEM)
---------------------------------
  C     -1.479890   -2.782146  -10.347695
  O     -2.119262   -3.328411  -11.446586
  H     -1.445049   -3.506653  -12.123038
  H     -2.045989   -2.790401   -9.457301
  H     -0.487859   -3.274771  -10.077993
  H     -1.208709   -1.733125  -10.415487
  C     -0.476334   -6.443746  -10.023954
  O     -1.875961   -6.487827   -9.636245
  H     -1.998111   -5.789325   -8.966662
  H      0.182757   -6.617556   -9.120200
  H     -0.286599   -7.294597  -10.680926
  H     -0.244265   -5.575583  -10.590777

 Multiplicity           Mult            ....    1
 Number of Electrons    NEL             ....   18
 Basis Dimension        Dim             ....  172

ORBITAL ENERGIES
----------------

  NO   OCC          E(Eh)            E(eV)
   0   2.0000     -19.231747      -523.3224
   1   2.0000     -10.316469      -280.7254
   2   2.0000      -1.122460       -30.5437
   3   2.0000      -0.795460       -21.6456
   4   2.0000      -0.597532       -16.2597
   5   2.0000      -0.546450       -14.8696
   6   2.0000      -0.519642       -14.1402
   7   2.0000      -0.432847       -11.7784
   8   2.0000      -0.377390       -10.2693
   9   0.0000       0.077075         2.0973
  10   0.0000       0.128741         3.5032
  11   0.0000       0.145986         3.9725
  12   0.0000       0.163476         4.4484
  13   0.0000       0.195029         5.3070

MULLIKEN ATOMIC CHARGES
-----------------------
   0 C :   -0.005491
   1 O :    0.001196
   2 H :    0.000134
   3 H :    0.000134
   4 H :    0.000155
   5 H :   -0.000028
   6 C :   -0.179980
   7 O :   -0.478468
   8 H :    0.313412
   9 H :    0.108048
  10 H :    0.125325
  11 H :    0.115563
Sum of atomic charges:   -0.0000000

LOEWDIN ATOMIC CHARGES
----------------------
   0 C :   -0.005960
   1 O :   -0.000863
   2 H :   -0.000644
   3 H :   -0.000591
   4 H :   -0.003555
   5 H :   -0.000081
   6 C :   -0.357517
   7 O :   -0.108960
   8 H :    0.173270
   9 H :    0.105232
  10 H :    0.109013
  11 H :    0.090657

  Mayer bond orders larger than 0.1
B(  6-C ,  7-O ) :   1.0007 B(  6-C ,  9-H ) :   0.9805 B(  6-C , 10-H ) :   0.9753
B(  6-C , 11-H ) :   0.9670 B(  7-O ,  8-H ) :   0.9011

Dispersion correction           -0.000254748
FINAL SINGLE POINT ENERGY      -115.734265868618

DIPOLE MOMENT
-------------
                                X             Y             Z
Electronic contribution:     -1.75011      -0.06050       0.35377
Nuclear contribution   :      2.25085       0.49040      -0.11932
                        -----------------------------------------
Total Dipole Moment    :      0.50074       0.42990       0.23446
                        -----------------------------------------
Magnitude (a.u.)       :      0.70038
Magnitude (Debye)      :      1.78021

Rotational constants in cm-1:     4.210442     0.794213     0.773104
Rotational constants in MHz : 126225.875205 23809.892334 23177.072612

                             ****ORCA TERMINATED NORMALLY****
TOTAL RUN TIME: 0 days 0 hours 6 minutes 26 seconds 712 msec
