                         Program Version 4.1.2  - RELEASE  -
|  1> #Run DFT-D3 single point of the dimer
|  2> ! wB97X-D3 def2-TZVP TIGHTSCF CHELPG PMODEL PAL8
|  3>
|  4> %base "9-175_DFT_AB"
|  5>
|  6> %scf
|  7> MaxIter 1000
|  8> end
|  9>
| 10> * xyz 0 1
| 11>   C                      0.662464             5.760091             -2.092293
| 12>   O                      -0.353807            5.728340             -1.234507
| 13>   H                      -1.200621            5.808599             -1.696995
| 14>   H                      1.466526             5.126160             -1.819299
| 15>   H                      0.339278             5.312765             -3.046957
| 16>   H                      1.071507             6.785773             -2.309820
| 17>   C                      0.464581             3.135544             1.057392
| 18>   O                      -0.033795            4.391398             1.287106
| 19>   H                      -0.049888            4.757126             0.377471
| 20>   H                      1.507871             3.076970             0.691846
| 21>   H                      0.225967             2.508593             1.971604
| 22>   H                      -0.090771            2.731226             0.174747
| 23> *
| 24>
| 25> #Run DFT-D3 single point of the molecule with dimer basis set
| 26> $new_job
| 27> %base "9-175_DFT_A"
| 28> ! wB97X-D3 def2-TZVP TIGHTSCF CHELPG PMODEL
| 29>
| 30> %scf
| 31> MaxIter 1000
| 32> end
| 33>
| 34> * xyz 0 1
| 35>   C                      0.662464             5.760091             -2.092293
| 36>   O                      -0.353807            5.728340             -1.234507
| 37>   H                      -1.200621            5.808599             -1.696995
| 38>   H                      1.466526             5.126160             -1.819299
| 39>   H                      0.339278             5.312765             -3.046957
| 40>   H                      1.071507             6.785773             -2.309820
| 41>   C                    : 0.464581             3.135544             1.057392
| 42>   O                    : -0.033795            4.391398             1.287106
| 43>   H                    : -0.049888            4.757126             0.377471
| 44>   H                    : 1.507871             3.076970             0.691846
| 45>   H                    : 0.225967             2.508593             1.971604
| 46>   H                    : -0.090771            2.731226             0.174747
| 47> *
| 48>
| 49> #Run DFT-D3 single point of the particle with dimer basis set
| 50> $new_job
| 51> %base "9-175_DFT_B"
| 52> ! wB97X-D3 def2-TZVP TIGHTSCF CHELPG PMODEL
| 53>
| 54> %scf
| 55> MaxIter 1000
| 56> end
| 57>
| 58> * xyz 0 1
| 59>   C                    : 0.662464             5.760091             -2.092293
| 60>   O                    : -0.353807            5.728340             -1.234507
| 61>   H                    : -1.200621            5.808599             -1.696995
| 62>   H                    : 1.466526             5.126160             -1.819299
| 63>   H                    : 0.339278             5.312765             -3.046957
| 64>   H                    : 1.071507             6.785773             -2.309820
| 65>   C                      0.464581             3.135544             1.057392
| 66>   O                      -0.033795            4.391398             1.287106
| 67>   H                      -0.049888            4.757126             0.377471
| 68>   H                      1.507871             3.076970             0.691846
| 69>   H                      0.225967             2.508593             1.971604
| 70>   H                      -0.090771            2.731226             0.174747
| 71> *
| 72>
| 73>                          ****END OF INPUT****
 Total Charge           Charge          ....    0
 Multiplicity           Mult            ....    1
 Number of Electrons    NEL             ....   36
Dispersion correction           -0.001865473
FINAL SINGLE POINT ENERGY      -231.464898091399
Dispersion correction           -0.000222591
FINAL SINGLE POINT ENERGY      -115.729001297511

CARTESIAN COORDINATES (ANGSTROEM)
---------------------------------
  C      0.662464    5.760091   -2.092293
  O     -0.353807    5.728340   -1.234507
  H     -1.200621    5.808599   -1.696995
  H      1.466526    5.126160   -1.819299
  H      0.339278    5.312765   -3.046957
  H      1.071507    6.785773   -2.309820
  C      0.464581    3.135544    1.057392
  O     -0.033795    4.391398    1.287106
  H     -0.049888    4.757126    0.377471
  H      1.507871    3.076970    0.691846
  H      0.225967    2.508593    1.971604
  H     -0.090771    2.731226    0.174747

 Multiplicity           Mult            ....    1
 Number of Electrons    NEL             ....   18
 Basis Dimension        Dim             ....  172

ORBITAL ENERGIES
----------------

  NO   OCC          E(Eh)            E(eV)
   0   2.0000     -19.235184      -523.4160
   1   2.0000     -10.317874      -280.7636
   2   2.0000      -1.154097       -31.4046
   3   2.0000      -0.781646       -21.2697
   4   2.0000      -0.623322       -16.9615
   5   2.0000      -0.540802       -14.7160
   6   2.0000      -0.527274       -14.3479
   7   2.0000      -0.439076       -11.9479
   8   2.0000      -0.367792       -10.0081
   9   0.0000       0.064413         1.7528
  10   0.0000       0.133166         3.6236
  11   0.0000       0.143735         3.9112
  12   0.0000       0.167677         4.5627
  13   0.0000       0.193907         5.2765

MULLIKEN ATOMIC CHARGES
-----------------------
   0 C :   -0.002174
   1 O :   -0.002112
   2 H :   -0.000163
   3 H :    0.000192
   4 H :   -0.000035
   5 H :    0.000078
   6 C :   -0.177460
   7 O :   -0.444175
   8 H :    0.314206
   9 H :    0.097601
  10 H :    0.122668
  11 H :    0.091374
Sum of atomic charges:   -0.0000000

LOEWDIN ATOMIC CHARGES
----------------------
   0 C :   -0.005325
   1 O :   -0.021324
   2 H :   -0.001201
   3 H :   -0.000750
   4 H :   -0.000101
   5 H :   -0.000083
   6 C :   -0.436403
   7 O :   -0.041115
   8 H :    0.200489
   9 H :    0.092856
  10 H :    0.117279
  11 H :    0.095679

  Mayer bond orders larger than 0.1
B(  6-C ,  7-O ) :   1.0002 B(  6-C ,  9-H ) :   0.9615 B(  6-C , 10-H ) :   0.9726
B(  6-C , 11-H ) :   0.9899 B(  7-O ,  8-H ) :   0.9053

Dispersion correction           -0.000208040
FINAL SINGLE POINT ENERGY      -115.727713280599

DIPOLE MOMENT
-------------
                                X             Y             Z
Electronic contribution:     -0.56649       1.69797       0.61848
Nuclear contribution   :      0.71283      -1.90805      -1.25978
                        -----------------------------------------
Total Dipole Moment    :      0.14634      -0.21008      -0.64130
                        -----------------------------------------
Magnitude (a.u.)       :      0.69052
Magnitude (Debye)      :      1.75517

Rotational constants in cm-1:     4.015930     0.891156     0.838671
Rotational constants in MHz : 120394.549146 26716.187673 25142.736809

                             ****ORCA TERMINATED NORMALLY****
TOTAL RUN TIME: 0 days 0 hours 0 minutes 48 seconds 327 msec
