                         Program Version 4.1.2  - RELEASE  -
|  1> #Run DFT-D3 single point of the dimer
|  2> ! wB97X-D3 def2-TZVP TIGHTSCF CHELPG PMODEL PAL8
|  3>
|  4> %base "14-202_DFT_AB"
|  5>
|  6> %scf
|  7> MaxIter 1000
|  8> end
|  9>
| 10> * xyz 0 1
| 11>   C                      4.066986             -8.339112            6.248650
| 12>   O                      4.629297             -9.524087            5.705682
| 13>   H                      4.602639             -10.203734           6.382518
| 14>   H                      4.664604             -7.882240            6.979995
| 15>   H                      3.936144             -7.518399            5.467593
| 16>   H                      3.111295             -8.558080            6.600876
| 17>   C                      7.029929             -10.246656           2.441205
| 18>   O                      6.272776             -10.696753           3.566318
| 19>   H                      5.828643             -9.955167            4.014150
| 20>   H                      7.734906             -11.057839           2.095183
| 21>   H                      6.360596             -10.006411           1.596224
| 22>   H                      7.665021             -9.402436            2.631238
| 23> *
| 24>
| 25> #Run DFT-D3 single point of the molecule with dimer basis set
| 26> $new_job
| 27> %base "14-202_DFT_A"
| 28> ! wB97X-D3 def2-TZVP TIGHTSCF CHELPG PMODEL
| 29>
| 30> %scf
| 31> MaxIter 1000
| 32> end
| 33>
| 34> * xyz 0 1
| 35>   C                      4.066986             -8.339112            6.248650
| 36>   O                      4.629297             -9.524087            5.705682
| 37>   H                      4.602639             -10.203734           6.382518
| 38>   H                      4.664604             -7.882240            6.979995
| 39>   H                      3.936144             -7.518399            5.467593
| 40>   H                      3.111295             -8.558080            6.600876
| 41>   C                    : 7.029929             -10.246656           2.441205
| 42>   O                    : 6.272776             -10.696753           3.566318
| 43>   H                    : 5.828643             -9.955167            4.014150
| 44>   H                    : 7.734906             -11.057839           2.095183
| 45>   H                    : 6.360596             -10.006411           1.596224
| 46>   H                    : 7.665021             -9.402436            2.631238
| 47> *
| 48>
| 49> #Run DFT-D3 single point of the particle with dimer basis set
| 50> $new_job
| 51> %base "14-202_DFT_B"
| 52> ! wB97X-D3 def2-TZVP TIGHTSCF CHELPG PMODEL
| 53>
| 54> %scf
| 55> MaxIter 1000
| 56> end
| 57>
| 58> * xyz 0 1
| 59>   C                    : 4.066986             -8.339112            6.248650
| 60>   O                    : 4.629297             -9.524087            5.705682
| 61>   H                    : 4.602639             -10.203734           6.382518
| 62>   H                    : 4.664604             -7.882240            6.979995
| 63>   H                    : 3.936144             -7.518399            5.467593
| 64>   H                    : 3.111295             -8.558080            6.600876
| 65>   C                      7.029929             -10.246656           2.441205
| 66>   O                      6.272776             -10.696753           3.566318
| 67>   H                      5.828643             -9.955167            4.014150
| 68>   H                      7.734906             -11.057839           2.095183
| 69>   H                      6.360596             -10.006411           1.596224
| 70>   H                      7.665021             -9.402436            2.631238
| 71> *
| 72>
| 73>                          ****END OF INPUT****
 Total Charge           Charge          ....    0
 Multiplicity           Mult            ....    1
 Number of Electrons    NEL             ....   36
Dispersion correction           -0.001320107
FINAL SINGLE POINT ENERGY      -231.472851285524
Dispersion correction           -0.000234261
FINAL SINGLE POINT ENERGY      -115.731189689225

CARTESIAN COORDINATES (ANGSTROEM)
---------------------------------
  C      4.066986   -8.339112    6.248650
  O      4.629297   -9.524087    5.705682
  H      4.602639  -10.203734    6.382518
  H      4.664604   -7.882240    6.979995
  H      3.936144   -7.518399    5.467593
  H      3.111295   -8.558080    6.600876
  C      7.029929  -10.246656    2.441205
  O      6.272776  -10.696753    3.566318
  H      5.828643   -9.955167    4.014150
  H      7.734906  -11.057839    2.095183
  H      6.360596  -10.006411    1.596224
  H      7.665021   -9.402436    2.631238

 Multiplicity           Mult            ....    1
 Number of Electrons    NEL             ....   18
 Basis Dimension        Dim             ....  172

ORBITAL ENERGIES
----------------

  NO   OCC          E(Eh)            E(eV)
   0   2.0000     -19.231284      -523.3098
   1   2.0000     -10.316950      -280.7385
   2   2.0000      -1.127117       -30.6704
   3   2.0000      -0.794930       -21.6312
   4   2.0000      -0.608471       -16.5573
   5   2.0000      -0.540102       -14.6969
   6   2.0000      -0.520844       -14.1729
   7   2.0000      -0.429143       -11.6776
   8   2.0000      -0.374765       -10.1979
   9   0.0000       0.073455         1.9988
  10   0.0000       0.126273         3.4361
  11   0.0000       0.146442         3.9849
  12   0.0000       0.170274         4.6334
  13   0.0000       0.197314         5.3692

MULLIKEN ATOMIC CHARGES
-----------------------
   0 C :   -0.000387
   1 O :    0.000037
   2 H :   -0.000270
   3 H :    0.000036
   4 H :   -0.000023
   5 H :   -0.000005
   6 C :   -0.168656
   7 O :   -0.480749
   8 H :    0.313058
   9 H :    0.120600
  10 H :    0.105570
  11 H :    0.110789
Sum of atomic charges:   -0.0000000

LOEWDIN ATOMIC CHARGES
----------------------
   0 C :   -0.001419
   1 O :   -0.012071
   2 H :   -0.001029
   3 H :   -0.000027
   4 H :   -0.000120
   5 H :   -0.000042
   6 C :   -0.379156
   7 O :   -0.089427
   8 H :    0.180205
   9 H :    0.116327
  10 H :    0.096927
  11 H :    0.089832

  Mayer bond orders larger than 0.1
B(  6-C ,  7-O ) :   0.9928 B(  6-C ,  9-H ) :   0.9709 B(  6-C , 10-H ) :   0.9774
B(  6-C , 11-H ) :   0.9728 B(  7-O ,  8-H ) :   0.8975

Dispersion correction           -0.000266110
FINAL SINGLE POINT ENERGY      -115.734851283231

DIPOLE MOMENT
-------------
                                X             Y             Z
Electronic contribution:     -0.93162      -0.63949       1.46029
Nuclear contribution   :      0.97826       1.30297      -1.63106
                        -----------------------------------------
Total Dipole Moment    :      0.04664       0.66347      -0.17077
                        -----------------------------------------
Magnitude (a.u.)       :      0.68668
Magnitude (Debye)      :      1.74540

Rotational constants in cm-1:     4.313440     0.805199     0.779175
Rotational constants in MHz : 129313.683236 24139.249424 23359.067785

                             ****ORCA TERMINATED NORMALLY****
TOTAL RUN TIME: 0 days 0 hours 1 minutes 8 seconds 710 msec
