                         Program Version 4.1.2  - RELEASE  -
|  1> #Run DFT-D3 single point of the dimer
|  2> ! wB97X-D3 def2-TZVP TIGHTSCF CHELPG PMODEL PAL8
|  3>
|  4> %base "10-24_DFT_AB"
|  5>
|  6> %scf
|  7> MaxIter 1000
|  8> end
|  9>
| 10> * xyz 0 1
| 11>   C                      9.584878             9.486159             -2.318972
| 12>   O                      8.406559             10.126476            -2.024404
| 13>   H                      7.795485             9.747395             -2.700372
| 14>   H                      9.401391             8.478447             -2.650509
| 15>   H                      10.200250            10.016750            -3.046298
| 16>   H                      10.196088            9.389947             -1.386170
| 17>   C                      9.979008             3.779882             -2.968114
| 18>   O                      8.790549             3.574668             -2.182853
| 19>   H                      8.020207             3.371418             -2.665762
| 20>   H                      9.783303             3.571876             -3.986280
| 21>   H                      10.287749            4.777586             -2.819528
| 22>   H                      10.848660            3.141710             -2.727772
| 23> *
| 24>
| 25> #Run DFT-D3 single point of the molecule with dimer basis set
| 26> $new_job
| 27> %base "10-24_DFT_A"
| 28> ! wB97X-D3 def2-TZVP TIGHTSCF CHELPG PMODEL
| 29>
| 30> %scf
| 31> MaxIter 1000
| 32> end
| 33>
| 34> * xyz 0 1
| 35>   C                      9.584878             9.486159             -2.318972
| 36>   O                      8.406559             10.126476            -2.024404
| 37>   H                      7.795485             9.747395             -2.700372
| 38>   H                      9.401391             8.478447             -2.650509
| 39>   H                      10.200250            10.016750            -3.046298
| 40>   H                      10.196088            9.389947             -1.386170
| 41>   C                    : 9.979008             3.779882             -2.968114
| 42>   O                    : 8.790549             3.574668             -2.182853
| 43>   H                    : 8.020207             3.371418             -2.665762
| 44>   H                    : 9.783303             3.571876             -3.986280
| 45>   H                    : 10.287749            4.777586             -2.819528
| 46>   H                    : 10.848660            3.141710             -2.727772
| 47> *
| 48>
| 49> #Run DFT-D3 single point of the particle with dimer basis set
| 50> $new_job
| 51> %base "10-24_DFT_B"
| 52> ! wB97X-D3 def2-TZVP TIGHTSCF CHELPG PMODEL
| 53>
| 54> %scf
| 55> MaxIter 1000
| 56> end
| 57>
| 58> * xyz 0 1
| 59>   C                    : 9.584878             9.486159             -2.318972
| 60>   O                    : 8.406559             10.126476            -2.024404
| 61>   H                    : 7.795485             9.747395             -2.700372
| 62>   H                    : 9.401391             8.478447             -2.650509
| 63>   H                    : 10.200250            10.016750            -3.046298
| 64>   H                    : 10.196088            9.389947             -1.386170
| 65>   C                      9.979008             3.779882             -2.968114
| 66>   O                      8.790549             3.574668             -2.182853
| 67>   H                      8.020207             3.371418             -2.665762
| 68>   H                      9.783303             3.571876             -3.986280
| 69>   H                      10.287749            4.777586             -2.819528
| 70>   H                      10.848660            3.141710             -2.727772
| 71> *
| 72>
| 73>                          ****END OF INPUT****
 Total Charge           Charge          ....    0
 Multiplicity           Mult            ....    1
 Number of Electrons    NEL             ....   36
Dispersion correction           -0.000638615
FINAL SINGLE POINT ENERGY      -231.461711266459
Dispersion correction           -0.000216259
FINAL SINGLE POINT ENERGY      -115.732214888136

CARTESIAN COORDINATES (ANGSTROEM)
---------------------------------
  C      9.584878    9.486159   -2.318972
  O      8.406559   10.126476   -2.024404
  H      7.795485    9.747395   -2.700372
  H      9.401391    8.478447   -2.650509
  H     10.200250   10.016750   -3.046298
  H     10.196088    9.389947   -1.386170
  C      9.979008    3.779882   -2.968114
  O      8.790549    3.574668   -2.182853
  H      8.020207    3.371418   -2.665762
  H      9.783303    3.571876   -3.986280
  H     10.287749    4.777586   -2.819528
  H     10.848660    3.141710   -2.727772

 Multiplicity           Mult            ....    1
 Number of Electrons    NEL             ....   18
 Basis Dimension        Dim             ....  172

ORBITAL ENERGIES
----------------

  NO   OCC          E(Eh)            E(eV)
   0   2.0000     -19.222535      -523.0718
   1   2.0000     -10.309654      -280.5399
   2   2.0000      -1.128240       -30.7010
   3   2.0000      -0.807432       -21.9713
   4   2.0000      -0.614352       -16.7174
   5   2.0000      -0.540864       -14.7176
   6   2.0000      -0.529824       -14.4172
   7   2.0000      -0.426248       -11.5988
   8   2.0000      -0.373625       -10.1669
   9   0.0000       0.087926         2.3926
  10   0.0000       0.118950         3.2368
  11   0.0000       0.148944         4.0530
  12   0.0000       0.168239         4.5780
  13   0.0000       0.182152         4.9566

MULLIKEN ATOMIC CHARGES
-----------------------
   0 C :   -0.000154
   1 O :    0.000001
   2 H :   -0.000000
   3 H :    0.000168
   4 H :    0.000010
   5 H :    0.000009
   6 C :   -0.154020
   7 O :   -0.496884
   8 H :    0.314509
   9 H :    0.110069
  10 H :    0.118185
  11 H :    0.108108
Sum of atomic charges:    0.0000000

LOEWDIN ATOMIC CHARGES
----------------------
   0 C :   -0.000038
   1 O :   -0.000001
   2 H :   -0.000000
   3 H :   -0.000051
   4 H :   -0.000000
   5 H :   -0.000002
   6 C :   -0.350840
   7 O :   -0.084872
   8 H :    0.145747
   9 H :    0.091331
  10 H :    0.094137
  11 H :    0.104589

  Mayer bond orders larger than 0.1
B(  6-C ,  7-O ) :   0.9988 B(  6-C ,  9-H ) :   0.9858 B(  6-C , 10-H ) :   0.9806
B(  6-C , 11-H ) :   0.9703 B(  7-O ,  8-H ) :   0.9019

Dispersion correction           -0.000260716
FINAL SINGLE POINT ENERGY      -115.729433314149

DIPOLE MOMENT
-------------
                                X             Y             Z
Electronic contribution:     -1.42449      -0.22219       1.03742
Nuclear contribution   :      1.41803       0.17240      -1.73352
                        -----------------------------------------
Total Dipole Moment    :     -0.00646      -0.04978      -0.69610
                        -----------------------------------------
Magnitude (a.u.)       :      0.69791
Magnitude (Debye)      :      1.77395

Rotational constants in cm-1:     4.645121     0.800207     0.776629
Rotational constants in MHz : 139257.221858 23989.589335 23282.745600

                             ****ORCA TERMINATED NORMALLY****
TOTAL RUN TIME: 0 days 0 hours 1 minutes 1 seconds 22 msec
