                         Program Version 4.1.2  - RELEASE  -
|  1> #Run DFT-D3 single point of the dimer
|  2> ! wB97X-D3 def2-TZVP TIGHTSCF CHELPG PMODEL PAL8
|  3>
|  4> %base "21-24_DFT_AB"
|  5>
|  6> %scf
|  7> MaxIter 1000
|  8> end
|  9>
| 10> * xyz 0 1
| 11>   C                      -3.092686            -1.451874            10.711364
| 12>   O                      -2.273163            -2.540808            10.545648
| 13>   H                      -2.684214            -3.268882            11.063944
| 14>   H                      -4.148534            -1.721086            10.677316
| 15>   H                      -2.829864            -0.967831            11.633750
| 16>   H                      -2.944506            -0.806253            9.884226
| 17>   C                      0.899759             -1.006463            9.567668
| 18>   O                      -0.178940            -0.310917            10.196296
| 19>   H                      -0.835749            -0.950961            10.534176
| 20>   H                      1.456993             -0.281065            8.977095
| 21>   H                      1.524682             -1.432313            10.410432
| 22>   H                      0.579859             -1.831959            8.926108
| 23> *
| 24>
| 25> #Run DFT-D3 single point of the molecule with dimer basis set
| 26> $new_job
| 27> %base "21-24_DFT_A"
| 28> ! wB97X-D3 def2-TZVP TIGHTSCF CHELPG PMODEL
| 29>
| 30> %scf
| 31> MaxIter 1000
| 32> end
| 33>
| 34> * xyz 0 1
| 35>   C                      -3.092686            -1.451874            10.711364
| 36>   O                      -2.273163            -2.540808            10.545648
| 37>   H                      -2.684214            -3.268882            11.063944
| 38>   H                      -4.148534            -1.721086            10.677316
| 39>   H                      -2.829864            -0.967831            11.633750
| 40>   H                      -2.944506            -0.806253            9.884226
| 41>   C                    : 0.899759             -1.006463            9.567668
| 42>   O                    : -0.178940            -0.310917            10.196296
| 43>   H                    : -0.835749            -0.950961            10.534176
| 44>   H                    : 1.456993             -0.281065            8.977095
| 45>   H                    : 1.524682             -1.432313            10.410432
| 46>   H                    : 0.579859             -1.831959            8.926108
| 47> *
| 48>
| 49> #Run DFT-D3 single point of the particle with dimer basis set
| 50> $new_job
| 51> %base "21-24_DFT_B"
| 52> ! wB97X-D3 def2-TZVP TIGHTSCF CHELPG PMODEL
| 53>
| 54> %scf
| 55> MaxIter 1000
| 56> end
| 57>
| 58> * xyz 0 1
| 59>   C                    : -3.092686            -1.451874            10.711364
| 60>   O                    : -2.273163            -2.540808            10.545648
| 61>   H                    : -2.684214            -3.268882            11.063944
| 62>   H                    : -4.148534            -1.721086            10.677316
| 63>   H                    : -2.829864            -0.967831            11.633750
| 64>   H                    : -2.944506            -0.806253            9.884226
| 65>   C                      0.899759             -1.006463            9.567668
| 66>   O                      -0.178940            -0.310917            10.196296
| 67>   H                      -0.835749            -0.950961            10.534176
| 68>   H                      1.456993             -0.281065            8.977095
| 69>   H                      1.524682             -1.432313            10.410432
| 70>   H                      0.579859             -1.831959            8.926108
| 71> *
| 72>
| 73>                          ****END OF INPUT****
 Total Charge           Charge          ....    0
 Multiplicity           Mult            ....    1
 Number of Electrons    NEL             ....   36
Dispersion correction           -0.001836756
FINAL SINGLE POINT ENERGY      -231.472863127402
Dispersion correction           -0.000205283
FINAL SINGLE POINT ENERGY      -115.733067135845

CARTESIAN COORDINATES (ANGSTROEM)
---------------------------------
  C     -3.092686   -1.451874   10.711364
  O     -2.273163   -2.540808   10.545648
  H     -2.684214   -3.268882   11.063944
  H     -4.148534   -1.721086   10.677316
  H     -2.829864   -0.967831   11.633750
  H     -2.944506   -0.806253    9.884226
  C      0.899759   -1.006463    9.567668
  O     -0.178940   -0.310917   10.196296
  H     -0.835749   -0.950961   10.534176
  H      1.456993   -0.281065    8.977095
  H      1.524682   -1.432313   10.410432
  H      0.579859   -1.831959    8.926108

 Multiplicity           Mult            ....    1
 Number of Electrons    NEL             ....   18
 Basis Dimension        Dim             ....  172

ORBITAL ENERGIES
----------------

  NO   OCC          E(Eh)            E(eV)
   0   2.0000     -19.230135      -523.2786
   1   2.0000     -10.318266      -280.7743
   2   2.0000      -1.127060       -30.6689
   3   2.0000      -0.792175       -21.5562
   4   2.0000      -0.606189       -16.4952
   5   2.0000      -0.539086       -14.6693
   6   2.0000      -0.523378       -14.2419
   7   2.0000      -0.435032       -11.8378
   8   2.0000      -0.370609       -10.0848
   9   0.0000       0.072404         1.9702
  10   0.0000       0.133221         3.6251
  11   0.0000       0.156865         4.2685
  12   0.0000       0.167716         4.5638
  13   0.0000       0.183658         4.9976

MULLIKEN ATOMIC CHARGES
-----------------------
   0 C :   -0.002107
   1 O :   -0.002649
   2 H :   -0.000152
   3 H :   -0.000328
   4 H :   -0.000319
   5 H :   -0.005613
   6 C :   -0.168253
   7 O :   -0.472480
   8 H :    0.312468
   9 H :    0.124634
  10 H :    0.105820
  11 H :    0.108979
Sum of atomic charges:   -0.0000000

LOEWDIN ATOMIC CHARGES
----------------------
   0 C :   -0.018207
   1 O :   -0.009820
   2 H :   -0.000400
   3 H :   -0.000188
   4 H :   -0.002098
   5 H :   -0.005631
   6 C :   -0.374300
   7 O :   -0.082808
   8 H :    0.187545
   9 H :    0.107657
  10 H :    0.103916
  11 H :    0.094335

  Mayer bond orders larger than 0.1
B(  6-C ,  7-O ) :   0.9864 B(  6-C ,  9-H ) :   0.9715 B(  6-C , 10-H ) :   0.9848
B(  6-C , 11-H ) :   0.9671 B(  7-O ,  8-H ) :   0.9027

Dispersion correction           -0.000246835
FINAL SINGLE POINT ENERGY      -115.735329801234

DIPOLE MOMENT
-------------
                                X             Y             Z
Electronic contribution:     -1.26863       1.00722       0.63441
Nuclear contribution   :      1.29749      -1.68375      -0.70020
                        -----------------------------------------
Total Dipole Moment    :      0.02886      -0.67653      -0.06579
                        -----------------------------------------
Magnitude (a.u.)       :      0.68033
Magnitude (Debye)      :      1.72927

Rotational constants in cm-1:     4.142907     0.818113     0.789820
Rotational constants in MHz : 124201.238033 24526.406557 23678.195864

                             ****ORCA TERMINATED NORMALLY****
TOTAL RUN TIME: 0 days 0 hours 1 minutes 3 seconds 779 msec
