                         Program Version 4.1.2  - RELEASE  -
|  1> #Run DFT-D3 single point of the dimer
|  2> ! wB97X-D3 def2-TZVP TIGHTSCF CHELPG PMODEL PAL8
|  3>
|  4> %base "13-215_DFT_AB"
|  5>
|  6> %scf
|  7> MaxIter 1000
|  8> end
|  9>
| 10> * xyz 0 1
| 11>   C                      7.641876             -1.443304            -3.827482
| 12>   O                      8.660792             -1.847088            -2.945813
| 13>   H                      8.216865             -1.976950            -2.076097
| 14>   H                      6.758530             -2.093491            -3.837452
| 15>   H                      7.290760             -0.440925            -3.544145
| 16>   H                      8.044087             -1.370167            -4.856427
| 17>   C                      6.434356             -0.699909            0.170540
| 18>   O                      5.365112             -0.900718            -0.728874
| 19>   H                      5.747872             -1.539752            -1.360051
| 20>   H                      7.251423             -0.122090            -0.272129
| 21>   H                      6.045687             -0.224587            1.058624
| 22>   H                      6.784626             -1.682548            0.522621
| 23> *
| 24>
| 25> #Run DFT-D3 single point of the molecule with dimer basis set
| 26> $new_job
| 27> %base "13-215_DFT_A"
| 28> ! wB97X-D3 def2-TZVP TIGHTSCF CHELPG PMODEL
| 29>
| 30> %scf
| 31> MaxIter 1000
| 32> end
| 33>
| 34> * xyz 0 1
| 35>   C                      7.641876             -1.443304            -3.827482
| 36>   O                      8.660792             -1.847088            -2.945813
| 37>   H                      8.216865             -1.976950            -2.076097
| 38>   H                      6.758530             -2.093491            -3.837452
| 39>   H                      7.290760             -0.440925            -3.544145
| 40>   H                      8.044087             -1.370167            -4.856427
| 41>   C                    : 6.434356             -0.699909            0.170540
| 42>   O                    : 5.365112             -0.900718            -0.728874
| 43>   H                    : 5.747872             -1.539752            -1.360051
| 44>   H                    : 7.251423             -0.122090            -0.272129
| 45>   H                    : 6.045687             -0.224587            1.058624
| 46>   H                    : 6.784626             -1.682548            0.522621
| 47> *
| 48>
| 49> #Run DFT-D3 single point of the particle with dimer basis set
| 50> $new_job
| 51> %base "13-215_DFT_B"
| 52> ! wB97X-D3 def2-TZVP TIGHTSCF CHELPG PMODEL
| 53>
| 54> %scf
| 55> MaxIter 1000
| 56> end
| 57>
| 58> * xyz 0 1
| 59>   C                    : 7.641876             -1.443304            -3.827482
| 60>   O                    : 8.660792             -1.847088            -2.945813
| 61>   H                    : 8.216865             -1.976950            -2.076097
| 62>   H                    : 6.758530             -2.093491            -3.837452
| 63>   H                    : 7.290760             -0.440925            -3.544145
| 64>   H                    : 8.044087             -1.370167            -4.856427
| 65>   C                      6.434356             -0.699909            0.170540
| 66>   O                      5.365112             -0.900718            -0.728874
| 67>   H                      5.747872             -1.539752            -1.360051
| 68>   H                      7.251423             -0.122090            -0.272129
| 69>   H                      6.045687             -0.224587            1.058624
| 70>   H                      6.784626             -1.682548            0.522621
| 71> *
| 72>
| 73>                          ****END OF INPUT****
 Total Charge           Charge          ....    0
 Multiplicity           Mult            ....    1
 Number of Electrons    NEL             ....   36
Dispersion correction           -0.002015207
FINAL SINGLE POINT ENERGY      -231.471028320068
Dispersion correction           -0.000233963
FINAL SINGLE POINT ENERGY      -115.735979907960

CARTESIAN COORDINATES (ANGSTROEM)
---------------------------------
  C      7.641876   -1.443304   -3.827482
  O      8.660792   -1.847088   -2.945813
  H      8.216865   -1.976950   -2.076097
  H      6.758530   -2.093491   -3.837452
  H      7.290760   -0.440925   -3.544145
  H      8.044087   -1.370167   -4.856427
  C      6.434356   -0.699909    0.170540
  O      5.365112   -0.900718   -0.728874
  H      5.747872   -1.539752   -1.360051
  H      7.251423   -0.122090   -0.272129
  H      6.045687   -0.224587    1.058624
  H      6.784626   -1.682548    0.522621

 Multiplicity           Mult            ....    1
 Number of Electrons    NEL             ....   18
 Basis Dimension        Dim             ....  172

ORBITAL ENERGIES
----------------

  NO   OCC          E(Eh)            E(eV)
   0   2.0000     -19.232514      -523.3433
   1   2.0000     -10.311712      -280.5959
   2   2.0000      -1.137999       -30.9665
   3   2.0000      -0.791323       -21.5330
   4   2.0000      -0.607020       -16.5179
   5   2.0000      -0.549161       -14.9434
   6   2.0000      -0.524870       -14.2824
   7   2.0000      -0.436867       -11.8878
   8   2.0000      -0.374671       -10.1953
   9   0.0000       0.070542         1.9195
  10   0.0000       0.132819         3.6142
  11   0.0000       0.147904         4.0247
  12   0.0000       0.173219         4.7135
  13   0.0000       0.183124         4.9830

MULLIKEN ATOMIC CHARGES
-----------------------
   0 C :   -0.003739
   1 O :    0.000198
   2 H :    0.000197
   3 H :    0.000280
   4 H :   -0.001041
   5 H :   -0.000352
   6 C :   -0.171781
   7 O :   -0.461131
   8 H :    0.314508
   9 H :    0.104852
  10 H :    0.121785
  11 H :    0.096223
Sum of atomic charges:    0.0000000

LOEWDIN ATOMIC CHARGES
----------------------
   0 C :   -0.003958
   1 O :   -0.000209
   2 H :   -0.002293
   3 H :   -0.000942
   4 H :   -0.001101
   5 H :   -0.000077
   6 C :   -0.389902
   7 O :   -0.078504
   8 H :    0.180529
   9 H :    0.094877
  10 H :    0.105283
  11 H :    0.096297

  Mayer bond orders larger than 0.1
B(  6-C ,  7-O ) :   1.0029 B(  6-C ,  9-H ) :   0.9690 B(  6-C , 10-H ) :   0.9756
B(  6-C , 11-H ) :   0.9869 B(  7-O ,  8-H ) :   0.9034

Dispersion correction           -0.000217383
FINAL SINGLE POINT ENERGY      -115.735200472141

DIPOLE MOMENT
-------------
                                X             Y             Z
Electronic contribution:     -1.44159      -0.06239      -1.09280
Nuclear contribution   :      2.07117      -0.25581       1.07775
                        -----------------------------------------
Total Dipole Moment    :      0.62957      -0.31821      -0.01505
                        -----------------------------------------
Magnitude (a.u.)       :      0.70558
Magnitude (Debye)      :      1.79344

Rotational constants in cm-1:     4.180320     0.842694     0.815318
Rotational constants in MHz : 125322.845311 25263.328122 24442.608645

                             ****ORCA TERMINATED NORMALLY****
TOTAL RUN TIME: 0 days 0 hours 1 minutes 1 seconds 792 msec
