                         Program Version 4.1.2  - RELEASE  -
|  1> #Run DFT-D3 single point of the dimer
|  2> ! wB97X-D3 def2-TZVP TIGHTSCF CHELPG PMODEL PAL8
|  3>
|  4> %base "12-142_DFT_AB"
|  5>
|  6> %scf
|  7> MaxIter 1000
|  8> end
|  9>
| 10> * xyz 0 1
| 11>   C                      0.089987             -3.422612            -0.634549
| 12>   O                      0.445780             -4.147892            -1.754119
| 13>   H                      0.889978             -3.509935            -2.357126
| 14>   H                      -1.004363            -3.350308            -0.387464
| 15>   H                      0.526002             -3.938563            0.227510
| 16>   H                      0.405570             -2.373225            -0.646882
| 17>   C                      -0.339149            -4.423199            -5.326055
| 18>   O                      -0.038769            -3.807960            -6.553983
| 19>   H                      0.856931             -4.029601            -6.766577
| 20>   H                      -1.183695            -3.938080            -4.910688
| 21>   H                      -0.641640            -5.450036            -5.588658
| 22>   H                      0.493558             -4.491203            -4.588605
| 23> *
| 24>
| 25> #Run DFT-D3 single point of the molecule with dimer basis set
| 26> $new_job
| 27> %base "12-142_DFT_A"
| 28> ! wB97X-D3 def2-TZVP TIGHTSCF CHELPG PMODEL
| 29>
| 30> %scf
| 31> MaxIter 1000
| 32> end
| 33>
| 34> * xyz 0 1
| 35>   C                      0.089987             -3.422612            -0.634549
| 36>   O                      0.445780             -4.147892            -1.754119
| 37>   H                      0.889978             -3.509935            -2.357126
| 38>   H                      -1.004363            -3.350308            -0.387464
| 39>   H                      0.526002             -3.938563            0.227510
| 40>   H                      0.405570             -2.373225            -0.646882
| 41>   C                    : -0.339149            -4.423199            -5.326055
| 42>   O                    : -0.038769            -3.807960            -6.553983
| 43>   H                    : 0.856931             -4.029601            -6.766577
| 44>   H                    : -1.183695            -3.938080            -4.910688
| 45>   H                    : -0.641640            -5.450036            -5.588658
| 46>   H                    : 0.493558             -4.491203            -4.588605
| 47> *
| 48>
| 49> #Run DFT-D3 single point of the particle with dimer basis set
| 50> $new_job
| 51> %base "12-142_DFT_B"
| 52> ! wB97X-D3 def2-TZVP TIGHTSCF CHELPG PMODEL
| 53>
| 54> %scf
| 55> MaxIter 1000
| 56> end
| 57>
| 58> * xyz 0 1
| 59>   C                    : 0.089987             -3.422612            -0.634549
| 60>   O                    : 0.445780             -4.147892            -1.754119
| 61>   H                    : 0.889978             -3.509935            -2.357126
| 62>   H                    : -1.004363            -3.350308            -0.387464
| 63>   H                    : 0.526002             -3.938563            0.227510
| 64>   H                    : 0.405570             -2.373225            -0.646882
| 65>   C                      -0.339149            -4.423199            -5.326055
| 66>   O                      -0.038769            -3.807960            -6.553983
| 67>   H                      0.856931             -4.029601            -6.766577
| 68>   H                      -1.183695            -3.938080            -4.910688
| 69>   H                      -0.641640            -5.450036            -5.588658
| 70>   H                      0.493558             -4.491203            -4.588605
| 71> *
| 72>
| 73>                          ****END OF INPUT****
 Total Charge           Charge          ....    0
 Multiplicity           Mult            ....    1
 Number of Electrons    NEL             ....   36
Dispersion correction           -0.001276556
FINAL SINGLE POINT ENERGY      -231.465918241669
Dispersion correction           -0.000248658
FINAL SINGLE POINT ENERGY      -115.731333137191

CARTESIAN COORDINATES (ANGSTROEM)
---------------------------------
  C      0.089987   -3.422612   -0.634549
  O      0.445780   -4.147892   -1.754119
  H      0.889978   -3.509935   -2.357126
  H     -1.004363   -3.350308   -0.387464
  H      0.526002   -3.938563    0.227510
  H      0.405570   -2.373225   -0.646882
  C     -0.339149   -4.423199   -5.326055
  O     -0.038769   -3.807960   -6.553983
  H      0.856931   -4.029601   -6.766577
  H     -1.183695   -3.938080   -4.910688
  H     -0.641640   -5.450036   -5.588658
  H      0.493558   -4.491203   -4.588605

 Multiplicity           Mult            ....    1
 Number of Electrons    NEL             ....   18
 Basis Dimension        Dim             ....  172

ORBITAL ENERGIES
----------------

  NO   OCC          E(Eh)            E(eV)
   0   2.0000     -19.227475      -523.2062
   1   2.0000     -10.311169      -280.5812
   2   2.0000      -1.141449       -31.0604
   3   2.0000      -0.796323       -21.6691
   4   2.0000      -0.613022       -16.6812
   5   2.0000      -0.541318       -14.7300
   6   2.0000      -0.528961       -14.3937
   7   2.0000      -0.440042       -11.9741
   8   2.0000      -0.368911       -10.0386
   9   0.0000       0.085116         2.3161
  10   0.0000       0.116858         3.1799
  11   0.0000       0.147309         4.0085
  12   0.0000       0.178440         4.8556
  13   0.0000       0.190358         5.1799

MULLIKEN ATOMIC CHARGES
-----------------------
   0 C :   -0.000352
   1 O :   -0.000508
   2 H :   -0.000300
   3 H :    0.000002
   4 H :    0.000009
   5 H :   -0.000003
   6 C :   -0.155240
   7 O :   -0.469507
   8 H :    0.311918
   9 H :    0.118129
  10 H :    0.094392
  11 H :    0.101461
Sum of atomic charges:   -0.0000000

LOEWDIN ATOMIC CHARGES
----------------------
   0 C :   -0.000182
   1 O :   -0.002010
   2 H :   -0.003904
   3 H :   -0.000007
   4 H :   -0.000004
   5 H :   -0.000003
   6 C :   -0.386407
   7 O :   -0.065594
   8 H :    0.160541
   9 H :    0.100244
  10 H :    0.097146
  11 H :    0.100179

  Mayer bond orders larger than 0.1
B(  6-C ,  7-O ) :   0.9983 B(  6-C ,  9-H ) :   0.9755 B(  6-C , 10-H ) :   0.9817
B(  6-C , 11-H ) :   0.9740 B(  7-O ,  8-H ) :   0.9035

Dispersion correction           -0.000229591
FINAL SINGLE POINT ENERGY      -115.733707173269

DIPOLE MOMENT
-------------
                                X             Y             Z
Electronic contribution:      0.28597       0.95476      -1.49928
Nuclear contribution   :      0.16211      -1.32541       1.84071
                        -----------------------------------------
Total Dipole Moment    :      0.44808      -0.37066       0.34143
                        -----------------------------------------
Magnitude (a.u.)       :      0.67434
Magnitude (Debye)      :      1.71403

Rotational constants in cm-1:     4.291687     0.846501     0.813625
Rotational constants in MHz : 128661.536777 25377.460418 24391.874336

                             ****ORCA TERMINATED NORMALLY****
TOTAL RUN TIME: 0 days 0 hours 1 minutes 14 seconds 161 msec
