                         Program Version 4.1.2  - RELEASE  -
|  1> #Run DFT-D3 single point of the dimer
|  2> ! wB97X-D3 def2-TZVP TIGHTSCF CHELPG PMODEL PAL8
|  3>
|  4> %base "13-115_DFT_AB"
|  5>
|  6> %scf
|  7> MaxIter 1000
|  8> end
|  9>
| 10> * xyz 0 1
| 11>   C                      -9.580108            6.495878             -7.923586
| 12>   O                      -9.042154            7.127626             -6.797535
| 13>   H                      -9.552280            6.797251             -6.024686
| 14>   H                      -8.951582            5.597189             -8.199487
| 15>   H                      -10.588789           6.138774             -7.701321
| 16>   H                      -9.605655            7.210337             -8.752568
| 17>   C                      -7.891198            9.115021             -4.324020
| 18>   O                      -8.470613            10.296675            -3.738521
| 19>   H                      -7.782166            10.973063            -3.734811
| 20>   H                      -8.695296            8.508652             -4.792260
| 21>   H                      -7.083510            9.382732             -5.054596
| 22>   H                      -7.445530            8.440400             -3.553511
| 23> *
| 24>
| 25> #Run DFT-D3 single point of the molecule with dimer basis set
| 26> $new_job
| 27> %base "13-115_DFT_A"
| 28> ! wB97X-D3 def2-TZVP TIGHTSCF CHELPG PMODEL
| 29>
| 30> %scf
| 31> MaxIter 1000
| 32> end
| 33>
| 34> * xyz 0 1
| 35>   C                      -9.580108            6.495878             -7.923586
| 36>   O                      -9.042154            7.127626             -6.797535
| 37>   H                      -9.552280            6.797251             -6.024686
| 38>   H                      -8.951582            5.597189             -8.199487
| 39>   H                      -10.588789           6.138774             -7.701321
| 40>   H                      -9.605655            7.210337             -8.752568
| 41>   C                    : -7.891198            9.115021             -4.324020
| 42>   O                    : -8.470613            10.296675            -3.738521
| 43>   H                    : -7.782166            10.973063            -3.734811
| 44>   H                    : -8.695296            8.508652             -4.792260
| 45>   H                    : -7.083510            9.382732             -5.054596
| 46>   H                    : -7.445530            8.440400             -3.553511
| 47> *
| 48>
| 49> #Run DFT-D3 single point of the particle with dimer basis set
| 50> $new_job
| 51> %base "13-115_DFT_B"
| 52> ! wB97X-D3 def2-TZVP TIGHTSCF CHELPG PMODEL
| 53>
| 54> %scf
| 55> MaxIter 1000
| 56> end
| 57>
| 58> * xyz 0 1
| 59>   C                    : -9.580108            6.495878             -7.923586
| 60>   O                    : -9.042154            7.127626             -6.797535
| 61>   H                    : -9.552280            6.797251             -6.024686
| 62>   H                    : -8.951582            5.597189             -8.199487
| 63>   H                    : -10.588789           6.138774             -7.701321
| 64>   H                    : -9.605655            7.210337             -8.752568
| 65>   C                      -7.891198            9.115021             -4.324020
| 66>   O                      -8.470613            10.296675            -3.738521
| 67>   H                      -7.782166            10.973063            -3.734811
| 68>   H                      -8.695296            8.508652             -4.792260
| 69>   H                      -7.083510            9.382732             -5.054596
| 70>   H                      -7.445530            8.440400             -3.553511
| 71> *
| 72>
| 73>                          ****END OF INPUT****
 Total Charge           Charge          ....    0
 Multiplicity           Mult            ....    1
 Number of Electrons    NEL             ....   36
Dispersion correction           -0.001325479
FINAL SINGLE POINT ENERGY      -231.469233436627
Dispersion correction           -0.000234316
FINAL SINGLE POINT ENERGY      -115.734460844982

CARTESIAN COORDINATES (ANGSTROEM)
---------------------------------
  C     -9.580108    6.495878   -7.923586
  O     -9.042154    7.127626   -6.797535
  H     -9.552280    6.797251   -6.024686
  H     -8.951582    5.597189   -8.199487
  H    -10.588789    6.138774   -7.701321
  H     -9.605655    7.210337   -8.752568
  C     -7.891198    9.115021   -4.324020
  O     -8.470613   10.296675   -3.738521
  H     -7.782166   10.973063   -3.734811
  H     -8.695296    8.508652   -4.792260
  H     -7.083510    9.382732   -5.054596
  H     -7.445530    8.440400   -3.553511

 Multiplicity           Mult            ....    1
 Number of Electrons    NEL             ....   18
 Basis Dimension        Dim             ....  172

ORBITAL ENERGIES
----------------

  NO   OCC          E(Eh)            E(eV)
   0   2.0000     -19.231669      -523.3203
   1   2.0000     -10.322559      -280.8911
   2   2.0000      -1.128465       -30.7071
   3   2.0000      -0.790335       -21.5061
   4   2.0000      -0.604983       -16.4624
   5   2.0000      -0.532407       -14.4875
   6   2.0000      -0.523875       -14.2554
   7   2.0000      -0.438036       -11.9196
   8   2.0000      -0.372544       -10.1374
   9   0.0000       0.086998         2.3673
  10   0.0000       0.112818         3.0699
  11   0.0000       0.144417         3.9298
  12   0.0000       0.177651         4.8341
  13   0.0000       0.194176         5.2838

MULLIKEN ATOMIC CHARGES
-----------------------
   0 C :   -0.000749
   1 O :   -0.000602
   2 H :   -0.000482
   3 H :    0.000010
   4 H :    0.000020
   5 H :    0.000006
   6 C :   -0.178400
   7 O :   -0.472888
   8 H :    0.315030
   9 H :    0.128312
  10 H :    0.106513
  11 H :    0.103230
Sum of atomic charges:    0.0000000

LOEWDIN ATOMIC CHARGES
----------------------
   0 C :   -0.000385
   1 O :   -0.006656
   2 H :   -0.005000
   3 H :   -0.000011
   4 H :   -0.000006
   5 H :   -0.000015
   6 C :   -0.374698
   7 O :   -0.098820
   8 H :    0.169714
   9 H :    0.114957
  10 H :    0.101996
  11 H :    0.098923

  Mayer bond orders larger than 0.1
B(  6-C ,  7-O ) :   1.0074 B(  6-C ,  9-H ) :   0.9743 B(  6-C , 10-H ) :   0.9791
B(  6-C , 11-H ) :   0.9655 B(  7-O ,  8-H ) :   0.9005

Dispersion correction           -0.000263176
FINAL SINGLE POINT ENERGY      -115.734549956258

DIPOLE MOMENT
-------------
                                X             Y             Z
Electronic contribution:     -0.87560       1.46914       0.72395
Nuclear contribution   :      1.53901      -1.51299      -0.96087
                        -----------------------------------------
Total Dipole Moment    :      0.66341      -0.04385      -0.23692
                        -----------------------------------------
Magnitude (a.u.)       :      0.70581
Magnitude (Debye)      :      1.79402

Rotational constants in cm-1:     4.134597     0.806256     0.771117
Rotational constants in MHz : 123952.103274 24170.949115 23117.493153

                             ****ORCA TERMINATED NORMALLY****
TOTAL RUN TIME: 0 days 0 hours 1 minutes 5 seconds 579 msec
