                         Program Version 4.1.2  - RELEASE  -
|  1> #Run DFT-D3 single point of the dimer
|  2> ! wB97X-D3 def2-TZVP TIGHTSCF CHELPG PMODEL PAL8
|  3>
|  4> %base "11-37_DFT_AB"
|  5>
|  6> %scf
|  7> MaxIter 1000
|  8> end
|  9>
| 10> * xyz 0 1
| 11>   C                      -4.262804            -3.298811            4.931557
| 12>   O                      -3.864564            -2.942529            6.210114
| 13>   H                      -2.899731            -2.834253            6.123950
| 14>   H                      -4.286093            -4.428996            4.908977
| 15>   H                      -5.227939            -2.841040            4.620827
| 16>   H                      -3.491225            -3.035285            4.130311
| 17>   C                      -2.004281            -1.792086            -0.094840
| 18>   O                      -1.622860            -1.390812            -1.373817
| 19>   H                      -1.735763            -2.098400            -2.056411
| 20>   H                      -2.906951            -2.470413            0.013711
| 21>   H                      -1.205589            -2.376961            0.445969
| 22>   H                      -2.270964            -1.025600            0.552701
| 23> *
| 24>
| 25> #Run DFT-D3 single point of the molecule with dimer basis set
| 26> $new_job
| 27> %base "11-37_DFT_A"
| 28> ! wB97X-D3 def2-TZVP TIGHTSCF CHELPG PMODEL
| 29>
| 30> %scf
| 31> MaxIter 1000
| 32> end
| 33>
| 34> * xyz 0 1
| 35>   C                      -4.262804            -3.298811            4.931557
| 36>   O                      -3.864564            -2.942529            6.210114
| 37>   H                      -2.899731            -2.834253            6.123950
| 38>   H                      -4.286093            -4.428996            4.908977
| 39>   H                      -5.227939            -2.841040            4.620827
| 40>   H                      -3.491225            -3.035285            4.130311
| 41>   C                    : -2.004281            -1.792086            -0.094840
| 42>   O                    : -1.622860            -1.390812            -1.373817
| 43>   H                    : -1.735763            -2.098400            -2.056411
| 44>   H                    : -2.906951            -2.470413            0.013711
| 45>   H                    : -1.205589            -2.376961            0.445969
| 46>   H                    : -2.270964            -1.025600            0.552701
| 47> *
| 48>
| 49> #Run DFT-D3 single point of the particle with dimer basis set
| 50> $new_job
| 51> %base "11-37_DFT_B"
| 52> ! wB97X-D3 def2-TZVP TIGHTSCF CHELPG PMODEL
| 53>
| 54> %scf
| 55> MaxIter 1000
| 56> end
| 57>
| 58> * xyz 0 1
| 59>   C                    : -4.262804            -3.298811            4.931557
| 60>   O                    : -3.864564            -2.942529            6.210114
| 61>   H                    : -2.899731            -2.834253            6.123950
| 62>   H                    : -4.286093            -4.428996            4.908977
| 63>   H                    : -5.227939            -2.841040            4.620827
| 64>   H                    : -3.491225            -3.035285            4.130311
| 65>   C                      -2.004281            -1.792086            -0.094840
| 66>   O                      -1.622860            -1.390812            -1.373817
| 67>   H                      -1.735763            -2.098400            -2.056411
| 68>   H                      -2.906951            -2.470413            0.013711
| 69>   H                      -1.205589            -2.376961            0.445969
| 70>   H                      -2.270964            -1.025600            0.552701
| 71> *
| 72>
| 73>                          ****END OF INPUT****
 Total Charge           Charge          ....    0
 Multiplicity           Mult            ....    1
 Number of Electrons    NEL             ....   36
Dispersion correction           -0.000669464
FINAL SINGLE POINT ENERGY      -231.457785672691
Dispersion correction           -0.000233823
FINAL SINGLE POINT ENERGY      -115.729786951079

CARTESIAN COORDINATES (ANGSTROEM)
---------------------------------
  C     -4.262804   -3.298811    4.931557
  O     -3.864564   -2.942529    6.210114
  H     -2.899731   -2.834253    6.123950
  H     -4.286093   -4.428996    4.908977
  H     -5.227939   -2.841040    4.620827
  H     -3.491225   -3.035285    4.130311
  C     -2.004281   -1.792086   -0.094840
  O     -1.622860   -1.390812   -1.373817
  H     -1.735763   -2.098400   -2.056411
  H     -2.906951   -2.470413    0.013711
  H     -1.205589   -2.376961    0.445969
  H     -2.270964   -1.025600    0.552701

 Multiplicity           Mult            ....    1
 Number of Electrons    NEL             ....   18
 Basis Dimension        Dim             ....  172

ORBITAL ENERGIES
----------------

  NO   OCC          E(Eh)            E(eV)
   0   2.0000     -19.237312      -523.4739
   1   2.0000     -10.313257      -280.6380
   2   2.0000      -1.136389       -30.9227
   3   2.0000      -0.798414       -21.7260
   4   2.0000      -0.617126       -16.7928
   5   2.0000      -0.540749       -14.7145
   6   2.0000      -0.525063       -14.2877
   7   2.0000      -0.426539       -11.6067
   8   2.0000      -0.372171       -10.1273
   9   0.0000       0.083170         2.2632
  10   0.0000       0.112421         3.0591
  11   0.0000       0.136291         3.7087
  12   0.0000       0.167429         4.5560
  13   0.0000       0.191590         5.2134

MULLIKEN ATOMIC CHARGES
-----------------------
   0 C :   -0.000013
   1 O :    0.000000
   2 H :   -0.000000
   3 H :   -0.000001
   4 H :   -0.000000
   5 H :    0.000012
   6 C :   -0.169499
   7 O :   -0.475122
   8 H :    0.326127
   9 H :    0.095572
  10 H :    0.095047
  11 H :    0.127877
Sum of atomic charges:   -0.0000000

LOEWDIN ATOMIC CHARGES
----------------------
   0 C :   -0.000013
   1 O :   -0.000001
   2 H :   -0.000000
   3 H :   -0.000000
   4 H :   -0.000001
   5 H :   -0.000035
   6 C :   -0.413139
   7 O :   -0.069658
   8 H :    0.190406
   9 H :    0.100471
  10 H :    0.098425
  11 H :    0.093546

  Mayer bond orders larger than 0.1
B(  6-C ,  7-O ) :   1.0145 B(  6-C ,  9-H ) :   0.9735 B(  6-C , 10-H ) :   0.9768
B(  6-C , 11-H ) :   0.9708 B(  7-O ,  8-H ) :   0.8857

Dispersion correction           -0.000282854
FINAL SINGLE POINT ENERGY      -115.727953290698

DIPOLE MOMENT
-------------
                                X             Y             Z
Electronic contribution:      0.55239       0.82405      -1.79097
Nuclear contribution   :     -0.79560      -1.40713       1.84225
                        -----------------------------------------
Total Dipole Moment    :     -0.24321      -0.58309       0.05127
                        -----------------------------------------
Magnitude (a.u.)       :      0.63385
Magnitude (Debye)      :      1.61113

Rotational constants in cm-1:     4.519591     0.818830     0.796296
Rotational constants in MHz : 135493.929299 24547.905020 23872.347355

                             ****ORCA TERMINATED NORMALLY****
TOTAL RUN TIME: 0 days 0 hours 1 minutes 3 seconds 315 msec
