                         Program Version 4.1.2  - RELEASE  -
|  1> #Run DFT-D3 single point of the dimer
|  2> ! wB97X-D3 def2-TZVP TIGHTSCF CHELPG PMODEL PAL8
|  3>
|  4> %base "2-137_DFT_AB"
|  5>
|  6> %scf
|  7> MaxIter 1000
|  8> end
|  9>
| 10> * xyz 0 1
| 11>   C                      4.533409             0.137027             -4.796207
| 12>   O                      4.436586             -1.244241            -4.528768
| 13>   H                      5.310152             -1.569002            -4.367743
| 14>   H                      5.533253             0.291524             -5.098196
| 15>   H                      3.883806             0.507045             -5.598548
| 16>   H                      4.424128             0.778533             -3.962578
| 17>   C                      4.859800             -5.892297            -4.253619
| 18>   O                      4.321151             -4.666534            -4.741819
| 19>   H                      4.981520             -3.996794            -4.816819
| 20>   H                      5.316835             -5.818093            -3.271815
| 21>   H                      4.069458             -6.661182            -4.133229
| 22>   H                      5.564534             -6.266359            -4.983089
| 23> *
| 24>
| 25> #Run DFT-D3 single point of the molecule with dimer basis set
| 26> $new_job
| 27> %base "2-137_DFT_A"
| 28> ! wB97X-D3 def2-TZVP TIGHTSCF CHELPG PMODEL
| 29>
| 30> %scf
| 31> MaxIter 1000
| 32> end
| 33>
| 34> * xyz 0 1
| 35>   C                      4.533409             0.137027             -4.796207
| 36>   O                      4.436586             -1.244241            -4.528768
| 37>   H                      5.310152             -1.569002            -4.367743
| 38>   H                      5.533253             0.291524             -5.098196
| 39>   H                      3.883806             0.507045             -5.598548
| 40>   H                      4.424128             0.778533             -3.962578
| 41>   C                    : 4.859800             -5.892297            -4.253619
| 42>   O                    : 4.321151             -4.666534            -4.741819
| 43>   H                    : 4.981520             -3.996794            -4.816819
| 44>   H                    : 5.316835             -5.818093            -3.271815
| 45>   H                    : 4.069458             -6.661182            -4.133229
| 46>   H                    : 5.564534             -6.266359            -4.983089
| 47> *
| 48>
| 49> #Run DFT-D3 single point of the particle with dimer basis set
| 50> $new_job
| 51> %base "2-137_DFT_B"
| 52> ! wB97X-D3 def2-TZVP TIGHTSCF CHELPG PMODEL
| 53>
| 54> %scf
| 55> MaxIter 1000
| 56> end
| 57>
| 58> * xyz 0 1
| 59>   C                    : 4.533409             0.137027             -4.796207
| 60>   O                    : 4.436586             -1.244241            -4.528768
| 61>   H                    : 5.310152             -1.569002            -4.367743
| 62>   H                    : 5.533253             0.291524             -5.098196
| 63>   H                    : 3.883806             0.507045             -5.598548
| 64>   H                    : 4.424128             0.778533             -3.962578
| 65>   C                      4.859800             -5.892297            -4.253619
| 66>   O                      4.321151             -4.666534            -4.741819
| 67>   H                      4.981520             -3.996794            -4.816819
| 68>   H                      5.316835             -5.818093            -3.271815
| 69>   H                      4.069458             -6.661182            -4.133229
| 70>   H                      5.564534             -6.266359            -4.983089
| 71> *
| 72>
| 73>                          ****END OF INPUT****
 Total Charge           Charge          ....    0
 Multiplicity           Mult            ....    1
 Number of Electrons    NEL             ....   36
Dispersion correction           -0.001118944
FINAL SINGLE POINT ENERGY      -231.463309981333
Dispersion correction           -0.000231859
FINAL SINGLE POINT ENERGY      -115.730068331259

CARTESIAN COORDINATES (ANGSTROEM)
---------------------------------
  C      4.533409    0.137027   -4.796207
  O      4.436586   -1.244241   -4.528768
  H      5.310152   -1.569002   -4.367743
  H      5.533253    0.291524   -5.098196
  H      3.883806    0.507045   -5.598548
  H      4.424128    0.778533   -3.962578
  C      4.859800   -5.892297   -4.253619
  O      4.321151   -4.666534   -4.741819
  H      4.981520   -3.996794   -4.816819
  H      5.316835   -5.818093   -3.271815
  H      4.069458   -6.661182   -4.133229
  H      5.564534   -6.266359   -4.983089

 Multiplicity           Mult            ....    1
 Number of Electrons    NEL             ....   18
 Basis Dimension        Dim             ....  172

ORBITAL ENERGIES
----------------

  NO   OCC          E(Eh)            E(eV)
   0   2.0000     -19.226910      -523.1908
   1   2.0000     -10.313670      -280.6492
   2   2.0000      -1.133105       -30.8334
   3   2.0000      -0.799773       -21.7629
   4   2.0000      -0.610056       -16.6005
   5   2.0000      -0.546404       -14.8684
   6   2.0000      -0.525259       -14.2930
   7   2.0000      -0.427223       -11.6253
   8   2.0000      -0.375355       -10.2139
   9   0.0000       0.082225         2.2375
  10   0.0000       0.120525         3.2797
  11   0.0000       0.148120         4.0306
  12   0.0000       0.188844         5.1387
  13   0.0000       0.200192         5.4475

MULLIKEN ATOMIC CHARGES
-----------------------
   0 C :   -0.000001
   1 O :   -0.000583
   2 H :   -0.001545
   3 H :   -0.000004
   4 H :    0.000012
   5 H :   -0.000008
   6 C :   -0.162753
   7 O :   -0.482418
   8 H :    0.315300
   9 H :    0.104825
  10 H :    0.118012
  11 H :    0.109163
Sum of atomic charges:    0.0000000

LOEWDIN ATOMIC CHARGES
----------------------
   0 C :   -0.000084
   1 O :   -0.001670
   2 H :   -0.002306
   3 H :   -0.000002
   4 H :   -0.000002
   5 H :   -0.000002
   6 C :   -0.373476
   7 O :   -0.077358
   8 H :    0.155659
   9 H :    0.092936
  10 H :    0.112413
  11 H :    0.093890

  Mayer bond orders larger than 0.1
B(  6-C ,  7-O ) :   0.9938 B(  6-C ,  9-H ) :   0.9711 B(  6-C , 10-H ) :   0.9718
B(  6-C , 11-H ) :   0.9834 B(  7-O ,  8-H ) :   0.8985

Dispersion correction           -0.000251369
FINAL SINGLE POINT ENERGY      -115.735289918233

DIPOLE MOMENT
-------------
                                X             Y             Z
Electronic contribution:     -0.76199       1.52233      -0.59731
Nuclear contribution   :      1.40953      -1.61007       0.75504
                        -----------------------------------------
Total Dipole Moment    :      0.64754      -0.08774       0.15772
                        -----------------------------------------
Magnitude (a.u.)       :      0.67222
Magnitude (Debye)      :      1.70866

Rotational constants in cm-1:     4.418474     0.812684     0.789561
Rotational constants in MHz : 132462.518504 24363.645264 23670.454667

                             ****ORCA TERMINATED NORMALLY****
TOTAL RUN TIME: 0 days 0 hours 6 minutes 15 seconds 715 msec
