                         Program Version 4.1.2  - RELEASE  -
|  1> #Run DFT-D3 single point of the dimer
|  2> ! wB97X-D3 def2-TZVP TIGHTSCF CHELPG PMODEL PAL8
|  3>
|  4> %base "11-161_DFT_AB"
|  5>
|  6> %scf
|  7> MaxIter 1000
|  8> end
|  9>
| 10> * xyz 0 1
| 11>   C                      6.024470             -8.231093            8.793468
| 12>   O                      4.931331             -7.342656            8.887420
| 13>   H                      5.119239             -6.724231            9.558792
| 14>   H                      5.867052             -9.230234            9.302779
| 15>   H                      6.175789             -8.578846            7.811216
| 16>   H                      7.006053             -7.820709            9.129623
| 17>   C                      2.312583             -9.597128            9.765892
| 18>   O                      2.295911             -8.212829            9.421557
| 19>   H                      3.128611             -7.901689            9.017264
| 20>   H                      1.752548             -10.243067           9.003440
| 21>   H                      3.296545             -9.958385            9.557251
| 22>   H                      1.964115             -9.730017            10.797588
| 23> *
| 24>
| 25> #Run DFT-D3 single point of the molecule with dimer basis set
| 26> $new_job
| 27> %base "11-161_DFT_A"
| 28> ! wB97X-D3 def2-TZVP TIGHTSCF CHELPG PMODEL
| 29>
| 30> %scf
| 31> MaxIter 1000
| 32> end
| 33>
| 34> * xyz 0 1
| 35>   C                      6.024470             -8.231093            8.793468
| 36>   O                      4.931331             -7.342656            8.887420
| 37>   H                      5.119239             -6.724231            9.558792
| 38>   H                      5.867052             -9.230234            9.302779
| 39>   H                      6.175789             -8.578846            7.811216
| 40>   H                      7.006053             -7.820709            9.129623
| 41>   C                    : 2.312583             -9.597128            9.765892
| 42>   O                    : 2.295911             -8.212829            9.421557
| 43>   H                    : 3.128611             -7.901689            9.017264
| 44>   H                    : 1.752548             -10.243067           9.003440
| 45>   H                    : 3.296545             -9.958385            9.557251
| 46>   H                    : 1.964115             -9.730017            10.797588
| 47> *
| 48>
| 49> #Run DFT-D3 single point of the particle with dimer basis set
| 50> $new_job
| 51> %base "11-161_DFT_B"
| 52> ! wB97X-D3 def2-TZVP TIGHTSCF CHELPG PMODEL
| 53>
| 54> %scf
| 55> MaxIter 1000
| 56> end
| 57>
| 58> * xyz 0 1
| 59>   C                    : 6.024470             -8.231093            8.793468
| 60>   O                    : 4.931331             -7.342656            8.887420
| 61>   H                    : 5.119239             -6.724231            9.558792
| 62>   H                    : 5.867052             -9.230234            9.302779
| 63>   H                    : 6.175789             -8.578846            7.811216
| 64>   H                    : 7.006053             -7.820709            9.129623
| 65>   C                      2.312583             -9.597128            9.765892
| 66>   O                      2.295911             -8.212829            9.421557
| 67>   H                      3.128611             -7.901689            9.017264
| 68>   H                      1.752548             -10.243067           9.003440
| 69>   H                      3.296545             -9.958385            9.557251
| 70>   H                      1.964115             -9.730017            10.797588
| 71> *
| 72>
| 73>                          ****END OF INPUT****
 Total Charge           Charge          ....    0
 Multiplicity           Mult            ....    1
 Number of Electrons    NEL             ....   36
Dispersion correction           -0.001979416
FINAL SINGLE POINT ENERGY      -231.467679049224
Dispersion correction           -0.000268405
FINAL SINGLE POINT ENERGY      -115.731262361796

CARTESIAN COORDINATES (ANGSTROEM)
---------------------------------
  C      6.024470   -8.231093    8.793468
  O      4.931331   -7.342656    8.887420
  H      5.119239   -6.724231    9.558792
  H      5.867052   -9.230234    9.302779
  H      6.175789   -8.578846    7.811216
  H      7.006053   -7.820709    9.129623
  C      2.312583   -9.597128    9.765892
  O      2.295911   -8.212829    9.421557
  H      3.128611   -7.901689    9.017264
  H      1.752548  -10.243067    9.003440
  H      3.296545   -9.958385    9.557251
  H      1.964115   -9.730017   10.797588

 Multiplicity           Mult            ....    1
 Number of Electrons    NEL             ....   18
 Basis Dimension        Dim             ....  172

ORBITAL ENERGIES
----------------

  NO   OCC          E(Eh)            E(eV)
   0   2.0000     -19.228408      -523.2316
   1   2.0000     -10.318818      -280.7893
   2   2.0000      -1.125855       -30.6361
   3   2.0000      -0.794379       -21.6162
   4   2.0000      -0.612244       -16.6600
   5   2.0000      -0.542066       -14.7504
   6   2.0000      -0.520407       -14.1610
   7   2.0000      -0.425303       -11.5731
   8   2.0000      -0.370594       -10.0844
   9   0.0000       0.068064         1.8521
  10   0.0000       0.136227         3.7069
  11   0.0000       0.141206         3.8424
  12   0.0000       0.169774         4.6198
  13   0.0000       0.186989         5.0882

MULLIKEN ATOMIC CHARGES
-----------------------
   0 C :   -0.002472
   1 O :   -0.005037
   2 H :   -0.001125
   3 H :    0.000123
   4 H :    0.000219
   5 H :   -0.000024
   6 C :   -0.148083
   7 O :   -0.487481
   8 H :    0.319817
   9 H :    0.097031
  10 H :    0.104092
  11 H :    0.122941
Sum of atomic charges:   -0.0000000

LOEWDIN ATOMIC CHARGES
----------------------
   0 C :   -0.004743
   1 O :   -0.023312
   2 H :   -0.002736
   3 H :   -0.001607
   4 H :   -0.000098
   5 H :   -0.000078
   6 C :   -0.373210
   7 O :   -0.086459
   8 H :    0.186777
   9 H :    0.106593
  10 H :    0.092691
  11 H :    0.106182

  Mayer bond orders larger than 0.1
B(  6-C ,  7-O ) :   0.9925 B(  6-C ,  9-H ) :   0.9708 B(  6-C , 10-H ) :   0.9854
B(  6-C , 11-H ) :   0.9706 B(  7-O ,  8-H ) :   0.8983

Dispersion correction           -0.000257995
FINAL SINGLE POINT ENERGY      -115.728371974910

DIPOLE MOMENT
-------------
                                X             Y             Z
Electronic contribution:     -0.17744       1.75207      -0.20220
Nuclear contribution   :      0.76183      -2.12842       0.07871
                        -----------------------------------------
Total Dipole Moment    :      0.58439      -0.37635      -0.12348
                        -----------------------------------------
Magnitude (a.u.)       :      0.70597
Magnitude (Debye)      :      1.79444

Rotational constants in cm-1:     4.238276     0.813833     0.785526
Rotational constants in MHz : 127060.309238 24398.107308 23549.491764

                             ****ORCA TERMINATED NORMALLY****
TOTAL RUN TIME: 0 days 0 hours 1 minutes 13 seconds 379 msec
