                         Program Version 4.1.2  - RELEASE  -
|  1> #Run DFT-D3 single point of the dimer
|  2> ! wB97X-D3 def2-TZVP TIGHTSCF CHELPG PMODEL PAL8
|  3>
|  4> %base "20-178_DFT_AB"
|  5>
|  6> %scf
|  7> MaxIter 1000
|  8> end
|  9>
| 10> * xyz 0 1
| 11>   C                      4.364925             10.675978            8.489098
| 12>   O                      4.243347             9.309372             8.915826
| 13>   H                      5.063584             8.812677             8.699027
| 14>   H                      3.415212             11.253275            8.585645
| 15>   H                      5.153685             11.261331            8.957028
| 16>   H                      4.507066             10.811050            7.394606
| 17>   C                      0.810879             10.104836            10.445426
| 18>   O                      2.138398             10.380831            10.629635
| 19>   H                      2.629373             9.748071             10.075912
| 20>   H                      0.160036             10.742139            11.094478
| 21>   H                      0.490739             10.169066            9.375559
| 22>   H                      0.591546             9.056961             10.665496
| 23> *
| 24>
| 25> #Run DFT-D3 single point of the molecule with dimer basis set
| 26> $new_job
| 27> %base "20-178_DFT_A"
| 28> ! wB97X-D3 def2-TZVP TIGHTSCF CHELPG PMODEL
| 29>
| 30> %scf
| 31> MaxIter 1000
| 32> end
| 33>
| 34> * xyz 0 1
| 35>   C                      4.364925             10.675978            8.489098
| 36>   O                      4.243347             9.309372             8.915826
| 37>   H                      5.063584             8.812677             8.699027
| 38>   H                      3.415212             11.253275            8.585645
| 39>   H                      5.153685             11.261331            8.957028
| 40>   H                      4.507066             10.811050            7.394606
| 41>   C                    : 0.810879             10.104836            10.445426
| 42>   O                    : 2.138398             10.380831            10.629635
| 43>   H                    : 2.629373             9.748071             10.075912
| 44>   H                    : 0.160036             10.742139            11.094478
| 45>   H                    : 0.490739             10.169066            9.375559
| 46>   H                    : 0.591546             9.056961             10.665496
| 47> *
| 48>
| 49> #Run DFT-D3 single point of the particle with dimer basis set
| 50> $new_job
| 51> %base "20-178_DFT_B"
| 52> ! wB97X-D3 def2-TZVP TIGHTSCF CHELPG PMODEL
| 53>
| 54> %scf
| 55> MaxIter 1000
| 56> end
| 57>
| 58> * xyz 0 1
| 59>   C                    : 4.364925             10.675978            8.489098
| 60>   O                    : 4.243347             9.309372             8.915826
| 61>   H                    : 5.063584             8.812677             8.699027
| 62>   H                    : 3.415212             11.253275            8.585645
| 63>   H                    : 5.153685             11.261331            8.957028
| 64>   H                    : 4.507066             10.811050            7.394606
| 65>   C                      0.810879             10.104836            10.445426
| 66>   O                      2.138398             10.380831            10.629635
| 67>   H                      2.629373             9.748071             10.075912
| 68>   H                      0.160036             10.742139            11.094478
| 69>   H                      0.490739             10.169066            9.375559
| 70>   H                      0.591546             9.056961             10.665496
| 71> *
| 72>
| 73>                          ****END OF INPUT****
 Total Charge           Charge          ....    0
 Multiplicity           Mult            ....    1
 Number of Electrons    NEL             ....   36
Dispersion correction           -0.001841723
FINAL SINGLE POINT ENERGY      -231.471961902487
Dispersion correction           -0.000289134
FINAL SINGLE POINT ENERGY      -115.731511727890

CARTESIAN COORDINATES (ANGSTROEM)
---------------------------------
  C      4.364925   10.675978    8.489098
  O      4.243347    9.309372    8.915826
  H      5.063584    8.812677    8.699027
  H      3.415212   11.253275    8.585645
  H      5.153685   11.261331    8.957028
  H      4.507066   10.811050    7.394606
  C      0.810879   10.104836   10.445426
  O      2.138398   10.380831   10.629635
  H      2.629373    9.748071   10.075912
  H      0.160036   10.742139   11.094478
  H      0.490739   10.169066    9.375559
  H      0.591546    9.056961   10.665496

 Multiplicity           Mult            ....    1
 Number of Electrons    NEL             ....   18
 Basis Dimension        Dim             ....  172

ORBITAL ENERGIES
----------------

  NO   OCC          E(Eh)            E(eV)
   0   2.0000     -19.235633      -523.4282
   1   2.0000     -10.315059      -280.6870
   2   2.0000      -1.152556       -31.3627
   3   2.0000      -0.788986       -21.4694
   4   2.0000      -0.623524       -16.9670
   5   2.0000      -0.538548       -14.6546
   6   2.0000      -0.534367       -14.5409
   7   2.0000      -0.436776       -11.8853
   8   2.0000      -0.368374       -10.0240
   9   0.0000       0.076073         2.0701
  10   0.0000       0.130290         3.5454
  11   0.0000       0.151268         4.1162
  12   0.0000       0.169607         4.6152
  13   0.0000       0.193635         5.2691

MULLIKEN ATOMIC CHARGES
-----------------------
   0 C :   -0.002369
   1 O :   -0.000444
   2 H :   -0.000090
   3 H :   -0.008914
   4 H :   -0.000210
   5 H :   -0.000016
   6 C :   -0.162425
   7 O :   -0.445609
   8 H :    0.318237
   9 H :    0.115149
  10 H :    0.090316
  11 H :    0.096374
Sum of atomic charges:   -0.0000000

LOEWDIN ATOMIC CHARGES
----------------------
   0 C :   -0.016123
   1 O :   -0.014385
   2 H :   -0.000540
   3 H :   -0.009611
   4 H :   -0.000348
   5 H :   -0.000127
   6 C :   -0.429211
   7 O :   -0.023628
   8 H :    0.195873
   9 H :    0.113072
  10 H :    0.094501
  11 H :    0.090527

  Mayer bond orders larger than 0.1
B(  6-C ,  7-O ) :   1.0097 B(  6-C ,  9-H ) :   0.9713 B(  6-C , 10-H ) :   0.9709
B(  6-C , 11-H ) :   0.9849 B(  7-O ,  8-H ) :   0.8937

Dispersion correction           -0.000220647
FINAL SINGLE POINT ENERGY      -115.733724626591

DIPOLE MOMENT
-------------
                                X             Y             Z
Electronic contribution:      1.78510       0.58367       0.42185
Nuclear contribution   :     -1.96275      -1.09141      -0.81122
                        -----------------------------------------
Total Dipole Moment    :     -0.17765      -0.50775      -0.38936
                        -----------------------------------------
Magnitude (a.u.)       :      0.66406
Magnitude (Debye)      :      1.68790

Rotational constants in cm-1:     4.209470     0.877556     0.831199
Rotational constants in MHz : 126196.736473 26308.461295 24918.719108

                             ****ORCA TERMINATED NORMALLY****
TOTAL RUN TIME: 0 days 0 hours 1 minutes 11 seconds 219 msec
