                         Program Version 4.1.2  - RELEASE  -
|  1> #Run DFT-D3 single point of the dimer
|  2> ! wB97X-D3 def2-TZVP TIGHTSCF CHELPG PMODEL PAL8
|  3>
|  4> %base "5-56_DFT_AB"
|  5>
|  6> %scf
|  7> MaxIter 1000
|  8> end
|  9>
| 10> * xyz 0 1
| 11>   C                      -6.273322            -9.533329            -8.368384
| 12>   O                      -7.523562            -10.051300           -8.014050
| 13>   H                      -8.078851            -9.952586            -8.778788
| 14>   H                      -5.871098            -8.781854            -7.648397
| 15>   H                      -5.513111            -10.350072           -8.413968
| 16>   H                      -6.238926            -9.095729            -9.396470
| 17>   C                      -4.415804            -6.305064            -9.010949
| 18>   O                      -3.554945            -7.024887            -9.821782
| 19>   H                      -3.705395            -6.707970            -10.700897
| 20>   H                      -4.060751            -5.249625            -8.799378
| 21>   H                      -5.379806            -6.265267            -9.537826
| 22>   H                      -4.717809            -6.763836            -8.096143
| 23> *
| 24>
| 25> #Run DFT-D3 single point of the molecule with dimer basis set
| 26> $new_job
| 27> %base "5-56_DFT_A"
| 28> ! wB97X-D3 def2-TZVP TIGHTSCF CHELPG PMODEL
| 29>
| 30> %scf
| 31> MaxIter 1000
| 32> end
| 33>
| 34> * xyz 0 1
| 35>   C                      -6.273322            -9.533329            -8.368384
| 36>   O                      -7.523562            -10.051300           -8.014050
| 37>   H                      -8.078851            -9.952586            -8.778788
| 38>   H                      -5.871098            -8.781854            -7.648397
| 39>   H                      -5.513111            -10.350072           -8.413968
| 40>   H                      -6.238926            -9.095729            -9.396470
| 41>   C                    : -4.415804            -6.305064            -9.010949
| 42>   O                    : -3.554945            -7.024887            -9.821782
| 43>   H                    : -3.705395            -6.707970            -10.700897
| 44>   H                    : -4.060751            -5.249625            -8.799378
| 45>   H                    : -5.379806            -6.265267            -9.537826
| 46>   H                    : -4.717809            -6.763836            -8.096143
| 47> *
| 48>
| 49> #Run DFT-D3 single point of the particle with dimer basis set
| 50> $new_job
| 51> %base "5-56_DFT_B"
| 52> ! wB97X-D3 def2-TZVP TIGHTSCF CHELPG PMODEL
| 53>
| 54> %scf
| 55> MaxIter 1000
| 56> end
| 57>
| 58> * xyz 0 1
| 59>   C                    : -6.273322            -9.533329            -8.368384
| 60>   O                    : -7.523562            -10.051300           -8.014050
| 61>   H                    : -8.078851            -9.952586            -8.778788
| 62>   H                    : -5.871098            -8.781854            -7.648397
| 63>   H                    : -5.513111            -10.350072           -8.413968
| 64>   H                    : -6.238926            -9.095729            -9.396470
| 65>   C                      -4.415804            -6.305064            -9.010949
| 66>   O                      -3.554945            -7.024887            -9.821782
| 67>   H                      -3.705395            -6.707970            -10.700897
| 68>   H                      -4.060751            -5.249625            -8.799378
| 69>   H                      -5.379806            -6.265267            -9.537826
| 70>   H                      -4.717809            -6.763836            -8.096143
| 71> *
| 72>
| 73>                          ****END OF INPUT****
 Total Charge           Charge          ....    0
 Multiplicity           Mult            ....    1
 Number of Electrons    NEL             ....   36
Dispersion correction           -0.001665332
FINAL SINGLE POINT ENERGY      -231.464936110778
Dispersion correction           -0.000255993
FINAL SINGLE POINT ENERGY      -115.733604584851

CARTESIAN COORDINATES (ANGSTROEM)
---------------------------------
  C     -6.273322   -9.533329   -8.368384
  O     -7.523562  -10.051300   -8.014050
  H     -8.078851   -9.952586   -8.778788
  H     -5.871098   -8.781854   -7.648397
  H     -5.513111  -10.350072   -8.413968
  H     -6.238926   -9.095729   -9.396470
  C     -4.415804   -6.305064   -9.010949
  O     -3.554945   -7.024887   -9.821782
  H     -3.705395   -6.707970  -10.700897
  H     -4.060751   -5.249625   -8.799378
  H     -5.379806   -6.265267   -9.537826
  H     -4.717809   -6.763836   -8.096143

 Multiplicity           Mult            ....    1
 Number of Electrons    NEL             ....   18
 Basis Dimension        Dim             ....  172

ORBITAL ENERGIES
----------------

  NO   OCC          E(Eh)            E(eV)
   0   2.0000     -19.230902      -523.2995
   1   2.0000     -10.312568      -280.6192
   2   2.0000      -1.151201       -31.3258
   3   2.0000      -0.794817       -21.6281
   4   2.0000      -0.616848       -16.7853
   5   2.0000      -0.547222       -14.8907
   6   2.0000      -0.536769       -14.6062
   7   2.0000      -0.426579       -11.6078
   8   2.0000      -0.373977       -10.1764
   9   0.0000       0.087787         2.3888
  10   0.0000       0.119359         3.2479
  11   0.0000       0.155070         4.2197
  12   0.0000       0.170696         4.6449
  13   0.0000       0.194920         5.3040

MULLIKEN ATOMIC CHARGES
-----------------------
   0 C :    0.001456
   1 O :    0.000107
   2 H :    0.000009
   3 H :   -0.001119
   4 H :   -0.000349
   5 H :   -0.000981
   6 C :   -0.172278
   7 O :   -0.461441
   8 H :    0.319210
   9 H :    0.097763
  10 H :    0.097473
  11 H :    0.120149
Sum of atomic charges:    0.0000000

LOEWDIN ATOMIC CHARGES
----------------------
   0 C :   -0.003434
   1 O :   -0.000020
   2 H :   -0.000003
   3 H :   -0.003732
   4 H :   -0.000087
   5 H :   -0.001256
   6 C :   -0.411580
   7 O :   -0.047195
   8 H :    0.167336
   9 H :    0.100014
  10 H :    0.098017
  11 H :    0.101940

  Mayer bond orders larger than 0.1
B(  6-C ,  7-O ) :   0.9984 B(  6-C ,  9-H ) :   0.9698 B(  6-C , 10-H ) :   0.9965
B(  6-C , 11-H ) :   0.9724 B(  7-O ,  8-H ) :   0.8995

Dispersion correction           -0.000226227
FINAL SINGLE POINT ENERGY      -115.730373979721

DIPOLE MOMENT
-------------
                                X             Y             Z
Electronic contribution:      1.32612      -1.09466      -0.87501
Nuclear contribution   :     -1.77106       1.53489       0.61952
                        -----------------------------------------
Total Dipole Moment    :     -0.44494       0.44023      -0.25549
                        -----------------------------------------
Magnitude (a.u.)       :      0.67605
Magnitude (Debye)      :      1.71839

Rotational constants in cm-1:     4.347528     0.850195     0.832476
Rotational constants in MHz : 130335.614451 25488.217206 24956.990992

                             ****ORCA TERMINATED NORMALLY****
TOTAL RUN TIME: 0 days 0 hours 0 minutes 50 seconds 698 msec
