                         Program Version 4.1.2  - RELEASE  -
|  1> #Run DFT-D3 single point of the dimer
|  2> ! wB97X-D3 def2-TZVP TIGHTSCF CHELPG PMODEL PAL8
|  3>
|  4> %base "21-147_DFT_AB"
|  5>
|  6> %scf
|  7> MaxIter 1000
|  8> end
|  9>
| 10> * xyz 0 1
| 11>   C                      -8.603786            5.447837             -7.490318
| 12>   O                      -8.296332            6.339186             -6.437737
| 13>   H                      -7.357825            6.381653             -6.421790
| 14>   H                      -8.094756            4.454546             -7.365590
| 15>   H                      -9.650627            5.292896             -7.546803
| 16>   H                      -8.190118            5.916413             -8.395784
| 17>   C                      -4.889492            5.088213             -7.807620
| 18>   O                      -5.284673            6.187908             -6.949680
| 19>   H                      -4.981875            6.985051             -7.422708
| 20>   H                      -5.218055            5.066944             -8.850541
| 21>   H                      -3.803294            5.005692             -7.858541
| 22>   H                      -5.186663            4.075918             -7.382525
| 23> *
| 24>
| 25> #Run DFT-D3 single point of the molecule with dimer basis set
| 26> $new_job
| 27> %base "21-147_DFT_A"
| 28> ! wB97X-D3 def2-TZVP TIGHTSCF CHELPG PMODEL
| 29>
| 30> %scf
| 31> MaxIter 1000
| 32> end
| 33>
| 34> * xyz 0 1
| 35>   C                      -8.603786            5.447837             -7.490318
| 36>   O                      -8.296332            6.339186             -6.437737
| 37>   H                      -7.357825            6.381653             -6.421790
| 38>   H                      -8.094756            4.454546             -7.365590
| 39>   H                      -9.650627            5.292896             -7.546803
| 40>   H                      -8.190118            5.916413             -8.395784
| 41>   C                    : -4.889492            5.088213             -7.807620
| 42>   O                    : -5.284673            6.187908             -6.949680
| 43>   H                    : -4.981875            6.985051             -7.422708
| 44>   H                    : -5.218055            5.066944             -8.850541
| 45>   H                    : -3.803294            5.005692             -7.858541
| 46>   H                    : -5.186663            4.075918             -7.382525
| 47> *
| 48>
| 49> #Run DFT-D3 single point of the particle with dimer basis set
| 50> $new_job
| 51> %base "21-147_DFT_B"
| 52> ! wB97X-D3 def2-TZVP TIGHTSCF CHELPG PMODEL
| 53>
| 54> %scf
| 55> MaxIter 1000
| 56> end
| 57>
| 58> * xyz 0 1
| 59>   C                    : -8.603786            5.447837             -7.490318
| 60>   O                    : -8.296332            6.339186             -6.437737
| 61>   H                    : -7.357825            6.381653             -6.421790
| 62>   H                    : -8.094756            4.454546             -7.365590
| 63>   H                    : -9.650627            5.292896             -7.546803
| 64>   H                    : -8.190118            5.916413             -8.395784
| 65>   C                      -4.889492            5.088213             -7.807620
| 66>   O                      -5.284673            6.187908             -6.949680
| 67>   H                      -4.981875            6.985051             -7.422708
| 68>   H                      -5.218055            5.066944             -8.850541
| 69>   H                      -3.803294            5.005692             -7.858541
| 70>   H                      -5.186663            4.075918             -7.382525
| 71> *
| 72>
| 73>                          ****END OF INPUT****
 Total Charge           Charge          ....    0
 Multiplicity           Mult            ....    1
 Number of Electrons    NEL             ....   36
Dispersion correction           -0.002226198
FINAL SINGLE POINT ENERGY      -231.473433993090
Dispersion correction           -0.000214172
FINAL SINGLE POINT ENERGY      -115.734045103929

CARTESIAN COORDINATES (ANGSTROEM)
---------------------------------
  C     -8.603786    5.447837   -7.490318
  O     -8.296332    6.339186   -6.437737
  H     -7.357825    6.381653   -6.421790
  H     -8.094756    4.454546   -7.365590
  H     -9.650627    5.292896   -7.546803
  H     -8.190118    5.916413   -8.395784
  C     -4.889492    5.088213   -7.807620
  O     -5.284673    6.187908   -6.949680
  H     -4.981875    6.985051   -7.422708
  H     -5.218055    5.066944   -8.850541
  H     -3.803294    5.005692   -7.858541
  H     -5.186663    4.075918   -7.382525

 Multiplicity           Mult            ....    1
 Number of Electrons    NEL             ....   18
 Basis Dimension        Dim             ....  172

ORBITAL ENERGIES
----------------

  NO   OCC          E(Eh)            E(eV)
   0   2.0000     -19.239496      -523.5333
   1   2.0000     -10.320691      -280.8403
   2   2.0000      -1.128146       -30.6984
   3   2.0000      -0.794795       -21.6275
   4   2.0000      -0.606150       -16.4942
   5   2.0000      -0.533918       -14.5287
   6   2.0000      -0.519216       -14.1286
   7   2.0000      -0.439592       -11.9619
   8   2.0000      -0.378326       -10.2948
   9   0.0000       0.094084         2.5602
  10   0.0000       0.128676         3.5014
  11   0.0000       0.142669         3.8822
  12   0.0000       0.182093         4.9550
  13   0.0000       0.198981         5.4145

MULLIKEN ATOMIC CHARGES
-----------------------
   0 C :    0.009293
   1 O :   -0.002925
   2 H :   -0.007439
   3 H :   -0.001426
   4 H :    0.000024
   5 H :   -0.004388
   6 C :   -0.198533
   7 O :   -0.464208
   8 H :    0.316147
   9 H :    0.115410
  10 H :    0.117206
  11 H :    0.120838
Sum of atomic charges:    0.0000000

LOEWDIN ATOMIC CHARGES
----------------------
   0 C :   -0.005109
   1 O :   -0.003444
   2 H :   -0.028875
   3 H :   -0.001132
   4 H :   -0.000058
   5 H :   -0.001288
   6 C :   -0.378155
   7 O :   -0.070652
   8 H :    0.178859
   9 H :    0.095549
  10 H :    0.096059
  11 H :    0.118247

  Mayer bond orders larger than 0.1
B(  6-C ,  7-O ) :   0.9910 B(  6-C ,  9-H ) :   0.9657 B(  6-C , 10-H ) :   0.9729
B(  6-C , 11-H ) :   0.9761 B(  7-O ,  8-H ) :   0.8966

Dispersion correction           -0.000276928
FINAL SINGLE POINT ENERGY      -115.731261355868

DIPOLE MOMENT
-------------
                                X             Y             Z
Electronic contribution:     -0.66790       1.45425       1.19210
Nuclear contribution   :      1.03925      -1.41249      -1.83388
                        -----------------------------------------
Total Dipole Moment    :      0.37135       0.04176      -0.64178
                        -----------------------------------------
Magnitude (a.u.)       :      0.74265
Magnitude (Debye)      :      1.88766

Rotational constants in cm-1:     4.337783     0.786360     0.754803
Rotational constants in MHz : 130043.466662 23574.475377 22628.410189

                             ****ORCA TERMINATED NORMALLY****
TOTAL RUN TIME: 0 days 0 hours 1 minutes 5 seconds 233 msec
