                         Program Version 4.1.2  - RELEASE  -
|  1> #Run DFT-D3 single point of the dimer
|  2> ! wB97X-D3 def2-TZVP TIGHTSCF CHELPG PMODEL PAL8
|  3>
|  4> %base "12-10_DFT_AB"
|  5>
|  6> %scf
|  7> MaxIter 1000
|  8> end
|  9>
| 10> * xyz 0 1
| 11>   C                      -3.318311            -0.619609            -4.975786
| 12>   O                      -2.848868            -0.188945            -3.711665
| 13>   H                      -2.709265            0.711760             -3.772373
| 14>   H                      -2.662649            -0.195860            -5.703031
| 15>   H                      -3.228268            -1.702189            -5.124246
| 16>   H                      -4.392851            -0.308560            -5.145854
| 17>   C                      -6.297031            -2.375378            -7.173564
| 18>   O                      -5.719362            -3.446939            -6.432666
| 19>   H                      -6.293347            -3.425501            -5.665204
| 20>   H                      -7.351424            -2.204857            -6.945151
| 21>   H                      -5.736544            -1.442572            -6.985344
| 22>   H                      -6.311114            -2.446512            -8.275151
| 23> *
| 24>
| 25> #Run DFT-D3 single point of the molecule with dimer basis set
| 26> $new_job
| 27> %base "12-10_DFT_A"
| 28> ! wB97X-D3 def2-TZVP TIGHTSCF CHELPG PMODEL
| 29>
| 30> %scf
| 31> MaxIter 1000
| 32> end
| 33>
| 34> * xyz 0 1
| 35>   C                      -3.318311            -0.619609            -4.975786
| 36>   O                      -2.848868            -0.188945            -3.711665
| 37>   H                      -2.709265            0.711760             -3.772373
| 38>   H                      -2.662649            -0.195860            -5.703031
| 39>   H                      -3.228268            -1.702189            -5.124246
| 40>   H                      -4.392851            -0.308560            -5.145854
| 41>   C                    : -6.297031            -2.375378            -7.173564
| 42>   O                    : -5.719362            -3.446939            -6.432666
| 43>   H                    : -6.293347            -3.425501            -5.665204
| 44>   H                    : -7.351424            -2.204857            -6.945151
| 45>   H                    : -5.736544            -1.442572            -6.985344
| 46>   H                    : -6.311114            -2.446512            -8.275151
| 47> *
| 48>
| 49> #Run DFT-D3 single point of the particle with dimer basis set
| 50> $new_job
| 51> %base "12-10_DFT_B"
| 52> ! wB97X-D3 def2-TZVP TIGHTSCF CHELPG PMODEL
| 53>
| 54> %scf
| 55> MaxIter 1000
| 56> end
| 57>
| 58> * xyz 0 1
| 59>   C                    : -3.318311            -0.619609            -4.975786
| 60>   O                    : -2.848868            -0.188945            -3.711665
| 61>   H                    : -2.709265            0.711760             -3.772373
| 62>   H                    : -2.662649            -0.195860            -5.703031
| 63>   H                    : -3.228268            -1.702189            -5.124246
| 64>   H                    : -4.392851            -0.308560            -5.145854
| 65>   C                      -6.297031            -2.375378            -7.173564
| 66>   O                      -5.719362            -3.446939            -6.432666
| 67>   H                      -6.293347            -3.425501            -5.665204
| 68>   H                      -7.351424            -2.204857            -6.945151
| 69>   H                      -5.736544            -1.442572            -6.985344
| 70>   H                      -6.311114            -2.446512            -8.275151
| 71> *
| 72>
| 73>                          ****END OF INPUT****
 Total Charge           Charge          ....    0
 Multiplicity           Mult            ....    1
 Number of Electrons    NEL             ....   36
Dispersion correction           -0.001476259
FINAL SINGLE POINT ENERGY      -231.463273697807
Dispersion correction           -0.000229502
FINAL SINGLE POINT ENERGY      -115.731561290820

CARTESIAN COORDINATES (ANGSTROEM)
---------------------------------
  C     -3.318311   -0.619609   -4.975786
  O     -2.848868   -0.188945   -3.711665
  H     -2.709265    0.711760   -3.772373
  H     -2.662649   -0.195860   -5.703031
  H     -3.228268   -1.702189   -5.124246
  H     -4.392851   -0.308560   -5.145854
  C     -6.297031   -2.375378   -7.173564
  O     -5.719362   -3.446939   -6.432666
  H     -6.293347   -3.425501   -5.665204
  H     -7.351424   -2.204857   -6.945151
  H     -5.736544   -1.442572   -6.985344
  H     -6.311114   -2.446512   -8.275151

 Multiplicity           Mult            ....    1
 Number of Electrons    NEL             ....   18
 Basis Dimension        Dim             ....  172

ORBITAL ENERGIES
----------------

  NO   OCC          E(Eh)            E(eV)
   0   2.0000     -19.237090      -523.4678
   1   2.0000     -10.316943      -280.7383
   2   2.0000      -1.141838       -31.0710
   3   2.0000      -0.793891       -21.6029
   4   2.0000      -0.610579       -16.6147
   5   2.0000      -0.538014       -14.6401
   6   2.0000      -0.529540       -14.4095
   7   2.0000      -0.441221       -12.0062
   8   2.0000      -0.376410       -10.2426
   9   0.0000       0.087229         2.3736
  10   0.0000       0.119050         3.2395
  11   0.0000       0.149501         4.0681
  12   0.0000       0.170005         4.6261
  13   0.0000       0.195810         5.3283

MULLIKEN ATOMIC CHARGES
-----------------------
   0 C :    0.001644
   1 O :    0.000031
   2 H :    0.000014
   3 H :   -0.000141
   4 H :   -0.002762
   5 H :   -0.000246
   6 C :   -0.199061
   7 O :   -0.453196
   8 H :    0.318409
   9 H :    0.109623
  10 H :    0.104696
  11 H :    0.120989
Sum of atomic charges:   -0.0000000

LOEWDIN ATOMIC CHARGES
----------------------
   0 C :   -0.002929
   1 O :   -0.000027
   2 H :   -0.000003
   3 H :   -0.000055
   4 H :   -0.002041
   5 H :   -0.002397
   6 C :   -0.392513
   7 O :   -0.076935
   8 H :    0.175188
   9 H :    0.096358
  10 H :    0.099248
  11 H :    0.106106

  Mayer bond orders larger than 0.1
B(  6-C ,  7-O ) :   1.0116 B(  6-C ,  9-H ) :   0.9832 B(  6-C , 10-H ) :   0.9757
B(  6-C , 11-H ) :   0.9745 B(  7-O ,  8-H ) :   0.9016

Dispersion correction           -0.000245997
FINAL SINGLE POINT ENERGY      -115.730375452344

DIPOLE MOMENT
-------------
                                X             Y             Z
Electronic contribution:      0.88898      -1.57055       0.88929
Nuclear contribution   :     -1.49150       1.98523      -0.70788
                        -----------------------------------------
Total Dipole Moment    :     -0.60252       0.41468       0.18141
                        -----------------------------------------
Magnitude (a.u.)       :      0.75359
Magnitude (Debye)      :      1.91547

Rotational constants in cm-1:     4.350105     0.816131     0.787845
Rotational constants in MHz : 130412.860881 24466.996676 23619.006514

                             ****ORCA TERMINATED NORMALLY****
TOTAL RUN TIME: 0 days 0 hours 1 minutes 6 seconds 467 msec
