                         Program Version 4.1.2  - RELEASE  -
|  1> #Run DFT-D3 single point of the dimer
|  2> ! wB97X-D3 def2-TZVP TIGHTSCF CHELPG PMODEL PAL8
|  3>
|  4> %base "19-155_DFT_AB"
|  5>
|  6> %scf
|  7> MaxIter 1000
|  8> end
|  9>
| 10> * xyz 0 1
| 11>   C                      -2.826672            3.168697             7.311766
| 12>   O                      -2.985900            2.187477             8.339613
| 13>   H                      -2.080365            1.979500             8.637292
| 14>   H                      -2.631409            4.182728             7.755383
| 15>   H                      -1.965593            2.904438             6.677685
| 16>   H                      -3.653128            3.269334             6.564215
| 17>   C                      -2.472019            6.718270             9.838577
| 18>   O                      -3.128777            6.038836             10.865620
| 19>   H                      -2.541078            5.623681             11.411225
| 20>   H                      -2.944758            7.683144             9.612910
| 21>   H                      -1.430267            6.842742             10.183854
| 22>   H                      -2.344871            6.126323             8.908435
| 23> *
| 24>
| 25> #Run DFT-D3 single point of the molecule with dimer basis set
| 26> $new_job
| 27> %base "19-155_DFT_A"
| 28> ! wB97X-D3 def2-TZVP TIGHTSCF CHELPG PMODEL
| 29>
| 30> %scf
| 31> MaxIter 1000
| 32> end
| 33>
| 34> * xyz 0 1
| 35>   C                      -2.826672            3.168697             7.311766
| 36>   O                      -2.985900            2.187477             8.339613
| 37>   H                      -2.080365            1.979500             8.637292
| 38>   H                      -2.631409            4.182728             7.755383
| 39>   H                      -1.965593            2.904438             6.677685
| 40>   H                      -3.653128            3.269334             6.564215
| 41>   C                    : -2.472019            6.718270             9.838577
| 42>   O                    : -3.128777            6.038836             10.865620
| 43>   H                    : -2.541078            5.623681             11.411225
| 44>   H                    : -2.944758            7.683144             9.612910
| 45>   H                    : -1.430267            6.842742             10.183854
| 46>   H                    : -2.344871            6.126323             8.908435
| 47> *
| 48>
| 49> #Run DFT-D3 single point of the particle with dimer basis set
| 50> $new_job
| 51> %base "19-155_DFT_B"
| 52> ! wB97X-D3 def2-TZVP TIGHTSCF CHELPG PMODEL
| 53>
| 54> %scf
| 55> MaxIter 1000
| 56> end
| 57>
| 58> * xyz 0 1
| 59>   C                    : -2.826672            3.168697             7.311766
| 60>   O                    : -2.985900            2.187477             8.339613
| 61>   H                    : -2.080365            1.979500             8.637292
| 62>   H                    : -2.631409            4.182728             7.755383
| 63>   H                    : -1.965593            2.904438             6.677685
| 64>   H                    : -3.653128            3.269334             6.564215
| 65>   C                      -2.472019            6.718270             9.838577
| 66>   O                      -3.128777            6.038836             10.865620
| 67>   H                      -2.541078            5.623681             11.411225
| 68>   H                      -2.944758            7.683144             9.612910
| 69>   H                      -1.430267            6.842742             10.183854
| 70>   H                      -2.344871            6.126323             8.908435
| 71> *
| 72>
| 73>                          ****END OF INPUT****
 Total Charge           Charge          ....    0
 Multiplicity           Mult            ....    1
 Number of Electrons    NEL             ....   36
Dispersion correction           -0.001227636
FINAL SINGLE POINT ENERGY      -231.461418737976
Dispersion correction           -0.000254286
FINAL SINGLE POINT ENERGY      -115.731963591520

CARTESIAN COORDINATES (ANGSTROEM)
---------------------------------
  C     -2.826672    3.168697    7.311766
  O     -2.985900    2.187477    8.339613
  H     -2.080365    1.979500    8.637292
  H     -2.631409    4.182728    7.755383
  H     -1.965593    2.904438    6.677685
  H     -3.653128    3.269334    6.564215
  C     -2.472019    6.718270    9.838577
  O     -3.128777    6.038836   10.865620
  H     -2.541078    5.623681   11.411225
  H     -2.944758    7.683144    9.612910
  H     -1.430267    6.842742   10.183854
  H     -2.344871    6.126323    8.908435

 Multiplicity           Mult            ....    1
 Number of Electrons    NEL             ....   18
 Basis Dimension        Dim             ....  172

ORBITAL ENERGIES
----------------

  NO   OCC          E(Eh)            E(eV)
   0   2.0000     -19.223059      -523.0860
   1   2.0000     -10.316314      -280.7212
   2   2.0000      -1.152197       -31.3529
   3   2.0000      -0.799414       -21.7532
   4   2.0000      -0.623320       -16.9614
   5   2.0000      -0.540842       -14.7171
   6   2.0000      -0.535596       -14.5743
   7   2.0000      -0.428040       -11.6476
   8   2.0000      -0.372715       -10.1421
   9   0.0000       0.087196         2.3727
  10   0.0000       0.120995         3.2924
  11   0.0000       0.153053         4.1648
  12   0.0000       0.170540         4.6406
  13   0.0000       0.191604         5.2138

MULLIKEN ATOMIC CHARGES
-----------------------
   0 C :   -0.006315
   1 O :   -0.000013
   2 H :   -0.000012
   3 H :    0.013063
   4 H :    0.000333
   5 H :    0.000116
   6 C :   -0.144439
   7 O :   -0.461659
   8 H :    0.305371
   9 H :    0.120117
  10 H :    0.097791
  11 H :    0.075648
Sum of atomic charges:    0.0000000

LOEWDIN ATOMIC CHARGES
----------------------
   0 C :   -0.001471
   1 O :   -0.000047
   2 H :   -0.000024
   3 H :   -0.005169
   4 H :   -0.000006
   5 H :   -0.000008
   6 C :   -0.390855
   7 O :   -0.036034
   8 H :    0.130570
   9 H :    0.105885
  10 H :    0.098865
  11 H :    0.098293

  Mayer bond orders larger than 0.1
B(  6-C ,  7-O ) :   1.0123 B(  6-C ,  9-H ) :   0.9780 B(  6-C , 10-H ) :   0.9986
B(  6-C , 11-H ) :   0.9647 B(  7-O ,  8-H ) :   0.9127

Dispersion correction           -0.000236076
FINAL SINGLE POINT ENERGY      -115.729708693468

DIPOLE MOMENT
-------------
                                X             Y             Z
Electronic contribution:     -1.07170      -0.78746       1.27487
Nuclear contribution   :      1.73976       0.77859      -1.29217
                        -----------------------------------------
Total Dipole Moment    :      0.66806      -0.00887      -0.01730
                        -----------------------------------------
Magnitude (a.u.)       :      0.66834
Magnitude (Debye)      :      1.69880

Rotational constants in cm-1:     4.369257     0.848929     0.817327
Rotational constants in MHz : 130987.025174 25450.249260 24502.861680

                             ****ORCA TERMINATED NORMALLY****
TOTAL RUN TIME: 0 days 0 hours 1 minutes 37 seconds 608 msec
