                         Program Version 4.1.2  - RELEASE  -
|  1> #Run DFT-D3 single point of the dimer
|  2> ! wB97X-D3 def2-TZVP TIGHTSCF CHELPG PMODEL PAL8
|  3>
|  4> %base "7-12_DFT_AB"
|  5>
|  6> %scf
|  7> MaxIter 1000
|  8> end
|  9>
| 10> * xyz 0 1
| 11>   C                      0.107441             2.741054             -3.055841
| 12>   O                      0.093632             2.479985             -1.676650
| 13>   H                      -0.116713            3.352322             -1.369150
| 14>   H                      0.781831             3.560905             -3.329535
| 15>   H                      0.429337             1.873700             -3.602147
| 16>   H                      -0.921354            2.900499             -3.482296
| 17>   C                      4.556806             5.347333             -2.628685
| 18>   O                      3.423993             5.475076             -1.851315
| 19>   H                      3.701064             5.189540             -1.017325
| 20>   H                      4.699981             6.061713             -3.358107
| 21>   H                      5.501978             5.323743             -2.028070
| 22>   H                      4.491684             4.380159             -3.170814
| 23> *
| 24>
| 25> #Run DFT-D3 single point of the molecule with dimer basis set
| 26> $new_job
| 27> %base "7-12_DFT_A"
| 28> ! wB97X-D3 def2-TZVP TIGHTSCF CHELPG PMODEL
| 29>
| 30> %scf
| 31> MaxIter 1000
| 32> end
| 33>
| 34> * xyz 0 1
| 35>   C                      0.107441             2.741054             -3.055841
| 36>   O                      0.093632             2.479985             -1.676650
| 37>   H                      -0.116713            3.352322             -1.369150
| 38>   H                      0.781831             3.560905             -3.329535
| 39>   H                      0.429337             1.873700             -3.602147
| 40>   H                      -0.921354            2.900499             -3.482296
| 41>   C                    : 4.556806             5.347333             -2.628685
| 42>   O                    : 3.423993             5.475076             -1.851315
| 43>   H                    : 3.701064             5.189540             -1.017325
| 44>   H                    : 4.699981             6.061713             -3.358107
| 45>   H                    : 5.501978             5.323743             -2.028070
| 46>   H                    : 4.491684             4.380159             -3.170814
| 47> *
| 48>
| 49> #Run DFT-D3 single point of the particle with dimer basis set
| 50> $new_job
| 51> %base "7-12_DFT_B"
| 52> ! wB97X-D3 def2-TZVP TIGHTSCF CHELPG PMODEL
| 53>
| 54> %scf
| 55> MaxIter 1000
| 56> end
| 57>
| 58> * xyz 0 1
| 59>   C                    : 0.107441             2.741054             -3.055841
| 60>   O                    : 0.093632             2.479985             -1.676650
| 61>   H                    : -0.116713            3.352322             -1.369150
| 62>   H                    : 0.781831             3.560905             -3.329535
| 63>   H                    : 0.429337             1.873700             -3.602147
| 64>   H                    : -0.921354            2.900499             -3.482296
| 65>   C                      4.556806             5.347333             -2.628685
| 66>   O                      3.423993             5.475076             -1.851315
| 67>   H                      3.701064             5.189540             -1.017325
| 68>   H                      4.699981             6.061713             -3.358107
| 69>   H                      5.501978             5.323743             -2.028070
| 70>   H                      4.491684             4.380159             -3.170814
| 71> *
| 72>
| 73>                          ****END OF INPUT****
 Total Charge           Charge          ....    0
 Multiplicity           Mult            ....    1
 Number of Electrons    NEL             ....   36
Dispersion correction           -0.000899432
FINAL SINGLE POINT ENERGY      -231.462556887889
Dispersion correction           -0.000223019
FINAL SINGLE POINT ENERGY      -115.732583073425

CARTESIAN COORDINATES (ANGSTROEM)
---------------------------------
  C      0.107441    2.741054   -3.055841
  O      0.093632    2.479985   -1.676650
  H     -0.116713    3.352322   -1.369150
  H      0.781831    3.560905   -3.329535
  H      0.429337    1.873700   -3.602147
  H     -0.921354    2.900499   -3.482296
  C      4.556806    5.347333   -2.628685
  O      3.423993    5.475076   -1.851315
  H      3.701064    5.189540   -1.017325
  H      4.699981    6.061713   -3.358107
  H      5.501978    5.323743   -2.028070
  H      4.491684    4.380159   -3.170814

 Multiplicity           Mult            ....    1
 Number of Electrons    NEL             ....   18
 Basis Dimension        Dim             ....  172

ORBITAL ENERGIES
----------------

  NO   OCC          E(Eh)            E(eV)
   0   2.0000     -19.229550      -523.2626
   1   2.0000     -10.308395      -280.5057
   2   2.0000      -1.158956       -31.5368
   3   2.0000      -0.799492       -21.7553
   4   2.0000      -0.621914       -16.9232
   5   2.0000      -0.548569       -14.9273
   6   2.0000      -0.536721       -14.6049
   7   2.0000      -0.438297       -11.9267
   8   2.0000      -0.371882       -10.1194
   9   0.0000       0.092988         2.5303
  10   0.0000       0.119209         3.2438
  11   0.0000       0.155620         4.2346
  12   0.0000       0.178213         4.8494
  13   0.0000       0.185680         5.0526

MULLIKEN ATOMIC CHARGES
-----------------------
   0 C :    0.000685
   1 O :   -0.000017
   2 H :   -0.000348
   3 H :   -0.002359
   4 H :    0.000012
   5 H :   -0.000072
   6 C :   -0.170809
   7 O :   -0.450355
   8 H :    0.313080
   9 H :    0.119849
  10 H :    0.094545
  11 H :    0.095790
Sum of atomic charges:    0.0000000

LOEWDIN ATOMIC CHARGES
----------------------
   0 C :   -0.000568
   1 O :   -0.000039
   2 H :   -0.000206
   3 H :   -0.001172
   4 H :   -0.000003
   5 H :   -0.000007
   6 C :   -0.407057
   7 O :   -0.031474
   8 H :    0.153343
   9 H :    0.087461
  10 H :    0.100724
  11 H :    0.099000

  Mayer bond orders larger than 0.1
B(  6-C ,  7-O ) :   1.0071 B(  6-C ,  9-H ) :   0.9729 B(  6-C , 10-H ) :   0.9870
B(  6-C , 11-H ) :   0.9831 B(  7-O ,  8-H ) :   0.9073

Dispersion correction           -0.000217889
FINAL SINGLE POINT ENERGY      -115.728426508150

DIPOLE MOMENT
-------------
                                X             Y             Z
Electronic contribution:     -1.64383       0.39214       0.93071
Nuclear contribution   :      2.25153      -0.59429      -0.68004
                        -----------------------------------------
Total Dipole Moment    :      0.60770      -0.20215       0.25067
                        -----------------------------------------
Magnitude (a.u.)       :      0.68775
Magnitude (Debye)      :      1.74813

Rotational constants in cm-1:     4.435714     0.868564     0.835981
Rotational constants in MHz : 132979.373017 26038.895949 25062.072166

                             ****ORCA TERMINATED NORMALLY****
TOTAL RUN TIME: 0 days 0 hours 1 minutes 9 seconds 966 msec
