                         Program Version 4.1.2  - RELEASE  -
|  1> #Run DFT-D3 single point of the dimer
|  2> ! wB97X-D3 def2-TZVP TIGHTSCF CHELPG PMODEL PAL8
|  3>
|  4> %base "10-2_DFT_AB"
|  5>
|  6> %scf
|  7> MaxIter 1000
|  8> end
|  9>
| 10> * xyz 0 1
| 11>   C                      -6.423069            5.566092             9.013381
| 12>   O                      -6.490406            6.939785             8.703720
| 13>   H                      -5.816488            7.100692             8.090013
| 14>   H                      -7.316964            5.205827             9.520099
| 15>   H                      -6.371598            4.942767             8.107187
| 16>   H                      -5.565183            5.306817             9.669080
| 17>   C                      -10.978665           5.184213             9.207365
| 18>   O                      -11.196214           5.077927             10.598535
| 19>   H                      -10.636052           5.753459             11.026018
| 20>   H                      -11.710312           5.886418             8.777567
| 21>   H                      -10.003787           5.610546             9.041970
| 22>   H                      -11.097149           4.263177             8.720246
| 23> *
| 24>
| 25> #Run DFT-D3 single point of the molecule with dimer basis set
| 26> $new_job
| 27> %base "10-2_DFT_A"
| 28> ! wB97X-D3 def2-TZVP TIGHTSCF CHELPG PMODEL
| 29>
| 30> %scf
| 31> MaxIter 1000
| 32> end
| 33>
| 34> * xyz 0 1
| 35>   C                      -6.423069            5.566092             9.013381
| 36>   O                      -6.490406            6.939785             8.703720
| 37>   H                      -5.816488            7.100692             8.090013
| 38>   H                      -7.316964            5.205827             9.520099
| 39>   H                      -6.371598            4.942767             8.107187
| 40>   H                      -5.565183            5.306817             9.669080
| 41>   C                    : -10.978665           5.184213             9.207365
| 42>   O                    : -11.196214           5.077927             10.598535
| 43>   H                    : -10.636052           5.753459             11.026018
| 44>   H                    : -11.710312           5.886418             8.777567
| 45>   H                    : -10.003787           5.610546             9.041970
| 46>   H                    : -11.097149           4.263177             8.720246
| 47> *
| 48>
| 49> #Run DFT-D3 single point of the particle with dimer basis set
| 50> $new_job
| 51> %base "10-2_DFT_B"
| 52> ! wB97X-D3 def2-TZVP TIGHTSCF CHELPG PMODEL
| 53>
| 54> %scf
| 55> MaxIter 1000
| 56> end
| 57>
| 58> * xyz 0 1
| 59>   C                    : -6.423069            5.566092             9.013381
| 60>   O                    : -6.490406            6.939785             8.703720
| 61>   H                    : -5.816488            7.100692             8.090013
| 62>   H                    : -7.316964            5.205827             9.520099
| 63>   H                    : -6.371598            4.942767             8.107187
| 64>   H                    : -5.565183            5.306817             9.669080
| 65>   C                      -10.978665           5.184213             9.207365
| 66>   O                      -11.196214           5.077927             10.598535
| 67>   H                      -10.636052           5.753459             11.026018
| 68>   H                      -11.710312           5.886418             8.777567
| 69>   H                      -10.003787           5.610546             9.041970
| 70>   H                      -11.097149           4.263177             8.720246
| 71> *
| 72>
| 73>                          ****END OF INPUT****
 Total Charge           Charge          ....    0
 Multiplicity           Mult            ....    1
 Number of Electrons    NEL             ....   36
Dispersion correction           -0.001097731
FINAL SINGLE POINT ENERGY      -231.469826862637
Dispersion correction           -0.000241908
FINAL SINGLE POINT ENERGY      -115.734986589344

CARTESIAN COORDINATES (ANGSTROEM)
---------------------------------
  C     -6.423069    5.566092    9.013381
  O     -6.490406    6.939785    8.703720
  H     -5.816488    7.100692    8.090013
  H     -7.316964    5.205827    9.520099
  H     -6.371598    4.942767    8.107187
  H     -5.565183    5.306817    9.669080
  C    -10.978665    5.184213    9.207365
  O    -11.196214    5.077927   10.598535
  H    -10.636052    5.753459   11.026018
  H    -11.710312    5.886418    8.777567
  H    -10.003787    5.610546    9.041970
  H    -11.097149    4.263177    8.720246

 Multiplicity           Mult            ....    1
 Number of Electrons    NEL             ....   18
 Basis Dimension        Dim             ....  172

ORBITAL ENERGIES
----------------

  NO   OCC          E(Eh)            E(eV)
   0   2.0000     -19.228345      -523.2299
   1   2.0000     -10.306333      -280.4496
   2   2.0000      -1.133063       -30.8322
   3   2.0000      -0.796663       -21.6783
   4   2.0000      -0.610017       -16.5994
   5   2.0000      -0.539935       -14.6924
   6   2.0000      -0.535649       -14.5757
   7   2.0000      -0.435793       -11.8585
   8   2.0000      -0.369325       -10.0499
   9   0.0000       0.078829         2.1450
  10   0.0000       0.114800         3.1239
  11   0.0000       0.157187         4.2773
  12   0.0000       0.164388         4.4732
  13   0.0000       0.185598         5.0504

MULLIKEN ATOMIC CHARGES
-----------------------
   0 C :   -0.002144
   1 O :    0.000049
   2 H :   -0.000014
   3 H :    0.002465
   4 H :    0.000119
   5 H :    0.000047
   6 C :   -0.161843
   7 O :   -0.475763
   8 H :    0.315803
   9 H :    0.100616
  10 H :    0.099438
  11 H :    0.121226
Sum of atomic charges:   -0.0000000

LOEWDIN ATOMIC CHARGES
----------------------
   0 C :   -0.001295
   1 O :   -0.000037
   2 H :   -0.000005
   3 H :   -0.001105
   4 H :   -0.000042
   5 H :   -0.000011
   6 C :   -0.376761
   7 O :   -0.086375
   8 H :    0.179252
   9 H :    0.097310
  10 H :    0.093557
  11 H :    0.095513

  Mayer bond orders larger than 0.1
B(  6-C ,  7-O ) :   1.0024 B(  6-C ,  9-H ) :   0.9784 B(  6-C , 10-H ) :   0.9893
B(  6-C , 11-H ) :   0.9744 B(  7-O ,  8-H ) :   0.8993

Dispersion correction           -0.000224748
FINAL SINGLE POINT ENERGY      -115.733594677693

DIPOLE MOMENT
-------------
                                X             Y             Z
Electronic contribution:     -0.33279      -0.37741       1.70609
Nuclear contribution   :      0.78910       0.83504      -1.99289
                        -----------------------------------------
Total Dipole Moment    :      0.45631       0.45762      -0.28680
                        -----------------------------------------
Magnitude (a.u.)       :      0.70703
Magnitude (Debye)      :      1.79713

Rotational constants in cm-1:     4.334827     0.843165     0.808781
Rotational constants in MHz : 129954.854761 25277.451460 24246.636065

                             ****ORCA TERMINATED NORMALLY****
TOTAL RUN TIME: 0 days 0 hours 1 minutes 3 seconds 865 msec
