                         Program Version 4.1.2  - RELEASE  -
|  1> #Run DFT-D3 single point of the dimer
|  2> ! wB97X-D3 def2-TZVP TIGHTSCF CHELPG PMODEL PAL8
|  3>
|  4> %base "19-88_DFT_AB"
|  5>
|  6> %scf
|  7> MaxIter 1000
|  8> end
|  9>
| 10> * xyz 0 1
| 11>   C                      1.790265             3.458561             8.299905
| 12>   O                      0.760315             4.348827             7.951540
| 13>   H                      0.700689             4.320397             6.985783
| 14>   H                      2.747720             4.048782             8.453165
| 15>   H                      1.540345             2.807398             9.173545
| 16>   H                      2.017215             2.823354             7.489023
| 17>   C                      3.339506             -0.048470            6.275912
| 18>   O                      3.366161             0.429073             4.976725
| 19>   H                      3.378025             1.429729             4.990858
| 20>   H                      4.290189             -0.002235            6.806620
| 21>   H                      2.625669             0.565007             6.872106
| 22>   H                      2.973593             -1.060330            6.342800
| 23> *
| 24>
| 25> #Run DFT-D3 single point of the molecule with dimer basis set
| 26> $new_job
| 27> %base "19-88_DFT_A"
| 28> ! wB97X-D3 def2-TZVP TIGHTSCF CHELPG PMODEL
| 29>
| 30> %scf
| 31> MaxIter 1000
| 32> end
| 33>
| 34> * xyz 0 1
| 35>   C                      1.790265             3.458561             8.299905
| 36>   O                      0.760315             4.348827             7.951540
| 37>   H                      0.700689             4.320397             6.985783
| 38>   H                      2.747720             4.048782             8.453165
| 39>   H                      1.540345             2.807398             9.173545
| 40>   H                      2.017215             2.823354             7.489023
| 41>   C                    : 3.339506             -0.048470            6.275912
| 42>   O                    : 3.366161             0.429073             4.976725
| 43>   H                    : 3.378025             1.429729             4.990858
| 44>   H                    : 4.290189             -0.002235            6.806620
| 45>   H                    : 2.625669             0.565007             6.872106
| 46>   H                    : 2.973593             -1.060330            6.342800
| 47> *
| 48>
| 49> #Run DFT-D3 single point of the particle with dimer basis set
| 50> $new_job
| 51> %base "19-88_DFT_B"
| 52> ! wB97X-D3 def2-TZVP TIGHTSCF CHELPG PMODEL
| 53>
| 54> %scf
| 55> MaxIter 1000
| 56> end
| 57>
| 58> * xyz 0 1
| 59>   C                    : 1.790265             3.458561             8.299905
| 60>   O                    : 0.760315             4.348827             7.951540
| 61>   H                    : 0.700689             4.320397             6.985783
| 62>   H                    : 2.747720             4.048782             8.453165
| 63>   H                    : 1.540345             2.807398             9.173545
| 64>   H                    : 2.017215             2.823354             7.489023
| 65>   C                      3.339506             -0.048470            6.275912
| 66>   O                      3.366161             0.429073             4.976725
| 67>   H                      3.378025             1.429729             4.990858
| 68>   H                      4.290189             -0.002235            6.806620
| 69>   H                      2.625669             0.565007             6.872106
| 70>   H                      2.973593             -1.060330            6.342800
| 71> *
| 72>
| 73>                          ****END OF INPUT****
 Total Charge           Charge          ....    0
 Multiplicity           Mult            ....    1
 Number of Electrons    NEL             ....   36
Dispersion correction           -0.001276262
FINAL SINGLE POINT ENERGY      -231.464732513874
Dispersion correction           -0.000237640
FINAL SINGLE POINT ENERGY      -115.731562062418

CARTESIAN COORDINATES (ANGSTROEM)
---------------------------------
  C      1.790265    3.458561    8.299905
  O      0.760315    4.348827    7.951540
  H      0.700689    4.320397    6.985783
  H      2.747720    4.048782    8.453165
  H      1.540345    2.807398    9.173545
  H      2.017215    2.823354    7.489023
  C      3.339506   -0.048470    6.275912
  O      3.366161    0.429073    4.976725
  H      3.378025    1.429729    4.990858
  H      4.290189   -0.002235    6.806620
  H      2.625669    0.565007    6.872106
  H      2.973593   -1.060330    6.342800

 Multiplicity           Mult            ....    1
 Number of Electrons    NEL             ....   18
 Basis Dimension        Dim             ....  172

ORBITAL ENERGIES
----------------

  NO   OCC          E(Eh)            E(eV)
   0   2.0000     -19.233706      -523.3757
   1   2.0000     -10.310228      -280.5556
   2   2.0000      -1.137963       -30.9655
   3   2.0000      -0.791808       -21.5462
   4   2.0000      -0.612517       -16.6674
   5   2.0000      -0.541650       -14.7390
   6   2.0000      -0.534630       -14.5480
   7   2.0000      -0.426695       -11.6110
   8   2.0000      -0.370677       -10.0866
   9   0.0000       0.074655         2.0315
  10   0.0000       0.119725         3.2579
  11   0.0000       0.148223         4.0334
  12   0.0000       0.169828         4.6213
  13   0.0000       0.185659         5.0520

MULLIKEN ATOMIC CHARGES
-----------------------
   0 C :   -0.004211
   1 O :    0.000069
   2 H :   -0.000013
   3 H :    0.000118
   4 H :    0.000093
   5 H :    0.005186
   6 C :   -0.155773
   7 O :   -0.471004
   8 H :    0.320960
   9 H :    0.097911
  10 H :    0.087284
  11 H :    0.119380
Sum of atomic charges:   -0.0000000

LOEWDIN ATOMIC CHARGES
----------------------
   0 C :   -0.002532
   1 O :   -0.000017
   2 H :   -0.000003
   3 H :   -0.000024
   4 H :   -0.000203
   5 H :   -0.003401
   6 C :   -0.411222
   7 O :   -0.072428
   8 H :    0.195982
   9 H :    0.091518
  10 H :    0.098322
  11 H :    0.104008

  Mayer bond orders larger than 0.1
B(  6-C ,  7-O ) :   1.0078 B(  6-C ,  9-H ) :   0.9722 B(  6-C , 10-H ) :   0.9857
B(  6-C , 11-H ) :   0.9720 B(  7-O ,  8-H ) :   0.8911

Dispersion correction           -0.000237689
FINAL SINGLE POINT ENERGY      -115.733202085074

DIPOLE MOMENT
-------------
                                X             Y             Z
Electronic contribution:      0.10634       0.40911      -1.85402
Nuclear contribution   :     -0.12397       0.03170       2.34996
                        -----------------------------------------
Total Dipole Moment    :     -0.01762       0.44081       0.49594
                        -----------------------------------------
Magnitude (a.u.)       :      0.66376
Magnitude (Debye)      :      1.68714

Rotational constants in cm-1:     4.314128     0.851549     0.819061
Rotational constants in MHz : 129334.310159 25528.798140 24554.828090

                             ****ORCA TERMINATED NORMALLY****
TOTAL RUN TIME: 0 days 0 hours 0 minutes 52 seconds 961 msec
