                         Program Version 4.1.2  - RELEASE  -
|  1> #Run DFT-D3 single point of the dimer
|  2> ! wB97X-D3 def2-TZVP TIGHTSCF CHELPG PMODEL PAL8
|  3>
|  4> %base "20-189_DFT_AB"
|  5>
|  6> %scf
|  7> MaxIter 1000
|  8> end
|  9>
| 10> * xyz 0 1
| 11>   C                      -3.572831            -2.518480            -3.619282
| 12>   O                      -2.201665            -2.609266            -3.374965
| 13>   H                      -1.933915            -3.521238            -3.503153
| 14>   H                      -4.055319            -3.201278            -2.917605
| 15>   H                      -3.926328            -1.556956            -3.334496
| 16>   H                      -3.891178            -2.573715            -4.624249
| 17>   C                      1.972360             -3.242380            -2.291110
| 18>   O                      0.886188             -3.726054            -3.031860
| 19>   H                      0.164085             -3.641322            -2.396645
| 20>   H                      1.793747             -2.285866            -1.788684
| 21>   H                      2.331288             -3.957920            -1.507135
| 22>   H                      2.874275             -3.131901            -2.845409
| 23> *
| 24>
| 25> #Run DFT-D3 single point of the molecule with dimer basis set
| 26> $new_job
| 27> %base "20-189_DFT_A"
| 28> ! wB97X-D3 def2-TZVP TIGHTSCF CHELPG PMODEL
| 29>
| 30> %scf
| 31> MaxIter 1000
| 32> end
| 33>
| 34> * xyz 0 1
| 35>   C                      -3.572831            -2.518480            -3.619282
| 36>   O                      -2.201665            -2.609266            -3.374965
| 37>   H                      -1.933915            -3.521238            -3.503153
| 38>   H                      -4.055319            -3.201278            -2.917605
| 39>   H                      -3.926328            -1.556956            -3.334496
| 40>   H                      -3.891178            -2.573715            -4.624249
| 41>   C                    : 1.972360             -3.242380            -2.291110
| 42>   O                    : 0.886188             -3.726054            -3.031860
| 43>   H                    : 0.164085             -3.641322            -2.396645
| 44>   H                    : 1.793747             -2.285866            -1.788684
| 45>   H                    : 2.331288             -3.957920            -1.507135
| 46>   H                    : 2.874275             -3.131901            -2.845409
| 47> *
| 48>
| 49> #Run DFT-D3 single point of the particle with dimer basis set
| 50> $new_job
| 51> %base "20-189_DFT_B"
| 52> ! wB97X-D3 def2-TZVP TIGHTSCF CHELPG PMODEL
| 53>
| 54> %scf
| 55> MaxIter 1000
| 56> end
| 57>
| 58> * xyz 0 1
| 59>   C                    : -3.572831            -2.518480            -3.619282
| 60>   O                    : -2.201665            -2.609266            -3.374965
| 61>   H                    : -1.933915            -3.521238            -3.503153
| 62>   H                    : -4.055319            -3.201278            -2.917605
| 63>   H                    : -3.926328            -1.556956            -3.334496
| 64>   H                    : -3.891178            -2.573715            -4.624249
| 65>   C                      1.972360             -3.242380            -2.291110
| 66>   O                      0.886188             -3.726054            -3.031860
| 67>   H                      0.164085             -3.641322            -2.396645
| 68>   H                      1.793747             -2.285866            -1.788684
| 69>   H                      2.331288             -3.957920            -1.507135
| 70>   H                      2.874275             -3.131901            -2.845409
| 71> *
| 72>
| 73>                          ****END OF INPUT****
 Total Charge           Charge          ....    0
 Multiplicity           Mult            ....    1
 Number of Electrons    NEL             ....   36
Dispersion correction           -0.001205009
FINAL SINGLE POINT ENERGY      -231.465318886967
Dispersion correction           -0.000227100
FINAL SINGLE POINT ENERGY      -115.731638767088

CARTESIAN COORDINATES (ANGSTROEM)
---------------------------------
  C     -3.572831   -2.518480   -3.619282
  O     -2.201665   -2.609266   -3.374965
  H     -1.933915   -3.521238   -3.503153
  H     -4.055319   -3.201278   -2.917605
  H     -3.926328   -1.556956   -3.334496
  H     -3.891178   -2.573715   -4.624249
  C      1.972360   -3.242380   -2.291110
  O      0.886188   -3.726054   -3.031860
  H      0.164085   -3.641322   -2.396645
  H      1.793747   -2.285866   -1.788684
  H      2.331288   -3.957920   -1.507135
  H      2.874275   -3.131901   -2.845409

 Multiplicity           Mult            ....    1
 Number of Electrons    NEL             ....   18
 Basis Dimension        Dim             ....  172

ORBITAL ENERGIES
----------------

  NO   OCC          E(Eh)            E(eV)
   0   2.0000     -19.237769      -523.4863
   1   2.0000     -10.311793      -280.5982
   2   2.0000      -1.146086       -31.1866
   3   2.0000      -0.795842       -21.6560
   4   2.0000      -0.613556       -16.6957
   5   2.0000      -0.541971       -14.7478
   6   2.0000      -0.531739       -14.4694
   7   2.0000      -0.440002       -11.9731
   8   2.0000      -0.374634       -10.1943
   9   0.0000       0.084505         2.2995
  10   0.0000       0.118647         3.2286
  11   0.0000       0.147768         4.0210
  12   0.0000       0.194382         5.2894
  13   0.0000       0.198899         5.4123

MULLIKEN ATOMIC CHARGES
-----------------------
   0 C :   -0.000745
   1 O :   -0.001834
   2 H :   -0.001411
   3 H :    0.000022
   4 H :    0.000034
   5 H :    0.000019
   6 C :   -0.186577
   7 O :   -0.453781
   8 H :    0.321312
   9 H :    0.103727
  10 H :    0.096885
  11 H :    0.122350
Sum of atomic charges:   -0.0000000

LOEWDIN ATOMIC CHARGES
----------------------
   0 C :   -0.000205
   1 O :   -0.003267
   2 H :   -0.003803
   3 H :   -0.000005
   4 H :   -0.000005
   5 H :   -0.000004
   6 C :   -0.408384
   7 O :   -0.059337
   8 H :    0.180700
   9 H :    0.094913
  10 H :    0.098157
  11 H :    0.101241

  Mayer bond orders larger than 0.1
B(  6-C ,  7-O ) :   1.0091 B(  6-C ,  9-H ) :   0.9762 B(  6-C , 10-H ) :   0.9757
B(  6-C , 11-H ) :   0.9751 B(  7-O ,  8-H ) :   0.8961

Dispersion correction           -0.000236821
FINAL SINGLE POINT ENERGY      -115.732503350828

DIPOLE MOMENT
-------------
                                X             Y             Z
Electronic contribution:     -1.44215      -0.62239      -1.24496
Nuclear contribution   :      1.43209       0.86379       1.89608
                        -----------------------------------------
Total Dipole Moment    :     -0.01006       0.24140       0.65112
                        -----------------------------------------
Magnitude (a.u.)       :      0.69451
Magnitude (Debye)      :      1.76530

Rotational constants in cm-1:     4.398267     0.836789     0.807690
Rotational constants in MHz : 131856.716097 25086.308483 24213.926377

                             ****ORCA TERMINATED NORMALLY****
TOTAL RUN TIME: 0 days 0 hours 1 minutes 5 seconds 843 msec
