                         Program Version 4.1.2  - RELEASE  -
|  1> #Run DFT-D3 single point of the dimer
|  2> ! wB97X-D3 def2-TZVP TIGHTSCF CHELPG PMODEL PAL8
|  3>
|  4> %base "15-80_DFT_AB"
|  5>
|  6> %scf
|  7> MaxIter 1000
|  8> end
|  9>
| 10> * xyz 0 1
| 11>   C                      3.160590             5.904719             1.409526
| 12>   O                      1.952229             6.513314             1.905539
| 13>   H                      2.203480             7.011722             2.707374
| 14>   H                      3.131705             5.037513             0.685736
| 15>   H                      3.800379             6.728786             1.090960
| 16>   H                      3.782874             5.542182             2.299754
| 17>   C                      0.197106             5.643279             -2.810635
| 18>   O                      0.990186             6.638446             -3.502178
| 19>   H                      0.467502             7.018824             -4.265643
| 20>   H                      0.725189             4.808074             -2.264387
| 21>   H                      -0.343198            6.242626             -2.087123
| 22>   H                      -0.659478            5.169632             -3.309473
| 23> *
| 24>
| 25> #Run DFT-D3 single point of the molecule with dimer basis set
| 26> $new_job
| 27> %base "15-80_DFT_A"
| 28> ! wB97X-D3 def2-TZVP TIGHTSCF CHELPG PMODEL
| 29>
| 30> %scf
| 31> MaxIter 1000
| 32> end
| 33>
| 34> * xyz 0 1
| 35>   C                      3.160590             5.904719             1.409526
| 36>   O                      1.952229             6.513314             1.905539
| 37>   H                      2.203480             7.011722             2.707374
| 38>   H                      3.131705             5.037513             0.685736
| 39>   H                      3.800379             6.728786             1.090960
| 40>   H                      3.782874             5.542182             2.299754
| 41>   C                    : 0.197106             5.643279             -2.810635
| 42>   O                    : 0.990186             6.638446             -3.502178
| 43>   H                    : 0.467502             7.018824             -4.265643
| 44>   H                    : 0.725189             4.808074             -2.264387
| 45>   H                    : -0.343198            6.242626             -2.087123
| 46>   H                    : -0.659478            5.169632             -3.309473
| 47> *
| 48>
| 49> #Run DFT-D3 single point of the particle with dimer basis set
| 50> $new_job
| 51> %base "15-80_DFT_B"
| 52> ! wB97X-D3 def2-TZVP TIGHTSCF CHELPG PMODEL
| 53>
| 54> %scf
| 55> MaxIter 1000
| 56> end
| 57>
| 58> * xyz 0 1
| 59>   C                    : 3.160590             5.904719             1.409526
| 60>   O                    : 1.952229             6.513314             1.905539
| 61>   H                    : 2.203480             7.011722             2.707374
| 62>   H                    : 3.131705             5.037513             0.685736
| 63>   H                    : 3.800379             6.728786             1.090960
| 64>   H                    : 3.782874             5.542182             2.299754
| 65>   C                      0.197106             5.643279             -2.810635
| 66>   O                      0.990186             6.638446             -3.502178
| 67>   H                      0.467502             7.018824             -4.265643
| 68>   H                      0.725189             4.808074             -2.264387
| 69>   H                      -0.343198            6.242626             -2.087123
| 70>   H                      -0.659478            5.169632             -3.309473
| 71> *
| 72>
| 73>                          ****END OF INPUT****
 Total Charge           Charge          ....    0
 Multiplicity           Mult            ....    1
 Number of Electrons    NEL             ....   36
Dispersion correction           -0.000795397
FINAL SINGLE POINT ENERGY      -231.445815994393
Dispersion correction           -0.000248475
FINAL SINGLE POINT ENERGY      -115.723582353898

CARTESIAN COORDINATES (ANGSTROEM)
---------------------------------
  C      3.160590    5.904719    1.409526
  O      1.952229    6.513314    1.905539
  H      2.203480    7.011722    2.707374
  H      3.131705    5.037513    0.685736
  H      3.800379    6.728786    1.090960
  H      3.782874    5.542182    2.299754
  C      0.197106    5.643279   -2.810635
  O      0.990186    6.638446   -3.502178
  H      0.467502    7.018824   -4.265643
  H      0.725189    4.808074   -2.264387
  H     -0.343198    6.242626   -2.087123
  H     -0.659478    5.169632   -3.309473

 Multiplicity           Mult            ....    1
 Number of Electrons    NEL             ....   18
 Basis Dimension        Dim             ....  172

ORBITAL ENERGIES
----------------

  NO   OCC          E(Eh)            E(eV)
   0   2.0000     -19.235927      -523.4362
   1   2.0000     -10.318522      -280.7813
   2   2.0000      -1.119099       -30.4522
   3   2.0000      -0.794676       -21.6242
   4   2.0000      -0.605327       -16.4718
   5   2.0000      -0.535272       -14.5655
   6   2.0000      -0.512985       -13.9590
   7   2.0000      -0.436140       -11.8680
   8   2.0000      -0.368576       -10.0295
   9   0.0000       0.088287         2.4024
  10   0.0000       0.110306         3.0016
  11   0.0000       0.139268         3.7897
  12   0.0000       0.165793         4.5115
  13   0.0000       0.184798         5.0286

MULLIKEN ATOMIC CHARGES
-----------------------
   0 C :    0.000105
   1 O :   -0.000025
   2 H :   -0.000002
   3 H :   -0.000083
   4 H :   -0.000015
   5 H :    0.000002
   6 C :   -0.189428
   7 O :   -0.480586
   8 H :    0.321219
   9 H :    0.125968
  10 H :    0.112047
  11 H :    0.110797
Sum of atomic charges:   -0.0000000

LOEWDIN ATOMIC CHARGES
----------------------
   0 C :   -0.000045
   1 O :   -0.000012
   2 H :   -0.000001
   3 H :   -0.000071
   4 H :   -0.000002
   5 H :   -0.000001
   6 C :   -0.381439
   7 O :   -0.119207
   8 H :    0.191666
   9 H :    0.114617
  10 H :    0.097501
  11 H :    0.096994

  Mayer bond orders larger than 0.1
B(  6-C ,  7-O ) :   0.9935 B(  6-C ,  9-H ) :   0.9663 B(  6-C , 10-H ) :   0.9881
B(  6-C , 11-H ) :   0.9680 B(  7-O ,  8-H ) :   0.8894

Dispersion correction           -0.000284063
FINAL SINGLE POINT ENERGY      -115.721990280182

DIPOLE MOMENT
-------------
                                X             Y             Z
Electronic contribution:      1.28349       1.14996      -0.92798
Nuclear contribution   :     -1.97067      -1.31143       0.72996
                        -----------------------------------------
Total Dipole Moment    :     -0.68718      -0.16147      -0.19802
                        -----------------------------------------
Magnitude (a.u.)       :      0.73315
Magnitude (Debye)      :      1.86351

Rotational constants in cm-1:     4.401517     0.784511     0.750023
Rotational constants in MHz : 131954.159274 23519.045334 22485.113945

                             ****ORCA TERMINATED NORMALLY****
TOTAL RUN TIME: 0 days 0 hours 1 minutes 2 seconds 852 msec
