                         Program Version 4.1.2  - RELEASE  -
|  1> #Run DFT-D3 single point of the dimer
|  2> ! wB97X-D3 def2-TZVP TIGHTSCF CHELPG PMODEL PAL8
|  3>
|  4> %base "22-82_DFT_AB"
|  5>
|  6> %scf
|  7> MaxIter 1000
|  8> end
|  9>
| 10> * xyz 0 1
| 11>   C                      3.729332             11.109176            -10.482602
| 12>   O                      4.755832             10.660201            -11.309026
| 13>   H                      4.517446             9.772490             -11.680235
| 14>   H                      2.665925             11.084278            -10.849776
| 15>   H                      3.787291             10.735170            -9.479246
| 16>   H                      3.875799             12.195148            -10.205744
| 17>   C                      5.865347             9.167918             -8.360008
| 18>   O                      5.500343             8.493549             -7.201196
| 19>   H                      4.539778             8.361218             -7.270459
| 20>   H                      5.527229             10.237435            -8.308055
| 21>   H                      6.944993             9.086587             -8.452698
| 22>   H                      5.493211             8.733666             -9.272044
| 23> *
| 24>
| 25> #Run DFT-D3 single point of the molecule with dimer basis set
| 26> $new_job
| 27> %base "22-82_DFT_A"
| 28> ! wB97X-D3 def2-TZVP TIGHTSCF CHELPG PMODEL
| 29>
| 30> %scf
| 31> MaxIter 1000
| 32> end
| 33>
| 34> * xyz 0 1
| 35>   C                      3.729332             11.109176            -10.482602
| 36>   O                      4.755832             10.660201            -11.309026
| 37>   H                      4.517446             9.772490             -11.680235
| 38>   H                      2.665925             11.084278            -10.849776
| 39>   H                      3.787291             10.735170            -9.479246
| 40>   H                      3.875799             12.195148            -10.205744
| 41>   C                    : 5.865347             9.167918             -8.360008
| 42>   O                    : 5.500343             8.493549             -7.201196
| 43>   H                    : 4.539778             8.361218             -7.270459
| 44>   H                    : 5.527229             10.237435            -8.308055
| 45>   H                    : 6.944993             9.086587             -8.452698
| 46>   H                    : 5.493211             8.733666             -9.272044
| 47> *
| 48>
| 49> #Run DFT-D3 single point of the particle with dimer basis set
| 50> $new_job
| 51> %base "22-82_DFT_B"
| 52> ! wB97X-D3 def2-TZVP TIGHTSCF CHELPG PMODEL
| 53>
| 54> %scf
| 55> MaxIter 1000
| 56> end
| 57>
| 58> * xyz 0 1
| 59>   C                    : 3.729332             11.109176            -10.482602
| 60>   O                    : 4.755832             10.660201            -11.309026
| 61>   H                    : 4.517446             9.772490             -11.680235
| 62>   H                    : 2.665925             11.084278            -10.849776
| 63>   H                    : 3.787291             10.735170            -9.479246
| 64>   H                    : 3.875799             12.195148            -10.205744
| 65>   C                      5.865347             9.167918             -8.360008
| 66>   O                      5.500343             8.493549             -7.201196
| 67>   H                      4.539778             8.361218             -7.270459
| 68>   H                      5.527229             10.237435            -8.308055
| 69>   H                      6.944993             9.086587             -8.452698
| 70>   H                      5.493211             8.733666             -9.272044
| 71> *
| 72>
| 73>                          ****END OF INPUT****
 Total Charge           Charge          ....    0
 Multiplicity           Mult            ....    1
 Number of Electrons    NEL             ....   36
Dispersion correction           -0.002009318
FINAL SINGLE POINT ENERGY      -231.464754179419
Dispersion correction           -0.000276529
FINAL SINGLE POINT ENERGY      -115.729190891347

CARTESIAN COORDINATES (ANGSTROEM)
---------------------------------
  C      3.729332   11.109176  -10.482602
  O      4.755832   10.660201  -11.309026
  H      4.517446    9.772490  -11.680235
  H      2.665925   11.084278  -10.849776
  H      3.787291   10.735170   -9.479246
  H      3.875799   12.195148  -10.205744
  C      5.865347    9.167918   -8.360008
  O      5.500343    8.493549   -7.201196
  H      4.539778    8.361218   -7.270459
  H      5.527229   10.237435   -8.308055
  H      6.944993    9.086587   -8.452698
  H      5.493211    8.733666   -9.272044

 Multiplicity           Mult            ....    1
 Number of Electrons    NEL             ....   18
 Basis Dimension        Dim             ....  172

ORBITAL ENERGIES
----------------

  NO   OCC          E(Eh)            E(eV)
   0   2.0000     -19.232171      -523.3340
   1   2.0000     -10.310394      -280.5601
   2   2.0000      -1.143891       -31.1269
   3   2.0000      -0.791934       -21.5496
   4   2.0000      -0.614941       -16.7334
   5   2.0000      -0.547141       -14.8885
   6   2.0000      -0.524584       -14.2747
   7   2.0000      -0.434999       -11.8369
   8   2.0000      -0.372799       -10.1444
   9   0.0000       0.080786         2.1983
  10   0.0000       0.117608         3.2003
  11   0.0000       0.148896         4.0517
  12   0.0000       0.164784         4.4840
  13   0.0000       0.191110         5.2004

MULLIKEN ATOMIC CHARGES
-----------------------
   0 C :   -0.008375
   1 O :    0.000147
   2 H :   -0.000251
   3 H :   -0.000211
   4 H :    0.004266
   5 H :    0.000597
   6 C :   -0.156535
   7 O :   -0.463531
   8 H :    0.313354
   9 H :    0.096331
  10 H :    0.117253
  11 H :    0.096957
Sum of atomic charges:   -0.0000000

LOEWDIN ATOMIC CHARGES
----------------------
   0 C :   -0.009625
   1 O :   -0.001602
   2 H :   -0.001435
   3 H :   -0.000078
   4 H :   -0.008108
   5 H :   -0.000269
   6 C :   -0.401965
   7 O :   -0.061003
   8 H :    0.178782
   9 H :    0.105658
  10 H :    0.107794
  11 H :    0.091849

  Mayer bond orders larger than 0.1
B(  6-C ,  7-O ) :   1.0097 B(  6-C ,  9-H ) :   0.9774 B(  6-C , 10-H ) :   0.9694
B(  6-C , 11-H ) :   0.9759 B(  7-O ,  8-H ) :   0.9002

Dispersion correction           -0.000225426
FINAL SINGLE POINT ENERGY      -115.735063134102

DIPOLE MOMENT
-------------
                                X             Y             Z
Electronic contribution:     -0.35046      -0.91647       1.56639
Nuclear contribution   :     -0.10250       1.05144      -2.05066
                        -----------------------------------------
Total Dipole Moment    :     -0.45296       0.13497      -0.48428
                        -----------------------------------------
Magnitude (a.u.)       :      0.67669
Magnitude (Debye)      :      1.72002

Rotational constants in cm-1:     4.232608     0.857013     0.828009
Rotational constants in MHz : 126890.399136 25692.605245 24823.096283

                             ****ORCA TERMINATED NORMALLY****
TOTAL RUN TIME: 0 days 0 hours 1 minutes 0 seconds 362 msec
