                         Program Version 4.1.2  - RELEASE  -
|  1> #Run DFT-D3 single point of the dimer
|  2> ! wB97X-D3 def2-TZVP TIGHTSCF CHELPG PMODEL PAL8
|  3>
|  4> %base "4-15_DFT_AB"
|  5>
|  6> %scf
|  7> MaxIter 1000
|  8> end
|  9>
| 10> * xyz 0 1
| 11>   C                      -3.440480            1.608124             -5.363870
| 12>   O                      -4.023051            1.698251             -6.686188
| 13>   H                      -4.350094            0.892071             -7.073146
| 14>   H                      -4.299878            1.217766             -4.707092
| 15>   H                      -2.598717            0.960056             -5.139841
| 16>   H                      -3.210669            2.597576             -4.898620
| 17>   C                      -5.627436            2.843415             -9.896232
| 18>   O                      -4.473519            3.478313             -9.440908
| 19>   H                      -4.272801            3.089341             -8.579657
| 20>   H                      -6.004657            3.140295             -10.907771
| 21>   H                      -5.486322            1.728012             -9.944384
| 22>   H                      -6.470970            3.073968             -9.297097
| 23> *
| 24>
| 25> #Run DFT-D3 single point of the molecule with dimer basis set
| 26> $new_job
| 27> %base "4-15_DFT_A"
| 28> ! wB97X-D3 def2-TZVP TIGHTSCF CHELPG PMODEL
| 29>
| 30> %scf
| 31> MaxIter 1000
| 32> end
| 33>
| 34> * xyz 0 1
| 35>   C                      -3.440480            1.608124             -5.363870
| 36>   O                      -4.023051            1.698251             -6.686188
| 37>   H                      -4.350094            0.892071             -7.073146
| 38>   H                      -4.299878            1.217766             -4.707092
| 39>   H                      -2.598717            0.960056             -5.139841
| 40>   H                      -3.210669            2.597576             -4.898620
| 41>   C                    : -5.627436            2.843415             -9.896232
| 42>   O                    : -4.473519            3.478313             -9.440908
| 43>   H                    : -4.272801            3.089341             -8.579657
| 44>   H                    : -6.004657            3.140295             -10.907771
| 45>   H                    : -5.486322            1.728012             -9.944384
| 46>   H                    : -6.470970            3.073968             -9.297097
| 47> *
| 48>
| 49> #Run DFT-D3 single point of the particle with dimer basis set
| 50> $new_job
| 51> %base "4-15_DFT_B"
| 52> ! wB97X-D3 def2-TZVP TIGHTSCF CHELPG PMODEL
| 53>
| 54> %scf
| 55> MaxIter 1000
| 56> end
| 57>
| 58> * xyz 0 1
| 59>   C                    : -3.440480            1.608124             -5.363870
| 60>   O                    : -4.023051            1.698251             -6.686188
| 61>   H                    : -4.350094            0.892071             -7.073146
| 62>   H                    : -4.299878            1.217766             -4.707092
| 63>   H                    : -2.598717            0.960056             -5.139841
| 64>   H                    : -3.210669            2.597576             -4.898620
| 65>   C                      -5.627436            2.843415             -9.896232
| 66>   O                      -4.473519            3.478313             -9.440908
| 67>   H                      -4.272801            3.089341             -8.579657
| 68>   H                      -6.004657            3.140295             -10.907771
| 69>   H                      -5.486322            1.728012             -9.944384
| 70>   H                      -6.470970            3.073968             -9.297097
| 71> *
| 72>
| 73>                          ****END OF INPUT****
 Total Charge           Charge          ....    0
 Multiplicity           Mult            ....    1
 Number of Electrons    NEL             ....   36
Dispersion correction           -0.001504332
FINAL SINGLE POINT ENERGY      -231.462815186009
Dispersion correction           -0.000299515
FINAL SINGLE POINT ENERGY      -115.724493911997

CARTESIAN COORDINATES (ANGSTROEM)
---------------------------------
  C     -3.440480    1.608124   -5.363870
  O     -4.023051    1.698251   -6.686188
  H     -4.350094    0.892071   -7.073146
  H     -4.299878    1.217766   -4.707092
  H     -2.598717    0.960056   -5.139841
  H     -3.210669    2.597576   -4.898620
  C     -5.627436    2.843415   -9.896232
  O     -4.473519    3.478313   -9.440908
  H     -4.272801    3.089341   -8.579657
  H     -6.004657    3.140295  -10.907771
  H     -5.486322    1.728012   -9.944384
  H     -6.470970    3.073968   -9.297097

 Multiplicity           Mult            ....    1
 Number of Electrons    NEL             ....   18
 Basis Dimension        Dim             ....  172

ORBITAL ENERGIES
----------------

  NO   OCC          E(Eh)            E(eV)
   0   2.0000     -19.233898      -523.3810
   1   2.0000     -10.313989      -280.6579
   2   2.0000      -1.144093       -31.1324
   3   2.0000      -0.793711       -21.5980
   4   2.0000      -0.613393       -16.6913
   5   2.0000      -0.547513       -14.8986
   6   2.0000      -0.530564       -14.4374
   7   2.0000      -0.426960       -11.6182
   8   2.0000      -0.374679       -10.1955
   9   0.0000       0.069528         1.8920
  10   0.0000       0.119542         3.2529
  11   0.0000       0.147933         4.0255
  12   0.0000       0.170476         4.6389
  13   0.0000       0.195506         5.3200

MULLIKEN ATOMIC CHARGES
-----------------------
   0 C :   -0.000559
   1 O :   -0.001262
   2 H :   -0.000258
   3 H :    0.000017
   4 H :    0.000004
   5 H :    0.000017
   6 C :   -0.171235
   7 O :   -0.465177
   8 H :    0.318245
   9 H :    0.113913
  10 H :    0.099578
  11 H :    0.106718
Sum of atomic charges:   -0.0000000

LOEWDIN ATOMIC CHARGES
----------------------
   0 C :   -0.000553
   1 O :   -0.006657
   2 H :   -0.001069
   3 H :   -0.000014
   4 H :   -0.000012
   5 H :   -0.000025
   6 C :   -0.410681
   7 O :   -0.059520
   8 H :    0.179283
   9 H :    0.112829
  10 H :    0.099677
  11 H :    0.086741

  Mayer bond orders larger than 0.1
B(  6-C ,  7-O ) :   0.9943 B(  6-C ,  9-H ) :   0.9711 B(  6-C , 10-H ) :   0.9807
B(  6-C , 11-H ) :   0.9765 B(  7-O ,  8-H ) :   0.9018

Dispersion correction           -0.000236206
FINAL SINGLE POINT ENERGY      -115.731826071083

DIPOLE MOMENT
-------------
                                X             Y             Z
Electronic contribution:      1.59651       0.99882       0.51555
Nuclear contribution   :     -1.92824      -1.46531      -0.14816
                        -----------------------------------------
Total Dipole Moment    :     -0.33173      -0.46650       0.36739
                        -----------------------------------------
Magnitude (a.u.)       :      0.68018
Magnitude (Debye)      :      1.72887

Rotational constants in cm-1:     4.365019     0.839547     0.810980
Rotational constants in MHz : 130859.981511 25168.981923 24312.560140

                             ****ORCA TERMINATED NORMALLY****
TOTAL RUN TIME: 0 days 0 hours 1 minutes 36 seconds 517 msec
