                         Program Version 4.1.2  - RELEASE  -
|  1> #Run DFT-D3 single point of the dimer
|  2> ! wB97X-D3 def2-TZVP TIGHTSCF CHELPG PMODEL PAL8
|  3>
|  4> %base "5-41_DFT_AB"
|  5>
|  6> %scf
|  7> MaxIter 1000
|  8> end
|  9>
| 10> * xyz 0 1
| 11>   C                      -2.327879            -1.689422            -8.778547
| 12>   O                      -1.414397            -2.216028            -7.842568
| 13>   H                      -1.431879            -3.135477            -8.159358
| 14>   H                      -1.907718            -1.481460            -9.705796
| 15>   H                      -3.138934            -2.311804            -8.966968
| 16>   H                      -2.843604            -0.810400            -8.339234
| 17>   C                      1.574594             -2.147675            -10.160961
| 18>   O                      2.480961             -1.239558            -9.580505
| 19>   H                      1.907902             -0.652711            -9.047273
| 20>   H                      1.867958             -2.624338            -11.055404
| 21>   H                      1.212482             -2.902957            -9.483861
| 22>   H                      0.750634             -1.476024            -10.482996
| 23> *
| 24>
| 25> #Run DFT-D3 single point of the molecule with dimer basis set
| 26> $new_job
| 27> %base "5-41_DFT_A"
| 28> ! wB97X-D3 def2-TZVP TIGHTSCF CHELPG PMODEL
| 29>
| 30> %scf
| 31> MaxIter 1000
| 32> end
| 33>
| 34> * xyz 0 1
| 35>   C                      -2.327879            -1.689422            -8.778547
| 36>   O                      -1.414397            -2.216028            -7.842568
| 37>   H                      -1.431879            -3.135477            -8.159358
| 38>   H                      -1.907718            -1.481460            -9.705796
| 39>   H                      -3.138934            -2.311804            -8.966968
| 40>   H                      -2.843604            -0.810400            -8.339234
| 41>   C                    : 1.574594             -2.147675            -10.160961
| 42>   O                    : 2.480961             -1.239558            -9.580505
| 43>   H                    : 1.907902             -0.652711            -9.047273
| 44>   H                    : 1.867958             -2.624338            -11.055404
| 45>   H                    : 1.212482             -2.902957            -9.483861
| 46>   H                    : 0.750634             -1.476024            -10.482996
| 47> *
| 48>
| 49> #Run DFT-D3 single point of the particle with dimer basis set
| 50> $new_job
| 51> %base "5-41_DFT_B"
| 52> ! wB97X-D3 def2-TZVP TIGHTSCF CHELPG PMODEL
| 53>
| 54> %scf
| 55> MaxIter 1000
| 56> end
| 57>
| 58> * xyz 0 1
| 59>   C                    : -2.327879            -1.689422            -8.778547
| 60>   O                    : -1.414397            -2.216028            -7.842568
| 61>   H                    : -1.431879            -3.135477            -8.159358
| 62>   H                    : -1.907718            -1.481460            -9.705796
| 63>   H                    : -3.138934            -2.311804            -8.966968
| 64>   H                    : -2.843604            -0.810400            -8.339234
| 65>   C                      1.574594             -2.147675            -10.160961
| 66>   O                      2.480961             -1.239558            -9.580505
| 67>   H                      1.907902             -0.652711            -9.047273
| 68>   H                      1.867958             -2.624338            -11.055404
| 69>   H                      1.212482             -2.902957            -9.483861
| 70>   H                      0.750634             -1.476024            -10.482996
| 71> *
| 72>
| 73>                          ****END OF INPUT****
 Total Charge           Charge          ....    0
 Multiplicity           Mult            ....    1
 Number of Electrons    NEL             ....   36
Dispersion correction           -0.001597122
FINAL SINGLE POINT ENERGY      -231.456917932668
Dispersion correction           -0.000207047
FINAL SINGLE POINT ENERGY      -115.726903471240

CARTESIAN COORDINATES (ANGSTROEM)
---------------------------------
  C     -2.327879   -1.689422   -8.778547
  O     -1.414397   -2.216028   -7.842568
  H     -1.431879   -3.135477   -8.159358
  H     -1.907718   -1.481460   -9.705796
  H     -3.138934   -2.311804   -8.966968
  H     -2.843604   -0.810400   -8.339234
  C      1.574594   -2.147675  -10.160961
  O      2.480961   -1.239558   -9.580505
  H      1.907902   -0.652711   -9.047273
  H      1.867958   -2.624338  -11.055404
  H      1.212482   -2.902957   -9.483861
  H      0.750634   -1.476024  -10.482996

 Multiplicity           Mult            ....    1
 Number of Electrons    NEL             ....   18
 Basis Dimension        Dim             ....  172

ORBITAL ENERGIES
----------------

  NO   OCC          E(Eh)            E(eV)
   0   2.0000     -19.231302      -523.3103
   1   2.0000     -10.308610      -280.5115
   2   2.0000      -1.137598       -30.9556
   3   2.0000      -0.795235       -21.6394
   4   2.0000      -0.605640       -16.4803
   5   2.0000      -0.549788       -14.9605
   6   2.0000      -0.537997       -14.6396
   7   2.0000      -0.427432       -11.6310
   8   2.0000      -0.372984       -10.1494
   9   0.0000       0.077646         2.1129
  10   0.0000       0.115152         3.1335
  11   0.0000       0.150247         4.0884
  12   0.0000       0.162955         4.4342
  13   0.0000       0.191961         5.2235

MULLIKEN ATOMIC CHARGES
-----------------------
   0 C :    0.001422
   1 O :    0.000089
   2 H :   -0.000515
   3 H :   -0.002370
   4 H :   -0.000068
   5 H :   -0.000109
   6 C :   -0.174240
   7 O :   -0.468882
   8 H :    0.320592
   9 H :    0.121540
  10 H :    0.104288
  11 H :    0.098253
Sum of atomic charges:   -0.0000000

LOEWDIN ATOMIC CHARGES
----------------------
   0 C :   -0.001899
   1 O :   -0.000604
   2 H :   -0.001088
   3 H :   -0.002313
   4 H :   -0.000009
   5 H :   -0.000018
   6 C :   -0.388415
   7 O :   -0.083590
   8 H :    0.184628
   9 H :    0.097193
  10 H :    0.091835
  11 H :    0.104281

  Mayer bond orders larger than 0.1
B(  6-C ,  7-O ) :   0.9976 B(  6-C ,  9-H ) :   0.9700 B(  6-C , 10-H ) :   0.9687
B(  6-C , 11-H ) :   1.0027 B(  7-O ,  8-H ) :   0.8971

Dispersion correction           -0.000217012
FINAL SINGLE POINT ENERGY      -115.728160437932

DIPOLE MOMENT
-------------
                                X             Y             Z
Electronic contribution:      1.44921       0.93913       0.68815
Nuclear contribution   :     -2.15013      -0.92878      -0.61261
                        -----------------------------------------
Total Dipole Moment    :     -0.70092       0.01036       0.07554
                        -----------------------------------------
Magnitude (a.u.)       :      0.70506
Magnitude (Debye)      :      1.79211

Rotational constants in cm-1:     4.358200     0.840066     0.815123
Rotational constants in MHz : 130655.561571 25184.545271 24436.761129

                             ****ORCA TERMINATED NORMALLY****
TOTAL RUN TIME: 0 days 0 hours 0 minutes 55 seconds 542 msec
