                         Program Version 4.1.2  - RELEASE  -
|  1> #Run DFT-D3 single point of the dimer
|  2> ! wB97X-D3 def2-TZVP TIGHTSCF CHELPG PMODEL PAL8
|  3>
|  4> %base "5-65_DFT_AB"
|  5>
|  6> %scf
|  7> MaxIter 1000
|  8> end
|  9>
| 10> * xyz 0 1
| 11>   C                      0.496941             1.392049             5.026981
| 12>   O                      -0.494197            0.337308             5.082726
| 13>   H                      -0.689183            0.394878             4.127763
| 14>   H                      1.282604             1.248695             5.776744
| 15>   H                      1.032644             1.416140             4.066925
| 16>   H                      -0.013328            2.353019             5.225455
| 17>   C                      -2.888848            -1.772345            6.692776
| 18>   O                      -3.003032            -3.109988            6.959412
| 19>   H                      -2.267008            -3.296468            7.598126
| 20>   H                      -2.440513            -1.184725            7.544793
| 21>   H                      -2.265644            -1.618220            5.769724
| 22>   H                      -3.761533            -1.232645            6.411264
| 23> *
| 24>
| 25> #Run DFT-D3 single point of the molecule with dimer basis set
| 26> $new_job
| 27> %base "5-65_DFT_A"
| 28> ! wB97X-D3 def2-TZVP TIGHTSCF CHELPG PMODEL
| 29>
| 30> %scf
| 31> MaxIter 1000
| 32> end
| 33>
| 34> * xyz 0 1
| 35>   C                      0.496941             1.392049             5.026981
| 36>   O                      -0.494197            0.337308             5.082726
| 37>   H                      -0.689183            0.394878             4.127763
| 38>   H                      1.282604             1.248695             5.776744
| 39>   H                      1.032644             1.416140             4.066925
| 40>   H                      -0.013328            2.353019             5.225455
| 41>   C                    : -2.888848            -1.772345            6.692776
| 42>   O                    : -3.003032            -3.109988            6.959412
| 43>   H                    : -2.267008            -3.296468            7.598126
| 44>   H                    : -2.440513            -1.184725            7.544793
| 45>   H                    : -2.265644            -1.618220            5.769724
| 46>   H                    : -3.761533            -1.232645            6.411264
| 47> *
| 48>
| 49> #Run DFT-D3 single point of the particle with dimer basis set
| 50> $new_job
| 51> %base "5-65_DFT_B"
| 52> ! wB97X-D3 def2-TZVP TIGHTSCF CHELPG PMODEL
| 53>
| 54> %scf
| 55> MaxIter 1000
| 56> end
| 57>
| 58> * xyz 0 1
| 59>   C                    : 0.496941             1.392049             5.026981
| 60>   O                    : -0.494197            0.337308             5.082726
| 61>   H                    : -0.689183            0.394878             4.127763
| 62>   H                    : 1.282604             1.248695             5.776744
| 63>   H                    : 1.032644             1.416140             4.066925
| 64>   H                    : -0.013328            2.353019             5.225455
| 65>   C                      -2.888848            -1.772345            6.692776
| 66>   O                      -3.003032            -3.109988            6.959412
| 67>   H                      -2.267008            -3.296468            7.598126
| 68>   H                      -2.440513            -1.184725            7.544793
| 69>   H                      -2.265644            -1.618220            5.769724
| 70>   H                      -3.761533            -1.232645            6.411264
| 71> *
| 72>
| 73>                          ****END OF INPUT****
 Total Charge           Charge          ....    0
 Multiplicity           Mult            ....    1
 Number of Electrons    NEL             ....   36
Dispersion correction           -0.001210819
FINAL SINGLE POINT ENERGY      -231.457728749636
Dispersion correction           -0.000226452
FINAL SINGLE POINT ENERGY      -115.728954549664

CARTESIAN COORDINATES (ANGSTROEM)
---------------------------------
  C      0.496941    1.392049    5.026981
  O     -0.494197    0.337308    5.082726
  H     -0.689183    0.394878    4.127763
  H      1.282604    1.248695    5.776744
  H      1.032644    1.416140    4.066925
  H     -0.013328    2.353019    5.225455
  C     -2.888848   -1.772345    6.692776
  O     -3.003032   -3.109988    6.959412
  H     -2.267008   -3.296468    7.598126
  H     -2.440513   -1.184725    7.544793
  H     -2.265644   -1.618220    5.769724
  H     -3.761533   -1.232645    6.411264

 Multiplicity           Mult            ....    1
 Number of Electrons    NEL             ....   18
 Basis Dimension        Dim             ....  172

ORBITAL ENERGIES
----------------

  NO   OCC          E(Eh)            E(eV)
   0   2.0000     -19.237128      -523.4689
   1   2.0000     -10.312560      -280.6190
   2   2.0000      -1.149802       -31.2877
   3   2.0000      -0.789661       -21.4878
   4   2.0000      -0.615673       -16.7533
   5   2.0000      -0.542658       -14.7665
   6   2.0000      -0.537906       -14.6372
   7   2.0000      -0.431089       -11.7305
   8   2.0000      -0.367996       -10.0137
   9   0.0000       0.084290         2.2936
  10   0.0000       0.108688         2.9575
  11   0.0000       0.143429         3.9029
  12   0.0000       0.173540         4.7223
  13   0.0000       0.195002         5.3063

MULLIKEN ATOMIC CHARGES
-----------------------
   0 C :   -0.000550
   1 O :   -0.000727
   2 H :   -0.000539
   3 H :    0.000025
   4 H :    0.000019
   5 H :    0.000004
   6 C :   -0.177194
   7 O :   -0.454890
   8 H :    0.325756
   9 H :    0.096952
  10 H :    0.094277
  11 H :    0.116867
Sum of atomic charges:    0.0000000

LOEWDIN ATOMIC CHARGES
----------------------
   0 C :   -0.000330
   1 O :   -0.004690
   2 H :   -0.001105
   3 H :   -0.000013
   4 H :   -0.000006
   5 H :   -0.000012
   6 C :   -0.437842
   7 O :   -0.053302
   8 H :    0.199011
   9 H :    0.100925
  10 H :    0.100130
  11 H :    0.097235

  Mayer bond orders larger than 0.1
B(  6-C ,  7-O ) :   1.0156 B(  6-C ,  9-H ) :   0.9847 B(  6-C , 10-H ) :   0.9802
B(  6-C , 11-H ) :   0.9688 B(  7-O ,  8-H ) :   0.8908

Dispersion correction           -0.000235565
FINAL SINGLE POINT ENERGY      -115.727816054002

DIPOLE MOMENT
-------------
                                X             Y             Z
Electronic contribution:     -0.42153      -1.93879       0.35850
Nuclear contribution   :      0.88580       2.29763      -0.04453
                        -----------------------------------------
Total Dipole Moment    :      0.46427       0.35884       0.31396
                        -----------------------------------------
Magnitude (a.u.)       :      0.66549
Magnitude (Debye)      :      1.69155

Rotational constants in cm-1:     4.285523     0.867288     0.829343
Rotational constants in MHz : 128476.735755 26000.630129 24863.067004

                             ****ORCA TERMINATED NORMALLY****
TOTAL RUN TIME: 0 days 0 hours 1 minutes 5 seconds 200 msec
