                         Program Version 4.1.2  - RELEASE  -
|  1> #Run DFT-D3 single point of the dimer
|  2> ! wB97X-D3 def2-TZVP TIGHTSCF CHELPG PMODEL PAL8
|  3>
|  4> %base "10-108_DFT_AB"
|  5>
|  6> %scf
|  7> MaxIter 1000
|  8> end
|  9>
| 10> * xyz 0 1
| 11>   C                      5.369477             -6.342536            -0.441178
| 12>   O                      5.334754             -5.019816            0.209316
| 13>   H                      4.689948             -4.385982            -0.258636
| 14>   H                      5.435570             -7.157379            0.285672
| 15>   H                      4.490291             -6.557346            -0.960870
| 16>   H                      6.075459             -6.414477            -1.304671
| 17>   C                      3.203377             -1.217484            -0.749389
| 18>   O                      4.062555             -2.295601            -1.220130
| 19>   H                      4.458359             -2.035468            -2.092051
| 20>   H                      3.064216             -1.253554            0.326421
| 21>   H                      3.703060             -0.257656            -0.988872
| 22>   H                      2.241953             -1.193631            -1.159295
| 23> *
| 24>
| 25> #Run DFT-D3 single point of the molecule with dimer basis set
| 26> $new_job
| 27> %base "10-108_DFT_A"
| 28> ! wB97X-D3 def2-TZVP TIGHTSCF CHELPG PMODEL
| 29>
| 30> %scf
| 31> MaxIter 1000
| 32> end
| 33>
| 34> * xyz 0 1
| 35>   C                      5.369477             -6.342536            -0.441178
| 36>   O                      5.334754             -5.019816            0.209316
| 37>   H                      4.689948             -4.385982            -0.258636
| 38>   H                      5.435570             -7.157379            0.285672
| 39>   H                      4.490291             -6.557346            -0.960870
| 40>   H                      6.075459             -6.414477            -1.304671
| 41>   C                    : 3.203377             -1.217484            -0.749389
| 42>   O                    : 4.062555             -2.295601            -1.220130
| 43>   H                    : 4.458359             -2.035468            -2.092051
| 44>   H                    : 3.064216             -1.253554            0.326421
| 45>   H                    : 3.703060             -0.257656            -0.988872
| 46>   H                    : 2.241953             -1.193631            -1.159295
| 47> *
| 48>
| 49> #Run DFT-D3 single point of the particle with dimer basis set
| 50> $new_job
| 51> %base "10-108_DFT_B"
| 52> ! wB97X-D3 def2-TZVP TIGHTSCF CHELPG PMODEL
| 53>
| 54> %scf
| 55> MaxIter 1000
| 56> end
| 57>
| 58> * xyz 0 1
| 59>   C                    : 5.369477             -6.342536            -0.441178
| 60>   O                    : 5.334754             -5.019816            0.209316
| 61>   H                    : 4.689948             -4.385982            -0.258636
| 62>   H                    : 5.435570             -7.157379            0.285672
| 63>   H                    : 4.490291             -6.557346            -0.960870
| 64>   H                    : 6.075459             -6.414477            -1.304671
| 65>   C                      3.203377             -1.217484            -0.749389
| 66>   O                      4.062555             -2.295601            -1.220130
| 67>   H                      4.458359             -2.035468            -2.092051
| 68>   H                      3.064216             -1.253554            0.326421
| 69>   H                      3.703060             -0.257656            -0.988872
| 70>   H                      2.241953             -1.193631            -1.159295
| 71> *
| 72>
| 73>                          ****END OF INPUT****
 Total Charge           Charge          ....    0
 Multiplicity           Mult            ....    1
 Number of Electrons    NEL             ....   36
Dispersion correction           -0.001261527
FINAL SINGLE POINT ENERGY      -231.460272677223
Dispersion correction           -0.000291350
FINAL SINGLE POINT ENERGY      -115.722753948217

CARTESIAN COORDINATES (ANGSTROEM)
---------------------------------
  C      5.369477   -6.342536   -0.441178
  O      5.334754   -5.019816    0.209316
  H      4.689948   -4.385982   -0.258636
  H      5.435570   -7.157379    0.285672
  H      4.490291   -6.557346   -0.960870
  H      6.075459   -6.414477   -1.304671
  C      3.203377   -1.217484   -0.749389
  O      4.062555   -2.295601   -1.220130
  H      4.458359   -2.035468   -2.092051
  H      3.064216   -1.253554    0.326421
  H      3.703060   -0.257656   -0.988872
  H      2.241953   -1.193631   -1.159295

 Multiplicity           Mult            ....    1
 Number of Electrons    NEL             ....   18
 Basis Dimension        Dim             ....  172

ORBITAL ENERGIES
----------------

  NO   OCC          E(Eh)            E(eV)
   0   2.0000     -19.232752      -523.3498
   1   2.0000     -10.312623      -280.6207
   2   2.0000      -1.116671       -30.3862
   3   2.0000      -0.800006       -21.7693
   4   2.0000      -0.599556       -16.3148
   5   2.0000      -0.540830       -14.7167
   6   2.0000      -0.525663       -14.3040
   7   2.0000      -0.431574       -11.7437
   8   2.0000      -0.375680       -10.2228
   9   0.0000       0.097292         2.6475
  10   0.0000       0.115063         3.1310
  11   0.0000       0.150212         4.0875
  12   0.0000       0.186698         5.0803
  13   0.0000       0.204738         5.5712

MULLIKEN ATOMIC CHARGES
-----------------------
   0 C :    0.000306
   1 O :   -0.000353
   2 H :   -0.007407
   3 H :   -0.000040
   4 H :   -0.000250
   5 H :    0.000005
   6 C :   -0.166797
   7 O :   -0.480249
   8 H :    0.316268
   9 H :    0.124300
  10 H :    0.101907
  11 H :    0.112310
Sum of atomic charges:    0.0000000

LOEWDIN ATOMIC CHARGES
----------------------
   0 C :   -0.000261
   1 O :   -0.001382
   2 H :   -0.017884
   3 H :   -0.000004
   4 H :   -0.000046
   5 H :   -0.000004
   6 C :   -0.350137
   7 O :   -0.107082
   8 H :    0.184223
   9 H :    0.106775
  10 H :    0.101279
  11 H :    0.084522

  Mayer bond orders larger than 0.1
B(  6-C ,  7-O ) :   0.9963 B(  6-C ,  9-H ) :   0.9758 B(  6-C , 10-H ) :   0.9843
B(  6-C , 11-H ) :   0.9674 B(  7-O ,  8-H ) :   0.8934

Dispersion correction           -0.000260943
FINAL SINGLE POINT ENERGY      -115.731435389343

DIPOLE MOMENT
-------------
                                X             Y             Z
Electronic contribution:      0.93754      -1.48109      -0.47095
Nuclear contribution   :     -1.06742       2.11842       0.12758
                        -----------------------------------------
Total Dipole Moment    :     -0.12989       0.63733      -0.34337
                        -----------------------------------------
Magnitude (a.u.)       :      0.73550
Magnitude (Debye)      :      1.86949

Rotational constants in cm-1:     4.387057     0.789963     0.758357
Rotational constants in MHz : 131520.672559 23682.488285 22734.982682

                             ****ORCA TERMINATED NORMALLY****
TOTAL RUN TIME: 0 days 0 hours 1 minutes 2 seconds 490 msec
