                         Program Version 4.1.2  - RELEASE  -
|  1> #Run DFT-D3 single point of the dimer
|  2> ! wB97X-D3 def2-TZVP TIGHTSCF CHELPG PMODEL PAL8
|  3>
|  4> %base "22-79_DFT_AB"
|  5>
|  6> %scf
|  7> MaxIter 1000
|  8> end
|  9>
| 10> * xyz 0 1
| 11>   C                      3.729332             11.109176            -10.482602
| 12>   O                      4.755832             10.660201            -11.309026
| 13>   H                      4.517446             9.772490             -11.680235
| 14>   H                      2.665925             11.084278            -10.849776
| 15>   H                      3.787291             10.735170            -9.479246
| 16>   H                      3.875799             12.195148            -10.205744
| 17>   C                      1.849405             10.403174            -6.975823
| 18>   O                      2.478847             9.152996             -7.261366
| 19>   H                      1.801508             8.464641             -7.105804
| 20>   H                      1.309623             10.282888            -6.056580
| 21>   H                      2.652118             11.175749            -6.874183
| 22>   H                      1.064721             10.693394            -7.711019
| 23> *
| 24>
| 25> #Run DFT-D3 single point of the molecule with dimer basis set
| 26> $new_job
| 27> %base "22-79_DFT_A"
| 28> ! wB97X-D3 def2-TZVP TIGHTSCF CHELPG PMODEL
| 29>
| 30> %scf
| 31> MaxIter 1000
| 32> end
| 33>
| 34> * xyz 0 1
| 35>   C                      3.729332             11.109176            -10.482602
| 36>   O                      4.755832             10.660201            -11.309026
| 37>   H                      4.517446             9.772490             -11.680235
| 38>   H                      2.665925             11.084278            -10.849776
| 39>   H                      3.787291             10.735170            -9.479246
| 40>   H                      3.875799             12.195148            -10.205744
| 41>   C                    : 1.849405             10.403174            -6.975823
| 42>   O                    : 2.478847             9.152996             -7.261366
| 43>   H                    : 1.801508             8.464641             -7.105804
| 44>   H                    : 1.309623             10.282888            -6.056580
| 45>   H                    : 2.652118             11.175749            -6.874183
| 46>   H                    : 1.064721             10.693394            -7.711019
| 47> *
| 48>
| 49> #Run DFT-D3 single point of the particle with dimer basis set
| 50> $new_job
| 51> %base "22-79_DFT_B"
| 52> ! wB97X-D3 def2-TZVP TIGHTSCF CHELPG PMODEL
| 53>
| 54> %scf
| 55> MaxIter 1000
| 56> end
| 57>
| 58> * xyz 0 1
| 59>   C                    : 3.729332             11.109176            -10.482602
| 60>   O                    : 4.755832             10.660201            -11.309026
| 61>   H                    : 4.517446             9.772490             -11.680235
| 62>   H                    : 2.665925             11.084278            -10.849776
| 63>   H                    : 3.787291             10.735170            -9.479246
| 64>   H                    : 3.875799             12.195148            -10.205744
| 65>   C                      1.849405             10.403174            -6.975823
| 66>   O                      2.478847             9.152996             -7.261366
| 67>   H                      1.801508             8.464641             -7.105804
| 68>   H                      1.309623             10.282888            -6.056580
| 69>   H                      2.652118             11.175749            -6.874183
| 70>   H                      1.064721             10.693394            -7.711019
| 71> *
| 72>
| 73>                          ****END OF INPUT****
 Total Charge           Charge          ....    0
 Multiplicity           Mult            ....    1
 Number of Electrons    NEL             ....   36
Dispersion correction           -0.001517001
FINAL SINGLE POINT ENERGY      -231.463836012902
Dispersion correction           -0.000276529
FINAL SINGLE POINT ENERGY      -115.728794548600

CARTESIAN COORDINATES (ANGSTROEM)
---------------------------------
  C      3.729332   11.109176  -10.482602
  O      4.755832   10.660201  -11.309026
  H      4.517446    9.772490  -11.680235
  H      2.665925   11.084278  -10.849776
  H      3.787291   10.735170   -9.479246
  H      3.875799   12.195148  -10.205744
  C      1.849405   10.403174   -6.975823
  O      2.478847    9.152996   -7.261366
  H      1.801508    8.464641   -7.105804
  H      1.309623   10.282888   -6.056580
  H      2.652118   11.175749   -6.874183
  H      1.064721   10.693394   -7.711019

 Multiplicity           Mult            ....    1
 Number of Electrons    NEL             ....   18
 Basis Dimension        Dim             ....  172

ORBITAL ENERGIES
----------------

  NO   OCC          E(Eh)            E(eV)
   0   2.0000     -19.231259      -523.3092
   1   2.0000     -10.316759      -280.7333
   2   2.0000      -1.129608       -30.7382
   3   2.0000      -0.790843       -21.5199
   4   2.0000      -0.609547       -16.5866
   5   2.0000      -0.535251       -14.5649
   6   2.0000      -0.523306       -14.2399
   7   2.0000      -0.438923       -11.9437
   8   2.0000      -0.371388       -10.1060
   9   0.0000       0.091136         2.4799
  10   0.0000       0.117114         3.1868
  11   0.0000       0.148274         4.0348
  12   0.0000       0.175993         4.7890
  13   0.0000       0.184446         5.0190

MULLIKEN ATOMIC CHARGES
-----------------------
   0 C :   -0.001583
   1 O :    0.000118
   2 H :    0.000030
   3 H :   -0.000301
   4 H :    0.001143
   5 H :   -0.000045
   6 C :   -0.176359
   7 O :   -0.474119
   8 H :    0.311703
   9 H :    0.113814
  10 H :    0.123101
  11 H :    0.102497
Sum of atomic charges:    0.0000000

LOEWDIN ATOMIC CHARGES
----------------------
   0 C :   -0.001816
   1 O :   -0.000013
   2 H :   -0.000003
   3 H :   -0.000131
   4 H :   -0.002596
   5 H :   -0.000063
   6 C :   -0.380483
   7 O :   -0.095990
   8 H :    0.177658
   9 H :    0.091425
  10 H :    0.114917
  11 H :    0.097094

  Mayer bond orders larger than 0.1
B(  6-C ,  7-O ) :   0.9866 B(  6-C ,  9-H ) :   0.9823 B(  6-C , 10-H ) :   0.9740
B(  6-C , 11-H ) :   0.9670 B(  7-O ,  8-H ) :   0.8993

Dispersion correction           -0.000236388
FINAL SINGLE POINT ENERGY      -115.733855160092

DIPOLE MOMENT
-------------
                                X             Y             Z
Electronic contribution:      0.96275      -1.45616      -0.41662
Nuclear contribution   :     -1.64169       1.51690       0.66055
                        -----------------------------------------
Total Dipole Moment    :     -0.67894       0.06074       0.24393
                        -----------------------------------------
Magnitude (a.u.)       :      0.72398
Magnitude (Debye)      :      1.84022

Rotational constants in cm-1:     4.151269     0.826951     0.786800
Rotational constants in MHz : 124451.924761 24791.375381 23587.664402

                             ****ORCA TERMINATED NORMALLY****
TOTAL RUN TIME: 0 days 0 hours 0 minutes 54 seconds 242 msec
