                         Program Version 4.1.2  - RELEASE  -
|  1> #Run DFT-D3 single point of the dimer
|  2> ! wB97X-D3 def2-TZVP TIGHTSCF CHELPG PMODEL PAL8
|  3>
|  4> %base "14-77_DFT_AB"
|  5>
|  6> %scf
|  7> MaxIter 1000
|  8> end
|  9>
| 10> * xyz 0 1
| 11>   C                      -7.703937            4.864431             7.544231
| 12>   O                      -8.044865            6.226566             7.754114
| 13>   H                      -8.552644            6.657544             7.051836
| 14>   H                      -8.567473            4.275343             7.272627
| 15>   H                      -6.941389            4.675493             6.753926
| 16>   H                      -7.290078            4.411499             8.488377
| 17>   C                      -7.231096            0.734802             6.355933
| 18>   O                      -7.747945            -0.137764            5.435867
| 19>   H                      -7.369196            -1.030215            5.518210
| 20>   H                      -6.828257            0.153118             7.179129
| 21>   H                      -6.361936            1.306457             6.030149
| 22>   H                      -7.932546            1.299147             6.803414
| 23> *
| 24>
| 25> #Run DFT-D3 single point of the molecule with dimer basis set
| 26> $new_job
| 27> %base "14-77_DFT_A"
| 28> ! wB97X-D3 def2-TZVP TIGHTSCF CHELPG PMODEL
| 29>
| 30> %scf
| 31> MaxIter 1000
| 32> end
| 33>
| 34> * xyz 0 1
| 35>   C                      -7.703937            4.864431             7.544231
| 36>   O                      -8.044865            6.226566             7.754114
| 37>   H                      -8.552644            6.657544             7.051836
| 38>   H                      -8.567473            4.275343             7.272627
| 39>   H                      -6.941389            4.675493             6.753926
| 40>   H                      -7.290078            4.411499             8.488377
| 41>   C                    : -7.231096            0.734802             6.355933
| 42>   O                    : -7.747945            -0.137764            5.435867
| 43>   H                    : -7.369196            -1.030215            5.518210
| 44>   H                    : -6.828257            0.153118             7.179129
| 45>   H                    : -6.361936            1.306457             6.030149
| 46>   H                    : -7.932546            1.299147             6.803414
| 47> *
| 48>
| 49> #Run DFT-D3 single point of the particle with dimer basis set
| 50> $new_job
| 51> %base "14-77_DFT_B"
| 52> ! wB97X-D3 def2-TZVP TIGHTSCF CHELPG PMODEL
| 53>
| 54> %scf
| 55> MaxIter 1000
| 56> end
| 57>
| 58> * xyz 0 1
| 59>   C                    : -7.703937            4.864431             7.544231
| 60>   O                    : -8.044865            6.226566             7.754114
| 61>   H                    : -8.552644            6.657544             7.051836
| 62>   H                    : -8.567473            4.275343             7.272627
| 63>   H                    : -6.941389            4.675493             6.753926
| 64>   H                    : -7.290078            4.411499             8.488377
| 65>   C                      -7.231096            0.734802             6.355933
| 66>   O                      -7.747945            -0.137764            5.435867
| 67>   H                      -7.369196            -1.030215            5.518210
| 68>   H                      -6.828257            0.153118             7.179129
| 69>   H                      -6.361936            1.306457             6.030149
| 70>   H                      -7.932546            1.299147             6.803414
| 71> *
| 72>
| 73>                          ****END OF INPUT****
 Total Charge           Charge          ....    0
 Multiplicity           Mult            ....    1
 Number of Electrons    NEL             ....   36
Dispersion correction           -0.001148848
FINAL SINGLE POINT ENERGY      -231.459432160508
Dispersion correction           -0.000279199
FINAL SINGLE POINT ENERGY      -115.733488944750

CARTESIAN COORDINATES (ANGSTROEM)
---------------------------------
  C     -7.703937    4.864431    7.544231
  O     -8.044865    6.226566    7.754114
  H     -8.552644    6.657544    7.051836
  H     -8.567473    4.275343    7.272627
  H     -6.941389    4.675493    6.753926
  H     -7.290078    4.411499    8.488377
  C     -7.231096    0.734802    6.355933
  O     -7.747945   -0.137764    5.435867
  H     -7.369196   -1.030215    5.518210
  H     -6.828257    0.153118    7.179129
  H     -6.361936    1.306457    6.030149
  H     -7.932546    1.299147    6.803414

 Multiplicity           Mult            ....    1
 Number of Electrons    NEL             ....   18
 Basis Dimension        Dim             ....  172

ORBITAL ENERGIES
----------------

  NO   OCC          E(Eh)            E(eV)
   0   2.0000     -19.227892      -523.2175
   1   2.0000     -10.297783      -280.2169
   2   2.0000      -1.144652       -31.1476
   3   2.0000      -0.803591       -21.8668
   4   2.0000      -0.622152       -16.9296
   5   2.0000      -0.556795       -15.1512
   6   2.0000      -0.533861       -14.5271
   7   2.0000      -0.419919       -11.4266
   8   2.0000      -0.372789       -10.1441
   9   0.0000       0.084131         2.2893
  10   0.0000       0.111964         3.0467
  11   0.0000       0.143555         3.9063
  12   0.0000       0.179786         4.8922
  13   0.0000       0.186565         5.0767

MULLIKEN ATOMIC CHARGES
-----------------------
   0 C :    0.000230
   1 O :    0.000004
   2 H :    0.000000
   3 H :   -0.000044
   4 H :   -0.000222
   5 H :   -0.000015
   6 C :   -0.152887
   7 O :   -0.480063
   8 H :    0.324922
   9 H :    0.092053
  10 H :    0.094599
  11 H :    0.121422
Sum of atomic charges:    0.0000000

LOEWDIN ATOMIC CHARGES
----------------------
   0 C :   -0.000903
   1 O :   -0.000006
   2 H :   -0.000001
   3 H :   -0.000591
   4 H :   -0.000307
   5 H :   -0.000064
   6 C :   -0.405573
   7 O :   -0.050521
   8 H :    0.181511
   9 H :    0.096994
  10 H :    0.095948
  11 H :    0.083512

  Mayer bond orders larger than 0.1
B(  6-C ,  7-O ) :   1.0137 B(  6-C ,  9-H ) :   0.9967 B(  6-C , 10-H ) :   0.9721
B(  6-C , 11-H ) :   0.9731 B(  7-O ,  8-H ) :   0.8912

Dispersion correction           -0.000224980
FINAL SINGLE POINT ENERGY      -115.725216953711

DIPOLE MOMENT
-------------
                                X             Y             Z
Electronic contribution:     -0.88239      -0.90635      -1.35908
Nuclear contribution   :      1.31909       0.63617       1.80503
                        -----------------------------------------
Total Dipole Moment    :      0.43670      -0.27018       0.44595
                        -----------------------------------------
Magnitude (a.u.)       :      0.68012
Magnitude (Debye)      :      1.72874

Rotational constants in cm-1:     4.620095     0.868972     0.844992
Rotational constants in MHz : 138506.961448 26051.115249 25332.221964

                             ****ORCA TERMINATED NORMALLY****
TOTAL RUN TIME: 0 days 0 hours 0 minutes 55 seconds 34 msec
