                         Program Version 4.1.2  - RELEASE  -
|  1> #Run DFT-D3 single point of the dimer
|  2> ! wB97X-D3 def2-TZVP TIGHTSCF CHELPG PMODEL PAL8
|  3>
|  4> %base "15-143_DFT_AB"
|  5>
|  6> %scf
|  7> MaxIter 1000
|  8> end
|  9>
| 10> * xyz 0 1
| 11>   C                      -4.484758            8.407967             3.688813
| 12>   O                      -4.479491            9.748562             3.262175
| 13>   H                      -3.579098            10.059647            3.079137
| 14>   H                      -4.119576            7.755454             2.874660
| 15>   H                      -3.874546            8.304731             4.547465
| 16>   H                      -5.538848            8.038277             3.916587
| 17>   C                      -7.981645            7.968449             2.554353
| 18>   O                      -7.352871            7.303893             1.477125
| 19>   H                      -6.428532            7.589346             1.516940
| 20>   H                      -8.074758            9.059572             2.456553
| 21>   H                      -8.998607            7.648953             2.752665
| 22>   H                      -7.425151            7.825328             3.456174
| 23> *
| 24>
| 25> #Run DFT-D3 single point of the molecule with dimer basis set
| 26> $new_job
| 27> %base "15-143_DFT_A"
| 28> ! wB97X-D3 def2-TZVP TIGHTSCF CHELPG PMODEL
| 29>
| 30> %scf
| 31> MaxIter 1000
| 32> end
| 33>
| 34> * xyz 0 1
| 35>   C                      -4.484758            8.407967             3.688813
| 36>   O                      -4.479491            9.748562             3.262175
| 37>   H                      -3.579098            10.059647            3.079137
| 38>   H                      -4.119576            7.755454             2.874660
| 39>   H                      -3.874546            8.304731             4.547465
| 40>   H                      -5.538848            8.038277             3.916587
| 41>   C                    : -7.981645            7.968449             2.554353
| 42>   O                    : -7.352871            7.303893             1.477125
| 43>   H                    : -6.428532            7.589346             1.516940
| 44>   H                    : -8.074758            9.059572             2.456553
| 45>   H                    : -8.998607            7.648953             2.752665
| 46>   H                    : -7.425151            7.825328             3.456174
| 47> *
| 48>
| 49> #Run DFT-D3 single point of the particle with dimer basis set
| 50> $new_job
| 51> %base "15-143_DFT_B"
| 52> ! wB97X-D3 def2-TZVP TIGHTSCF CHELPG PMODEL
| 53>
| 54> %scf
| 55> MaxIter 1000
| 56> end
| 57>
| 58> * xyz 0 1
| 59>   C                    : -4.484758            8.407967             3.688813
| 60>   O                    : -4.479491            9.748562             3.262175
| 61>   H                    : -3.579098            10.059647            3.079137
| 62>   H                    : -4.119576            7.755454             2.874660
| 63>   H                    : -3.874546            8.304731             4.547465
| 64>   H                    : -5.538848            8.038277             3.916587
| 65>   C                      -7.981645            7.968449             2.554353
| 66>   O                      -7.352871            7.303893             1.477125
| 67>   H                      -6.428532            7.589346             1.516940
| 68>   H                      -8.074758            9.059572             2.456553
| 69>   H                      -8.998607            7.648953             2.752665
| 70>   H                      -7.425151            7.825328             3.456174
| 71> *
| 72>
| 73>                          ****END OF INPUT****
 Total Charge           Charge          ....    0
 Multiplicity           Mult            ....    1
 Number of Electrons    NEL             ....   36
Dispersion correction           -0.001990925
FINAL SINGLE POINT ENERGY      -231.468557762512
Dispersion correction           -0.000238525
FINAL SINGLE POINT ENERGY      -115.733591164857

CARTESIAN COORDINATES (ANGSTROEM)
---------------------------------
  C     -4.484758    8.407967    3.688813
  O     -4.479491    9.748562    3.262175
  H     -3.579098   10.059647    3.079137
  H     -4.119576    7.755454    2.874660
  H     -3.874546    8.304731    4.547465
  H     -5.538848    8.038277    3.916587
  C     -7.981645    7.968449    2.554353
  O     -7.352871    7.303893    1.477125
  H     -6.428532    7.589346    1.516940
  H     -8.074758    9.059572    2.456553
  H     -8.998607    7.648953    2.752665
  H     -7.425151    7.825328    3.456174

 Multiplicity           Mult            ....    1
 Number of Electrons    NEL             ....   18
 Basis Dimension        Dim             ....  172

ORBITAL ENERGIES
----------------

  NO   OCC          E(Eh)            E(eV)
   0   2.0000     -19.234853      -523.4070
   1   2.0000     -10.310017      -280.5498
   2   2.0000      -1.138271       -30.9739
   3   2.0000      -0.798013       -21.7150
   4   2.0000      -0.612910       -16.6781
   5   2.0000      -0.540854       -14.7174
   6   2.0000      -0.529216       -14.4007
   7   2.0000      -0.438442       -11.9306
   8   2.0000      -0.374246       -10.1837
   9   0.0000       0.071257         1.9390
  10   0.0000       0.133687         3.6378
  11   0.0000       0.145548         3.9606
  12   0.0000       0.159651         4.3443
  13   0.0000       0.200151         5.4464

MULLIKEN ATOMIC CHARGES
-----------------------
   0 C :   -0.004403
   1 O :    0.000281
   2 H :    0.000012
   3 H :   -0.000113
   4 H :    0.000200
   5 H :    0.004125
   6 C :   -0.177339
   7 O :   -0.464913
   8 H :    0.316858
   9 H :    0.101545
  10 H :    0.121409
  11 H :    0.102339
Sum of atomic charges:    0.0000000

LOEWDIN ATOMIC CHARGES
----------------------
   0 C :   -0.006793
   1 O :   -0.000092
   2 H :   -0.000005
   3 H :   -0.000996
   4 H :   -0.000055
   5 H :   -0.011147
   6 C :   -0.384892
   7 O :   -0.072050
   8 H :    0.177451
   9 H :    0.095742
  10 H :    0.106627
  11 H :    0.096209

  Mayer bond orders larger than 0.1
B(  6-C ,  7-O ) :   1.0047 B(  6-C ,  9-H ) :   0.9778 B(  6-C , 10-H ) :   0.9731
B(  6-C , 11-H ) :   0.9821 B(  7-O ,  8-H ) :   0.9033

Dispersion correction           -0.000238874
FINAL SINGLE POINT ENERGY      -115.734014537830

DIPOLE MOMENT
-------------
                                X             Y             Z
Electronic contribution:      0.68102      -1.01570      -1.52317
Nuclear contribution   :     -0.35425       1.44473       1.98175
                        -----------------------------------------
Total Dipole Moment    :      0.32677       0.42904       0.45859
                        -----------------------------------------
Magnitude (a.u.)       :      0.70792
Magnitude (Debye)      :      1.79939

Rotational constants in cm-1:     4.457526     0.827555     0.794886
Rotational constants in MHz : 133633.273287 24809.480846 23830.082169

                             ****ORCA TERMINATED NORMALLY****
TOTAL RUN TIME: 0 days 0 hours 1 minutes 7 seconds 109 msec
