                         Program Version 4.1.2  - RELEASE  -
|  1> #Run DFT-D3 single point of the dimer
|  2> ! wB97X-D3 def2-TZVP TIGHTSCF CHELPG PMODEL PAL8
|  3>
|  4> %base "8-153_DFT_AB"
|  5>
|  6> %scf
|  7> MaxIter 1000
|  8> end
|  9>
| 10> * xyz 0 1
| 11>   C                      3.429850             6.986127             -2.815014
| 12>   O                      3.051718             7.490879             -4.094373
| 13>   H                      3.233975             6.849611             -4.819645
| 14>   H                      2.761065             6.224084             -2.616282
| 15>   H                      4.472148             6.688260             -2.703500
| 16>   H                      3.189052             7.789298             -2.132348
| 17>   C                      1.269871             9.879331             -0.599120
| 18>   O                      0.550984             10.401373            -1.687121
| 19>   H                      1.012664             10.160186            -2.532134
| 20>   H                      2.167690             10.427401            -0.377676
| 21>   H                      0.681937             9.939211             0.333634
| 22>   H                      1.542014             8.821029             -0.738487
| 23> *
| 24>
| 25> #Run DFT-D3 single point of the molecule with dimer basis set
| 26> $new_job
| 27> %base "8-153_DFT_A"
| 28> ! wB97X-D3 def2-TZVP TIGHTSCF CHELPG PMODEL
| 29>
| 30> %scf
| 31> MaxIter 1000
| 32> end
| 33>
| 34> * xyz 0 1
| 35>   C                      3.429850             6.986127             -2.815014
| 36>   O                      3.051718             7.490879             -4.094373
| 37>   H                      3.233975             6.849611             -4.819645
| 38>   H                      2.761065             6.224084             -2.616282
| 39>   H                      4.472148             6.688260             -2.703500
| 40>   H                      3.189052             7.789298             -2.132348
| 41>   C                    : 1.269871             9.879331             -0.599120
| 42>   O                    : 0.550984             10.401373            -1.687121
| 43>   H                    : 1.012664             10.160186            -2.532134
| 44>   H                    : 2.167690             10.427401            -0.377676
| 45>   H                    : 0.681937             9.939211             0.333634
| 46>   H                    : 1.542014             8.821029             -0.738487
| 47> *
| 48>
| 49> #Run DFT-D3 single point of the particle with dimer basis set
| 50> $new_job
| 51> %base "8-153_DFT_B"
| 52> ! wB97X-D3 def2-TZVP TIGHTSCF CHELPG PMODEL
| 53>
| 54> %scf
| 55> MaxIter 1000
| 56> end
| 57>
| 58> * xyz 0 1
| 59>   C                    : 3.429850             6.986127             -2.815014
| 60>   O                    : 3.051718             7.490879             -4.094373
| 61>   H                    : 3.233975             6.849611             -4.819645
| 62>   H                    : 2.761065             6.224084             -2.616282
| 63>   H                    : 4.472148             6.688260             -2.703500
| 64>   H                    : 3.189052             7.789298             -2.132348
| 65>   C                      1.269871             9.879331             -0.599120
| 66>   O                      0.550984             10.401373            -1.687121
| 67>   H                      1.012664             10.160186            -2.532134
| 68>   H                      2.167690             10.427401            -0.377676
| 69>   H                      0.681937             9.939211             0.333634
| 70>   H                      1.542014             8.821029             -0.738487
| 71> *
| 72>
| 73>                          ****END OF INPUT****
 Total Charge           Charge          ....    0
 Multiplicity           Mult            ....    1
 Number of Electrons    NEL             ....   36
Dispersion correction           -0.001415942
FINAL SINGLE POINT ENERGY      -231.468266220676
Dispersion correction           -0.000240913
FINAL SINGLE POINT ENERGY      -115.731294905540

CARTESIAN COORDINATES (ANGSTROEM)
---------------------------------
  C      3.429850    6.986127   -2.815014
  O      3.051718    7.490879   -4.094373
  H      3.233975    6.849611   -4.819645
  H      2.761065    6.224084   -2.616282
  H      4.472148    6.688260   -2.703500
  H      3.189052    7.789298   -2.132348
  C      1.269871    9.879331   -0.599120
  O      0.550984   10.401373   -1.687121
  H      1.012664   10.160186   -2.532134
  H      2.167690   10.427401   -0.377676
  H      0.681937    9.939211    0.333634
  H      1.542014    8.821029   -0.738487

 Multiplicity           Mult            ....    1
 Number of Electrons    NEL             ....   18
 Basis Dimension        Dim             ....  172

ORBITAL ENERGIES
----------------

  NO   OCC          E(Eh)            E(eV)
   0   2.0000     -19.233730      -523.3764
   1   2.0000     -10.311332      -280.5856
   2   2.0000      -1.132505       -30.8170
   3   2.0000      -0.793700       -21.5977
   4   2.0000      -0.609583       -16.5876
   5   2.0000      -0.542014       -14.7490
   6   2.0000      -0.527358       -14.3501
   7   2.0000      -0.429232       -11.6800
   8   2.0000      -0.373165       -10.1543
   9   0.0000       0.074649         2.0313
  10   0.0000       0.119663         3.2562
  11   0.0000       0.144037         3.9194
  12   0.0000       0.171834         4.6758
  13   0.0000       0.185790         5.0556

MULLIKEN ATOMIC CHARGES
-----------------------
   0 C :    0.000726
   1 O :   -0.000080
   2 H :   -0.000001
   3 H :   -0.000567
   4 H :    0.000078
   5 H :   -0.000139
   6 C :   -0.156746
   7 O :   -0.477744
   8 H :    0.319164
   9 H :    0.098477
  10 H :    0.118553
  11 H :    0.098279
Sum of atomic charges:    0.0000000

LOEWDIN ATOMIC CHARGES
----------------------
   0 C :   -0.001969
   1 O :   -0.000115
   2 H :   -0.000003
   3 H :   -0.000132
   4 H :   -0.000006
   5 H :   -0.004057
   6 C :   -0.395798
   7 O :   -0.084167
   8 H :    0.188913
   9 H :    0.089545
  10 H :    0.110766
  11 H :    0.097021

  Mayer bond orders larger than 0.1
B(  6-C ,  7-O ) :   1.0048 B(  6-C ,  9-H ) :   0.9752 B(  6-C , 10-H ) :   0.9728
B(  6-C , 11-H ) :   0.9780 B(  7-O ,  8-H ) :   0.8916

Dispersion correction           -0.000249384
FINAL SINGLE POINT ENERGY      -115.735080837832

DIPOLE MOMENT
-------------
                                X             Y             Z
Electronic contribution:     -1.03610       0.75815      -1.37528
Nuclear contribution   :      1.60795      -1.11325       1.27802
                        -----------------------------------------
Total Dipole Moment    :      0.57185      -0.35510      -0.09726
                        -----------------------------------------
Magnitude (a.u.)       :      0.68012
Magnitude (Debye)      :      1.72873

Rotational constants in cm-1:     4.336221     0.831731     0.799356
Rotational constants in MHz : 129996.649678 24934.662923 23964.080514

                             ****ORCA TERMINATED NORMALLY****
TOTAL RUN TIME: 0 days 0 hours 0 minutes 44 seconds 690 msec
