                         Program Version 4.1.2  - RELEASE  -
|  1> #Run DFT-D3 single point of the dimer
|  2> ! wB97X-D3 def2-TZVP TIGHTSCF CHELPG PMODEL PAL8
|  3>
|  4> %base "3-7_DFT_AB"
|  5>
|  6> %scf
|  7> MaxIter 1000
|  8> end
|  9>
| 10> * xyz 0 1
| 11>   C                      0.141561             6.247437             4.342902
| 12>   O                      -0.671210            6.055133             5.470995
| 13>   H                      -0.143852            5.652897             6.120910
| 14>   H                      0.997028             6.871239             4.544806
| 15>   H                      0.411989             5.326716             3.898990
| 16>   H                      -0.387381            6.739469             3.540981
| 17>   C                      4.116040             3.646797             5.150770
| 18>   O                      5.314399             3.405780             4.517782
| 19>   H                      5.522391             4.067591             3.865315
| 20>   H                      4.059715             4.503963             5.810762
| 21>   H                      3.306977             3.937152             4.436309
| 22>   H                      3.812589             2.736741             5.676938
| 23> *
| 24>
| 25> #Run DFT-D3 single point of the molecule with dimer basis set
| 26> $new_job
| 27> %base "3-7_DFT_A"
| 28> ! wB97X-D3 def2-TZVP TIGHTSCF CHELPG PMODEL
| 29>
| 30> %scf
| 31> MaxIter 1000
| 32> end
| 33>
| 34> * xyz 0 1
| 35>   C                      0.141561             6.247437             4.342902
| 36>   O                      -0.671210            6.055133             5.470995
| 37>   H                      -0.143852            5.652897             6.120910
| 38>   H                      0.997028             6.871239             4.544806
| 39>   H                      0.411989             5.326716             3.898990
| 40>   H                      -0.387381            6.739469             3.540981
| 41>   C                    : 4.116040             3.646797             5.150770
| 42>   O                    : 5.314399             3.405780             4.517782
| 43>   H                    : 5.522391             4.067591             3.865315
| 44>   H                    : 4.059715             4.503963             5.810762
| 45>   H                    : 3.306977             3.937152             4.436309
| 46>   H                    : 3.812589             2.736741             5.676938
| 47> *
| 48>
| 49> #Run DFT-D3 single point of the particle with dimer basis set
| 50> $new_job
| 51> %base "3-7_DFT_B"
| 52> ! wB97X-D3 def2-TZVP TIGHTSCF CHELPG PMODEL
| 53>
| 54> %scf
| 55> MaxIter 1000
| 56> end
| 57>
| 58> * xyz 0 1
| 59>   C                    : 0.141561             6.247437             4.342902
| 60>   O                    : -0.671210            6.055133             5.470995
| 61>   H                    : -0.143852            5.652897             6.120910
| 62>   H                    : 0.997028             6.871239             4.544806
| 63>   H                    : 0.411989             5.326716             3.898990
| 64>   H                    : -0.387381            6.739469             3.540981
| 65>   C                      4.116040             3.646797             5.150770
| 66>   O                      5.314399             3.405780             4.517782
| 67>   H                      5.522391             4.067591             3.865315
| 68>   H                      4.059715             4.503963             5.810762
| 69>   H                      3.306977             3.937152             4.436309
| 70>   H                      3.812589             2.736741             5.676938
| 71> *
| 72>
| 73>                          ****END OF INPUT****
 Total Charge           Charge          ....    0
 Multiplicity           Mult            ....    1
 Number of Electrons    NEL             ....   36
Dispersion correction           -0.000922178
FINAL SINGLE POINT ENERGY      -231.467098517907
Dispersion correction           -0.000225441
FINAL SINGLE POINT ENERGY      -115.733617113427

CARTESIAN COORDINATES (ANGSTROEM)
---------------------------------
  C      0.141561    6.247437    4.342902
  O     -0.671210    6.055133    5.470995
  H     -0.143852    5.652897    6.120910
  H      0.997028    6.871239    4.544806
  H      0.411989    5.326716    3.898990
  H     -0.387381    6.739469    3.540981
  C      4.116040    3.646797    5.150770
  O      5.314399    3.405780    4.517782
  H      5.522391    4.067591    3.865315
  H      4.059715    4.503963    5.810762
  H      3.306977    3.937152    4.436309
  H      3.812589    2.736741    5.676938

 Multiplicity           Mult            ....    1
 Number of Electrons    NEL             ....   18
 Basis Dimension        Dim             ....  172

ORBITAL ENERGIES
----------------

  NO   OCC          E(Eh)            E(eV)
   0   2.0000     -19.230662      -523.2929
   1   2.0000     -10.311740      -280.5967
   2   2.0000      -1.148106       -31.2415
   3   2.0000      -0.797674       -21.7058
   4   2.0000      -0.627571       -17.0771
   5   2.0000      -0.535707       -14.5773
   6   2.0000      -0.531743       -14.4695
   7   2.0000      -0.432540       -11.7700
   8   2.0000      -0.369104       -10.0438
   9   0.0000       0.079165         2.1542
  10   0.0000       0.117676         3.2021
  11   0.0000       0.152192         4.1413
  12   0.0000       0.161946         4.4068
  13   0.0000       0.183229         4.9859

MULLIKEN ATOMIC CHARGES
-----------------------
   0 C :    0.000267
   1 O :    0.000013
   2 H :   -0.000016
   3 H :   -0.000119
   4 H :   -0.000696
   5 H :   -0.000043
   6 C :   -0.149762
   7 O :   -0.470500
   8 H :    0.316192
   9 H :    0.094199
  10 H :    0.090295
  11 H :    0.120170
Sum of atomic charges:   -0.0000000

LOEWDIN ATOMIC CHARGES
----------------------
   0 C :   -0.000594
   1 O :   -0.000006
   2 H :   -0.000015
   3 H :   -0.000075
   4 H :   -0.000696
   5 H :   -0.000004
   6 C :   -0.417159
   7 O :   -0.042774
   8 H :    0.166213
   9 H :    0.088409
  10 H :    0.096267
  11 H :    0.110434

  Mayer bond orders larger than 0.1
B(  6-C ,  7-O ) :   1.0081 B(  6-C ,  9-H ) :   0.9671 B(  6-C , 10-H ) :   0.9834
B(  6-C , 11-H ) :   0.9734 B(  7-O ,  8-H ) :   0.8961

Dispersion correction           -0.000245258
FINAL SINGLE POINT ENERGY      -115.733241526303

DIPOLE MOMENT
-------------
                                X             Y             Z
Electronic contribution:      1.72718      -0.46549      -0.70974
Nuclear contribution   :     -2.04190       0.98937       0.51439
                        -----------------------------------------
Total Dipole Moment    :     -0.31473       0.52389      -0.19535
                        -----------------------------------------
Magnitude (a.u.)       :      0.64162
Magnitude (Debye)      :      1.63086

Rotational constants in cm-1:     4.428438     0.860872     0.819211
Rotational constants in MHz : 132761.228129 25808.282488 24559.325845

                             ****ORCA TERMINATED NORMALLY****
TOTAL RUN TIME: 0 days 0 hours 6 minutes 21 seconds 21 msec
