                         Program Version 4.1.2  - RELEASE  -
|  1> #Run DFT-D3 single point of the dimer
|  2> ! wB97X-D3 def2-TZVP TIGHTSCF CHELPG PMODEL PAL8
|  3>
|  4> %base "14-135_DFT_AB"
|  5>
|  6> %scf
|  7> MaxIter 1000
|  8> end
|  9>
| 10> * xyz 0 1
| 11>   C                      6.240257             -3.486396            0.328244
| 12>   O                      7.407682             -3.671008            -0.383972
| 13>   H                      7.952128             -4.335552            -0.003175
| 14>   H                      6.224370             -4.059562            1.284200
| 15>   H                      6.097100             -2.413471            0.559097
| 16>   H                      5.374843             -3.919506            -0.240133
| 17>   C                      7.484563             -7.813298            -0.080176
| 18>   O                      7.970204             -7.814618            -1.412592
| 19>   H                      7.379166             -7.968400            -2.111946
| 20>   H                      8.308965             -7.504813            0.583477
| 21>   H                      6.647479             -7.119770            0.045726
| 22>   H                      7.206635             -8.850339            0.205564
| 23> *
| 24>
| 25> #Run DFT-D3 single point of the molecule with dimer basis set
| 26> $new_job
| 27> %base "14-135_DFT_A"
| 28> ! wB97X-D3 def2-TZVP TIGHTSCF CHELPG PMODEL
| 29>
| 30> %scf
| 31> MaxIter 1000
| 32> end
| 33>
| 34> * xyz 0 1
| 35>   C                      6.240257             -3.486396            0.328244
| 36>   O                      7.407682             -3.671008            -0.383972
| 37>   H                      7.952128             -4.335552            -0.003175
| 38>   H                      6.224370             -4.059562            1.284200
| 39>   H                      6.097100             -2.413471            0.559097
| 40>   H                      5.374843             -3.919506            -0.240133
| 41>   C                    : 7.484563             -7.813298            -0.080176
| 42>   O                    : 7.970204             -7.814618            -1.412592
| 43>   H                    : 7.379166             -7.968400            -2.111946
| 44>   H                    : 8.308965             -7.504813            0.583477
| 45>   H                    : 6.647479             -7.119770            0.045726
| 46>   H                    : 7.206635             -8.850339            0.205564
| 47> *
| 48>
| 49> #Run DFT-D3 single point of the particle with dimer basis set
| 50> $new_job
| 51> %base "14-135_DFT_B"
| 52> ! wB97X-D3 def2-TZVP TIGHTSCF CHELPG PMODEL
| 53>
| 54> %scf
| 55> MaxIter 1000
| 56> end
| 57>
| 58> * xyz 0 1
| 59>   C                    : 6.240257             -3.486396            0.328244
| 60>   O                    : 7.407682             -3.671008            -0.383972
| 61>   H                    : 7.952128             -4.335552            -0.003175
| 62>   H                    : 6.224370             -4.059562            1.284200
| 63>   H                    : 6.097100             -2.413471            0.559097
| 64>   H                    : 5.374843             -3.919506            -0.240133
| 65>   C                      7.484563             -7.813298            -0.080176
| 66>   O                      7.970204             -7.814618            -1.412592
| 67>   H                      7.379166             -7.968400            -2.111946
| 68>   H                      8.308965             -7.504813            0.583477
| 69>   H                      6.647479             -7.119770            0.045726
| 70>   H                      7.206635             -8.850339            0.205564
| 71> *
| 72>
| 73>                          ****END OF INPUT****
 Total Charge           Charge          ....    0
 Multiplicity           Mult            ....    1
 Number of Electrons    NEL             ....   36
Dispersion correction           -0.001420725
FINAL SINGLE POINT ENERGY      -231.467854505050
Dispersion correction           -0.000246373
FINAL SINGLE POINT ENERGY      -115.733648273654

CARTESIAN COORDINATES (ANGSTROEM)
---------------------------------
  C      6.240257   -3.486396    0.328244
  O      7.407682   -3.671008   -0.383972
  H      7.952128   -4.335552   -0.003175
  H      6.224370   -4.059562    1.284200
  H      6.097100   -2.413471    0.559097
  H      5.374843   -3.919506   -0.240133
  C      7.484563   -7.813298   -0.080176
  O      7.970204   -7.814618   -1.412592
  H      7.379166   -7.968400   -2.111946
  H      8.308965   -7.504813    0.583477
  H      6.647479   -7.119770    0.045726
  H      7.206635   -8.850339    0.205564

 Multiplicity           Mult            ....    1
 Number of Electrons    NEL             ....   18
 Basis Dimension        Dim             ....  172

ORBITAL ENERGIES
----------------

  NO   OCC          E(Eh)            E(eV)
   0   2.0000     -19.220015      -523.0032
   1   2.0000     -10.318241      -280.7736
   2   2.0000      -1.132278       -30.8109
   3   2.0000      -0.801400       -21.8072
   4   2.0000      -0.611850       -16.6493
   5   2.0000      -0.542047       -14.7499
   6   2.0000      -0.528645       -14.3852
   7   2.0000      -0.418852       -11.3975
   8   2.0000      -0.372183       -10.1276
   9   0.0000       0.083784         2.2799
  10   0.0000       0.124743         3.3944
  11   0.0000       0.153107         4.1662
  12   0.0000       0.167451         4.5566
  13   0.0000       0.189043         5.1441

MULLIKEN ATOMIC CHARGES
-----------------------
   0 C :    0.000909
   1 O :   -0.000092
   2 H :    0.000131
   3 H :   -0.000657
   4 H :    0.000005
   5 H :   -0.000267
   6 C :   -0.139358
   7 O :   -0.501473
   8 H :    0.313400
   9 H :    0.123328
  10 H :    0.102917
  11 H :    0.101157
Sum of atomic charges:    0.0000000

LOEWDIN ATOMIC CHARGES
----------------------
   0 C :   -0.000903
   1 O :   -0.000098
   2 H :   -0.000561
   3 H :   -0.000345
   4 H :   -0.000006
   5 H :   -0.000159
   6 C :   -0.373664
   7 O :   -0.071978
   8 H :    0.142442
   9 H :    0.112807
  10 H :    0.094706
  11 H :    0.097759

  Mayer bond orders larger than 0.1
B(  6-C ,  7-O ) :   0.9802 B(  6-C ,  9-H ) :   0.9710 B(  6-C , 10-H ) :   0.9754
B(  6-C , 11-H ) :   0.9786 B(  7-O ,  8-H ) :   0.8985

Dispersion correction           -0.000263020
FINAL SINGLE POINT ENERGY      -115.733244681661

DIPOLE MOMENT
-------------
                                X             Y             Z
Electronic contribution:      0.63097       0.05878      -1.60658
Nuclear contribution   :     -1.23098      -0.15338       1.70280
                        -----------------------------------------
Total Dipole Moment    :     -0.60001      -0.09460       0.09622
                        -----------------------------------------
Magnitude (a.u.)       :      0.61499
Magnitude (Debye)      :      1.56319

Rotational constants in cm-1:     4.381946     0.814896     0.795788
Rotational constants in MHz : 131367.422365 24429.981191 23857.129579

                             ****ORCA TERMINATED NORMALLY****
TOTAL RUN TIME: 0 days 0 hours 1 minutes 6 seconds 338 msec
