                         Program Version 4.1.2  - RELEASE  -
|  1> #Run DFT-D3 single point of the dimer
|  2> ! wB97X-D3 def2-TZVP TIGHTSCF CHELPG PMODEL PAL8
|  3>
|  4> %base "17-219_DFT_AB"
|  5>
|  6> %scf
|  7> MaxIter 1000
|  8> end
|  9>
| 10> * xyz 0 1
| 11>   C                      -5.938019            1.396045             -1.010357
| 12>   O                      -5.780449            2.649759             -0.478520
| 13>   H                      -5.146989            3.115646             -1.048343
| 14>   H                      -5.745337            1.479658             -2.080329
| 15>   H                      -5.070851            0.715713             -0.818665
| 16>   H                      -6.876233            0.889256             -0.793456
| 17>   C                      -8.534168            3.696952             1.856179
| 18>   O                      -7.577338            2.626221             1.875263
| 19>   H                      -6.930689            2.746772             1.202161
| 20>   H                      -9.595451            3.480452             2.208527
| 21>   H                      -8.258490            4.538307             2.495209
| 22>   H                      -8.667133            4.095393             0.883659
| 23> *
| 24>
| 25> #Run DFT-D3 single point of the molecule with dimer basis set
| 26> $new_job
| 27> %base "17-219_DFT_A"
| 28> ! wB97X-D3 def2-TZVP TIGHTSCF CHELPG PMODEL
| 29>
| 30> %scf
| 31> MaxIter 1000
| 32> end
| 33>
| 34> * xyz 0 1
| 35>   C                      -5.938019            1.396045             -1.010357
| 36>   O                      -5.780449            2.649759             -0.478520
| 37>   H                      -5.146989            3.115646             -1.048343
| 38>   H                      -5.745337            1.479658             -2.080329
| 39>   H                      -5.070851            0.715713             -0.818665
| 40>   H                      -6.876233            0.889256             -0.793456
| 41>   C                    : -8.534168            3.696952             1.856179
| 42>   O                    : -7.577338            2.626221             1.875263
| 43>   H                    : -6.930689            2.746772             1.202161
| 44>   H                    : -9.595451            3.480452             2.208527
| 45>   H                    : -8.258490            4.538307             2.495209
| 46>   H                    : -8.667133            4.095393             0.883659
| 47> *
| 48>
| 49> #Run DFT-D3 single point of the particle with dimer basis set
| 50> $new_job
| 51> %base "17-219_DFT_B"
| 52> ! wB97X-D3 def2-TZVP TIGHTSCF CHELPG PMODEL
| 53>
| 54> %scf
| 55> MaxIter 1000
| 56> end
| 57>
| 58> * xyz 0 1
| 59>   C                    : -5.938019            1.396045             -1.010357
| 60>   O                    : -5.780449            2.649759             -0.478520
| 61>   H                    : -5.146989            3.115646             -1.048343
| 62>   H                    : -5.745337            1.479658             -2.080329
| 63>   H                    : -5.070851            0.715713             -0.818665
| 64>   H                    : -6.876233            0.889256             -0.793456
| 65>   C                      -8.534168            3.696952             1.856179
| 66>   O                      -7.577338            2.626221             1.875263
| 67>   H                      -6.930689            2.746772             1.202161
| 68>   H                      -9.595451            3.480452             2.208527
| 69>   H                      -8.258490            4.538307             2.495209
| 70>   H                      -8.667133            4.095393             0.883659
| 71> *
| 72>
| 73>                          ****END OF INPUT****
 Total Charge           Charge          ....    0
 Multiplicity           Mult            ....    1
 Number of Electrons    NEL             ....   36
Dispersion correction           -0.001661165
FINAL SINGLE POINT ENERGY      -231.464494455593
Dispersion correction           -0.000218295
FINAL SINGLE POINT ENERGY      -115.726897025300

CARTESIAN COORDINATES (ANGSTROEM)
---------------------------------
  C     -5.938019    1.396045   -1.010357
  O     -5.780449    2.649759   -0.478520
  H     -5.146989    3.115646   -1.048343
  H     -5.745337    1.479658   -2.080329
  H     -5.070851    0.715713   -0.818665
  H     -6.876233    0.889256   -0.793456
  C     -8.534168    3.696952    1.856179
  O     -7.577338    2.626221    1.875263
  H     -6.930689    2.746772    1.202161
  H     -9.595451    3.480452    2.208527
  H     -8.258490    4.538307    2.495209
  H     -8.667133    4.095393    0.883659

 Multiplicity           Mult            ....    1
 Number of Electrons    NEL             ....   18
 Basis Dimension        Dim             ....  172

ORBITAL ENERGIES
----------------

  NO   OCC          E(Eh)            E(eV)
   0   2.0000     -19.232619      -523.3462
   1   2.0000     -10.317127      -280.7433
   2   2.0000      -1.133952       -30.8564
   3   2.0000      -0.801812       -21.8184
   4   2.0000      -0.615820       -16.7573
   5   2.0000      -0.537620       -14.6294
   6   2.0000      -0.524415       -14.2701
   7   2.0000      -0.431525       -11.7424
   8   2.0000      -0.376812       -10.2536
   9   0.0000       0.073801         2.0082
  10   0.0000       0.132449         3.6041
  11   0.0000       0.147672         4.0184
  12   0.0000       0.164868         4.4863
  13   0.0000       0.194377         5.2893

MULLIKEN ATOMIC CHARGES
-----------------------
   0 C :   -0.001801
   1 O :   -0.002339
   2 H :   -0.000090
   3 H :   -0.000074
   4 H :   -0.000117
   5 H :   -0.003657
   6 C :   -0.176840
   7 O :   -0.466885
   8 H :    0.314680
   9 H :    0.116363
  10 H :    0.109633
  11 H :    0.111126
Sum of atomic charges:    0.0000000

LOEWDIN ATOMIC CHARGES
----------------------
   0 C :   -0.006291
   1 O :   -0.014500
   2 H :   -0.000558
   3 H :   -0.000085
   4 H :   -0.000091
   5 H :   -0.002216
   6 C :   -0.372998
   7 O :   -0.067378
   8 H :    0.162962
   9 H :    0.115794
  10 H :    0.095938
  11 H :    0.089422

  Mayer bond orders larger than 0.1
B(  6-C ,  7-O ) :   0.9956 B(  6-C ,  9-H ) :   0.9712 B(  6-C , 10-H ) :   0.9780
B(  6-C , 11-H ) :   0.9786 B(  7-O ,  8-H ) :   0.9049

Dispersion correction           -0.000274917
FINAL SINGLE POINT ENERGY      -115.729650843027

DIPOLE MOMENT
-------------
                                X             Y             Z
Electronic contribution:      1.23673      -1.51716       0.09303
Nuclear contribution   :     -1.22441       2.05831      -0.55623
                        -----------------------------------------
Total Dipole Moment    :      0.01232       0.54115      -0.46320
                        -----------------------------------------
Magnitude (a.u.)       :      0.71243
Magnitude (Debye)      :      1.81085

Rotational constants in cm-1:     4.572553     0.791222     0.766165
Rotational constants in MHz : 137081.694470 23720.252570 22969.040607

                             ****ORCA TERMINATED NORMALLY****
TOTAL RUN TIME: 0 days 0 hours 1 minutes 6 seconds 758 msec
