                         Program Version 4.1.2  - RELEASE  -
|  1> #Run DFT-D3 single point of the dimer
|  2> ! wB97X-D3 def2-TZVP TIGHTSCF CHELPG PMODEL PAL8
|  3>
|  4> %base "15-113_DFT_AB"
|  5>
|  6> %scf
|  7> MaxIter 1000
|  8> end
|  9>
| 10> * xyz 0 1
| 11>   C                      -8.741298            2.011350             -3.240860
| 12>   O                      -9.621524            0.943779             -3.563059
| 13>   H                      -9.309505            0.156833             -3.162644
| 14>   H                      -9.085731            2.993607             -3.654103
| 15>   H                      -8.600028            2.141304             -2.154189
| 16>   H                      -7.868140            1.741703             -3.848083
| 17>   C                      -9.214157            -0.697725            -0.310024
| 18>   O                      -8.796968            -0.094356            0.899646
| 19>   H                      -8.301824            0.652088             0.736307
| 20>   H                      -9.554524            -1.715221            -0.260434
| 21>   H                      -10.050928           -0.149997            -0.768847
| 22>   H                      -8.389909            -0.712610            -0.985198
| 23> *
| 24>
| 25> #Run DFT-D3 single point of the molecule with dimer basis set
| 26> $new_job
| 27> %base "15-113_DFT_A"
| 28> ! wB97X-D3 def2-TZVP TIGHTSCF CHELPG PMODEL
| 29>
| 30> %scf
| 31> MaxIter 1000
| 32> end
| 33>
| 34> * xyz 0 1
| 35>   C                      -8.741298            2.011350             -3.240860
| 36>   O                      -9.621524            0.943779             -3.563059
| 37>   H                      -9.309505            0.156833             -3.162644
| 38>   H                      -9.085731            2.993607             -3.654103
| 39>   H                      -8.600028            2.141304             -2.154189
| 40>   H                      -7.868140            1.741703             -3.848083
| 41>   C                    : -9.214157            -0.697725            -0.310024
| 42>   O                    : -8.796968            -0.094356            0.899646
| 43>   H                    : -8.301824            0.652088             0.736307
| 44>   H                    : -9.554524            -1.715221            -0.260434
| 45>   H                    : -10.050928           -0.149997            -0.768847
| 46>   H                    : -8.389909            -0.712610            -0.985198
| 47> *
| 48>
| 49> #Run DFT-D3 single point of the particle with dimer basis set
| 50> $new_job
| 51> %base "15-113_DFT_B"
| 52> ! wB97X-D3 def2-TZVP TIGHTSCF CHELPG PMODEL
| 53>
| 54> %scf
| 55> MaxIter 1000
| 56> end
| 57>
| 58> * xyz 0 1
| 59>   C                    : -8.741298            2.011350             -3.240860
| 60>   O                    : -9.621524            0.943779             -3.563059
| 61>   H                    : -9.309505            0.156833             -3.162644
| 62>   H                    : -9.085731            2.993607             -3.654103
| 63>   H                    : -8.600028            2.141304             -2.154189
| 64>   H                    : -7.868140            1.741703             -3.848083
| 65>   C                      -9.214157            -0.697725            -0.310024
| 66>   O                      -8.796968            -0.094356            0.899646
| 67>   H                      -8.301824            0.652088             0.736307
| 68>   H                      -9.554524            -1.715221            -0.260434
| 69>   H                      -10.050928           -0.149997            -0.768847
| 70>   H                      -8.389909            -0.712610            -0.985198
| 71> *
| 72>
| 73>                          ****END OF INPUT****
 Total Charge           Charge          ....    0
 Multiplicity           Mult            ....    1
 Number of Electrons    NEL             ....   36
Dispersion correction           -0.001869240
FINAL SINGLE POINT ENERGY      -231.461506034704
Dispersion correction           -0.000231632
FINAL SINGLE POINT ENERGY      -115.730191178303

CARTESIAN COORDINATES (ANGSTROEM)
---------------------------------
  C     -8.741298    2.011350   -3.240860
  O     -9.621524    0.943779   -3.563059
  H     -9.309505    0.156833   -3.162644
  H     -9.085731    2.993607   -3.654103
  H     -8.600028    2.141304   -2.154189
  H     -7.868140    1.741703   -3.848083
  C     -9.214157   -0.697725   -0.310024
  O     -8.796968   -0.094356    0.899646
  H     -8.301824    0.652088    0.736307
  H     -9.554524   -1.715221   -0.260434
  H    -10.050928   -0.149997   -0.768847
  H     -8.389909   -0.712610   -0.985198

 Multiplicity           Mult            ....    1
 Number of Electrons    NEL             ....   18
 Basis Dimension        Dim             ....  172

ORBITAL ENERGIES
----------------

  NO   OCC          E(Eh)            E(eV)
   0   2.0000     -19.224074      -523.1137
   1   2.0000     -10.309829      -280.5447
   2   2.0000      -1.144025       -31.1305
   3   2.0000      -0.806025       -21.9331
   4   2.0000      -0.617803       -16.8113
   5   2.0000      -0.544424       -14.8145
   6   2.0000      -0.535740       -14.5782
   7   2.0000      -0.428455       -11.6588
   8   2.0000      -0.374937       -10.2026
   9   0.0000       0.079503         2.1634
  10   0.0000       0.124515         3.3882
  11   0.0000       0.145702         3.9648
  12   0.0000       0.178102         4.8464
  13   0.0000       0.188136         5.1194

MULLIKEN ATOMIC CHARGES
-----------------------
   0 C :   -0.001125
   1 O :    0.000260
   2 H :   -0.002794
   3 H :    0.000074
   4 H :    0.000907
   5 H :    0.000010
   6 C :   -0.161404
   7 O :   -0.471069
   8 H :    0.307043
   9 H :    0.123886
  10 H :    0.098903
  11 H :    0.105308
Sum of atomic charges:   -0.0000000

LOEWDIN ATOMIC CHARGES
----------------------
   0 C :   -0.002137
   1 O :   -0.001260
   2 H :   -0.005923
   3 H :   -0.000009
   4 H :   -0.000838
   5 H :   -0.000037
   6 C :   -0.370292
   7 O :   -0.051247
   8 H :    0.135190
   9 H :    0.105175
  10 H :    0.098617
  11 H :    0.092762

  Mayer bond orders larger than 0.1
B(  6-C ,  7-O ) :   0.9956 B(  6-C ,  9-H ) :   0.9688 B(  6-C , 10-H ) :   0.9778
B(  6-C , 11-H ) :   0.9874 B(  7-O ,  8-H ) :   0.9106

Dispersion correction           -0.000238599
FINAL SINGLE POINT ENERGY      -115.730557480075

DIPOLE MOMENT
-------------
                                X             Y             Z
Electronic contribution:      0.48904       0.64010       1.67935
Nuclear contribution   :     -0.32008      -0.41698      -2.28890
                        -----------------------------------------
Total Dipole Moment    :      0.16896       0.22312      -0.60955
                        -----------------------------------------
Magnitude (a.u.)       :      0.67074
Magnitude (Debye)      :      1.70487

Rotational constants in cm-1:     4.616106     0.821840     0.802028
Rotational constants in MHz : 138387.367385 24638.135332 24044.190502

                             ****ORCA TERMINATED NORMALLY****
TOTAL RUN TIME: 0 days 0 hours 0 minutes 57 seconds 893 msec
