                         Program Version 4.1.2  - RELEASE  -
|  1> #Run DFT-D3 single point of the dimer
|  2> ! wB97X-D3 def2-TZVP TIGHTSCF CHELPG PMODEL PAL8
|  3>
|  4> %base "6-75_DFT_AB"
|  5>
|  6> %scf
|  7> MaxIter 1000
|  8> end
|  9>
| 10> * xyz 0 1
| 11>   C                      -3.007502            9.442801             -7.537317
| 12>   O                      -3.771246            10.636848            -7.389227
| 13>   H                      -4.466168            10.347383            -6.812460
| 14>   H                      -3.662800            8.684267             -8.136335
| 15>   H                      -2.027431            9.581203             -7.950742
| 16>   H                      -2.782450            9.003005             -6.589918
| 17>   C                      -2.980905            5.886244             -10.589498
| 18>   O                      -2.585819            6.944025             -9.766762
| 19>   H                      -1.628161            7.137964             -9.968033
| 20>   H                      -3.237836            6.302115             -11.595673
| 21>   H                      -2.367589            4.945273             -10.679516
| 22>   H                      -3.918407            5.481261             -10.188178
| 23> *
| 24>
| 25> #Run DFT-D3 single point of the molecule with dimer basis set
| 26> $new_job
| 27> %base "6-75_DFT_A"
| 28> ! wB97X-D3 def2-TZVP TIGHTSCF CHELPG PMODEL
| 29>
| 30> %scf
| 31> MaxIter 1000
| 32> end
| 33>
| 34> * xyz 0 1
| 35>   C                      -3.007502            9.442801             -7.537317
| 36>   O                      -3.771246            10.636848            -7.389227
| 37>   H                      -4.466168            10.347383            -6.812460
| 38>   H                      -3.662800            8.684267             -8.136335
| 39>   H                      -2.027431            9.581203             -7.950742
| 40>   H                      -2.782450            9.003005             -6.589918
| 41>   C                    : -2.980905            5.886244             -10.589498
| 42>   O                    : -2.585819            6.944025             -9.766762
| 43>   H                    : -1.628161            7.137964             -9.968033
| 44>   H                    : -3.237836            6.302115             -11.595673
| 45>   H                    : -2.367589            4.945273             -10.679516
| 46>   H                    : -3.918407            5.481261             -10.188178
| 47> *
| 48>
| 49> #Run DFT-D3 single point of the particle with dimer basis set
| 50> $new_job
| 51> %base "6-75_DFT_B"
| 52> ! wB97X-D3 def2-TZVP TIGHTSCF CHELPG PMODEL
| 53>
| 54> %scf
| 55> MaxIter 1000
| 56> end
| 57>
| 58> * xyz 0 1
| 59>   C                    : -3.007502            9.442801             -7.537317
| 60>   O                    : -3.771246            10.636848            -7.389227
| 61>   H                    : -4.466168            10.347383            -6.812460
| 62>   H                    : -3.662800            8.684267             -8.136335
| 63>   H                    : -2.027431            9.581203             -7.950742
| 64>   H                    : -2.782450            9.003005             -6.589918
| 65>   C                      -2.980905            5.886244             -10.589498
| 66>   O                      -2.585819            6.944025             -9.766762
| 67>   H                      -1.628161            7.137964             -9.968033
| 68>   H                      -3.237836            6.302115             -11.595673
| 69>   H                      -2.367589            4.945273             -10.679516
| 70>   H                      -3.918407            5.481261             -10.188178
| 71> *
| 72>
| 73>                          ****END OF INPUT****
 Total Charge           Charge          ....    0
 Multiplicity           Mult            ....    1
 Number of Electrons    NEL             ....   36
Dispersion correction           -0.001409393
FINAL SINGLE POINT ENERGY      -231.460896601677
Dispersion correction           -0.000226279
FINAL SINGLE POINT ENERGY      -115.729086824544

CARTESIAN COORDINATES (ANGSTROEM)
---------------------------------
  C     -3.007502    9.442801   -7.537317
  O     -3.771246   10.636848   -7.389227
  H     -4.466168   10.347383   -6.812460
  H     -3.662800    8.684267   -8.136335
  H     -2.027431    9.581203   -7.950742
  H     -2.782450    9.003005   -6.589918
  C     -2.980905    5.886244  -10.589498
  O     -2.585819    6.944025   -9.766762
  H     -1.628161    7.137964   -9.968033
  H     -3.237836    6.302115  -11.595673
  H     -2.367589    4.945273  -10.679516
  H     -3.918407    5.481261  -10.188178

 Multiplicity           Mult            ....    1
 Number of Electrons    NEL             ....   18
 Basis Dimension        Dim             ....  172

ORBITAL ENERGIES
----------------

  NO   OCC          E(Eh)            E(eV)
   0   2.0000     -19.238347      -523.5020
   1   2.0000     -10.317249      -280.7466
   2   2.0000      -1.137666       -30.9575
   3   2.0000      -0.789085       -21.4721
   4   2.0000      -0.608655       -16.5624
   5   2.0000      -0.544074       -14.8050
   6   2.0000      -0.522381       -14.2147
   7   2.0000      -0.428756       -11.6670
   8   2.0000      -0.374185       -10.1821
   9   0.0000       0.095063         2.5868
  10   0.0000       0.119805         3.2600
  11   0.0000       0.146925         3.9980
  12   0.0000       0.184644         5.0244
  13   0.0000       0.190230         5.1764

MULLIKEN ATOMIC CHARGES
-----------------------
   0 C :    0.002639
   1 O :   -0.000023
   2 H :   -0.000019
   3 H :   -0.006896
   4 H :   -0.001619
   5 H :   -0.000769
   6 C :   -0.163817
   7 O :   -0.457527
   8 H :    0.317460
   9 H :    0.096139
  10 H :    0.102475
  11 H :    0.111959
Sum of atomic charges:   -0.0000000

LOEWDIN ATOMIC CHARGES
----------------------
   0 C :   -0.008099
   1 O :   -0.000047
   2 H :   -0.000006
   3 H :   -0.008812
   4 H :   -0.000832
   5 H :   -0.000185
   6 C :   -0.418369
   7 O :   -0.063403
   8 H :    0.193427
   9 H :    0.098330
  10 H :    0.100376
  11 H :    0.107619

  Mayer bond orders larger than 0.1
B(  6-C ,  7-O ) :   1.0088 B(  6-C ,  9-H ) :   0.9800 B(  6-C , 10-H ) :   0.9603
B(  6-C , 11-H ) :   0.9766 B(  7-O ,  8-H ) :   0.8906

Dispersion correction           -0.000267359
FINAL SINGLE POINT ENERGY      -115.730999223547

DIPOLE MOMENT
-------------
                                X             Y             Z
Electronic contribution:      0.53726       1.41693       1.18154
Nuclear contribution   :     -0.10491      -1.71058      -1.59570
                        -----------------------------------------
Total Dipole Moment    :      0.43235      -0.29365      -0.41416
                        -----------------------------------------
Magnitude (a.u.)       :      0.66685
Magnitude (Debye)      :      1.69499

Rotational constants in cm-1:     4.218604     0.829714     0.807669
Rotational constants in MHz : 126470.571553 24874.213794 24213.304276

                             ****ORCA TERMINATED NORMALLY****
TOTAL RUN TIME: 0 days 0 hours 1 minutes 5 seconds 963 msec
