                         Program Version 4.1.2  - RELEASE  -
|  1> #Run DFT-D3 single point of the dimer
|  2> ! wB97X-D3 def2-TZVP TIGHTSCF CHELPG PMODEL PAL8
|  3>
|  4> %base "6-30_DFT_AB"
|  5>
|  6> %scf
|  7> MaxIter 1000
|  8> end
|  9>
| 10> * xyz 0 1
| 11>   C                      -0.715228            1.050743             2.453242
| 12>   O                      -1.854007            0.340821             2.144338
| 13>   H                      -2.633239            0.803480             2.639829
| 14>   H                      -0.871798            2.130612             2.284487
| 15>   H                      -0.449429            0.971583             3.539397
| 16>   H                      0.102194             0.804007             1.757111
| 17>   C                      -3.886711            0.185960             4.722157
| 18>   O                      -3.799138            1.391505             4.009100
| 19>   H                      -4.706437            1.716515             3.966236
| 20>   H                      -2.884720            -0.265304            4.966770
| 21>   H                      -4.407139            0.355478             5.754225
| 22>   H                      -4.441326            -0.591749            4.140824
| 23> *
| 24>
| 25> #Run DFT-D3 single point of the molecule with dimer basis set
| 26> $new_job
| 27> %base "6-30_DFT_A"
| 28> ! wB97X-D3 def2-TZVP TIGHTSCF CHELPG PMODEL
| 29>
| 30> %scf
| 31> MaxIter 1000
| 32> end
| 33>
| 34> * xyz 0 1
| 35>   C                      -0.715228            1.050743             2.453242
| 36>   O                      -1.854007            0.340821             2.144338
| 37>   H                      -2.633239            0.803480             2.639829
| 38>   H                      -0.871798            2.130612             2.284487
| 39>   H                      -0.449429            0.971583             3.539397
| 40>   H                      0.102194             0.804007             1.757111
| 41>   C                    : -3.886711            0.185960             4.722157
| 42>   O                    : -3.799138            1.391505             4.009100
| 43>   H                    : -4.706437            1.716515             3.966236
| 44>   H                    : -2.884720            -0.265304            4.966770
| 45>   H                    : -4.407139            0.355478             5.754225
| 46>   H                    : -4.441326            -0.591749            4.140824
| 47> *
| 48>
| 49> #Run DFT-D3 single point of the particle with dimer basis set
| 50> $new_job
| 51> %base "6-30_DFT_B"
| 52> ! wB97X-D3 def2-TZVP TIGHTSCF CHELPG PMODEL
| 53>
| 54> %scf
| 55> MaxIter 1000
| 56> end
| 57>
| 58> * xyz 0 1
| 59>   C                    : -0.715228            1.050743             2.453242
| 60>   O                    : -1.854007            0.340821             2.144338
| 61>   H                    : -2.633239            0.803480             2.639829
| 62>   H                    : -0.871798            2.130612             2.284487
| 63>   H                    : -0.449429            0.971583             3.539397
| 64>   H                    : 0.102194             0.804007             1.757111
| 65>   C                      -3.886711            0.185960             4.722157
| 66>   O                      -3.799138            1.391505             4.009100
| 67>   H                      -4.706437            1.716515             3.966236
| 68>   H                      -2.884720            -0.265304            4.966770
| 69>   H                      -4.407139            0.355478             5.754225
| 70>   H                      -4.441326            -0.591749            4.140824
| 71> *
| 72>
| 73>                          ****END OF INPUT****
 Total Charge           Charge          ....    0
 Multiplicity           Mult            ....    1
 Number of Electrons    NEL             ....   36
Dispersion correction           -0.002015310
FINAL SINGLE POINT ENERGY      -231.472087129237
Dispersion correction           -0.000228270
FINAL SINGLE POINT ENERGY      -115.729769770811

CARTESIAN COORDINATES (ANGSTROEM)
---------------------------------
  C     -0.715228    1.050743    2.453242
  O     -1.854007    0.340821    2.144338
  H     -2.633239    0.803480    2.639829
  H     -0.871798    2.130612    2.284487
  H     -0.449429    0.971583    3.539397
  H      0.102194    0.804007    1.757111
  C     -3.886711    0.185960    4.722157
  O     -3.799138    1.391505    4.009100
  H     -4.706437    1.716515    3.966236
  H     -2.884720   -0.265304    4.966770
  H     -4.407139    0.355478    5.754225
  H     -4.441326   -0.591749    4.140824

 Multiplicity           Mult            ....    1
 Number of Electrons    NEL             ....   18
 Basis Dimension        Dim             ....  172

ORBITAL ENERGIES
----------------

  NO   OCC          E(Eh)            E(eV)
   0   2.0000     -19.235521      -523.4251
   1   2.0000     -10.326813      -281.0069
   2   2.0000      -1.143595       -31.1188
   3   2.0000      -0.784624       -21.3507
   4   2.0000      -0.608876       -16.5683
   5   2.0000      -0.539380       -14.6773
   6   2.0000      -0.529158       -14.3991
   7   2.0000      -0.430961       -11.7270
   8   2.0000      -0.373903       -10.1744
   9   0.0000       0.096971         2.6387
  10   0.0000       0.123539         3.3617
  11   0.0000       0.148600         4.0436
  12   0.0000       0.186113         5.0644
  13   0.0000       0.191484         5.2105

MULLIKEN ATOMIC CHARGES
-----------------------
   0 C :    0.002945
   1 O :   -0.001356
   2 H :   -0.005545
   3 H :   -0.001594
   4 H :   -0.000924
   5 H :   -0.000088
   6 C :   -0.178545
   7 O :   -0.460434
   8 H :    0.317332
   9 H :    0.120933
  10 H :    0.100704
  11 H :    0.106573
Sum of atomic charges:   -0.0000000

LOEWDIN ATOMIC CHARGES
----------------------
   0 C :   -0.003511
   1 O :   -0.003916
   2 H :   -0.044625
   3 H :   -0.000494
   4 H :   -0.000442
   5 H :   -0.000028
   6 C :   -0.407990
   7 O :   -0.032358
   8 H :    0.176176
   9 H :    0.113812
  10 H :    0.105930
  11 H :    0.097446

  Mayer bond orders larger than 0.1
B(  6-C ,  7-O ) :   0.9855 B(  6-C ,  9-H ) :   0.9727 B(  6-C , 10-H ) :   0.9698
B(  6-C , 11-H ) :   0.9750 B(  7-O ,  8-H ) :   0.8954

Dispersion correction           -0.000247644
FINAL SINGLE POINT ENERGY      -115.732558619552

DIPOLE MOMENT
-------------
                                X             Y             Z
Electronic contribution:      0.31537       1.61558      -1.04432
Nuclear contribution   :     -0.89521      -1.86385       1.28118
                        -----------------------------------------
Total Dipole Moment    :     -0.57984      -0.24828       0.23686
                        -----------------------------------------
Magnitude (a.u.)       :      0.67377
Magnitude (Debye)      :      1.71258

Rotational constants in cm-1:     4.042870     0.829673     0.803384
Rotational constants in MHz : 121202.193768 24872.969820 24084.854764

                             ****ORCA TERMINATED NORMALLY****
TOTAL RUN TIME: 0 days 0 hours 1 minutes 8 seconds 633 msec
