                         Program Version 4.1.2  - RELEASE  -
|  1> #Run DFT-D3 single point of the dimer
|  2> ! wB97X-D3 def2-TZVP TIGHTSCF CHELPG PMODEL PAL8
|  3>
|  4> %base "7-84_DFT_AB"
|  5>
|  6> %scf
|  7> MaxIter 1000
|  8> end
|  9>
| 10> * xyz 0 1
| 11>   C                      3.021370             9.219144             -8.876034
| 12>   O                      2.988232             10.333611            -8.053201
| 13>   H                      3.566255             11.030090            -8.396873
| 14>   H                      2.927108             8.298902             -8.306554
| 15>   H                      2.081663             9.364225             -9.548580
| 16>   H                      3.885532             9.146176             -9.495416
| 17>   C                      0.571452             5.757147             -9.310984
| 18>   O                      0.521628             4.402486             -9.201155
| 19>   H                      0.086074             4.339337             -8.344764
| 20>   H                      0.854972             6.019808             -10.346947
| 21>   H                      -0.502939            6.082742             -9.134544
| 22>   H                      1.119985             6.190823             -8.585950
| 23> *
| 24>
| 25> #Run DFT-D3 single point of the molecule with dimer basis set
| 26> $new_job
| 27> %base "7-84_DFT_A"
| 28> ! wB97X-D3 def2-TZVP TIGHTSCF CHELPG PMODEL
| 29>
| 30> %scf
| 31> MaxIter 1000
| 32> end
| 33>
| 34> * xyz 0 1
| 35>   C                      3.021370             9.219144             -8.876034
| 36>   O                      2.988232             10.333611            -8.053201
| 37>   H                      3.566255             11.030090            -8.396873
| 38>   H                      2.927108             8.298902             -8.306554
| 39>   H                      2.081663             9.364225             -9.548580
| 40>   H                      3.885532             9.146176             -9.495416
| 41>   C                    : 0.571452             5.757147             -9.310984
| 42>   O                    : 0.521628             4.402486             -9.201155
| 43>   H                    : 0.086074             4.339337             -8.344764
| 44>   H                    : 0.854972             6.019808             -10.346947
| 45>   H                    : -0.502939            6.082742             -9.134544
| 46>   H                    : 1.119985             6.190823             -8.585950
| 47> *
| 48>
| 49> #Run DFT-D3 single point of the particle with dimer basis set
| 50> $new_job
| 51> %base "7-84_DFT_B"
| 52> ! wB97X-D3 def2-TZVP TIGHTSCF CHELPG PMODEL
| 53>
| 54> %scf
| 55> MaxIter 1000
| 56> end
| 57>
| 58> * xyz 0 1
| 59>   C                    : 3.021370             9.219144             -8.876034
| 60>   O                    : 2.988232             10.333611            -8.053201
| 61>   H                    : 3.566255             11.030090            -8.396873
| 62>   H                    : 2.927108             8.298902             -8.306554
| 63>   H                    : 2.081663             9.364225             -9.548580
| 64>   H                    : 3.885532             9.146176             -9.495416
| 65>   C                      0.571452             5.757147             -9.310984
| 66>   O                      0.521628             4.402486             -9.201155
| 67>   H                      0.086074             4.339337             -8.344764
| 68>   H                      0.854972             6.019808             -10.346947
| 69>   H                      -0.502939            6.082742             -9.134544
| 70>   H                      1.119985             6.190823             -8.585950
| 71> *
| 72>
| 73>                          ****END OF INPUT****
 Total Charge           Charge          ....    0
 Multiplicity           Mult            ....    1
 Number of Electrons    NEL             ....   36
Dispersion correction           -0.001070308
FINAL SINGLE POINT ENERGY      -231.451748233154
Dispersion correction           -0.000235639
FINAL SINGLE POINT ENERGY      -115.730057141092

CARTESIAN COORDINATES (ANGSTROEM)
---------------------------------
  C      3.021370    9.219144   -8.876034
  O      2.988232   10.333611   -8.053201
  H      3.566255   11.030090   -8.396873
  H      2.927108    8.298902   -8.306554
  H      2.081663    9.364225   -9.548580
  H      3.885532    9.146176   -9.495416
  C      0.571452    5.757147   -9.310984
  O      0.521628    4.402486   -9.201155
  H      0.086074    4.339337   -8.344764
  H      0.854972    6.019808  -10.346947
  H     -0.502939    6.082742   -9.134544
  H      1.119985    6.190823   -8.585950

 Multiplicity           Mult            ....    1
 Number of Electrons    NEL             ....   18
 Basis Dimension        Dim             ....  172

ORBITAL ENERGIES
----------------

  NO   OCC          E(Eh)            E(eV)
   0   2.0000     -19.228557      -523.2356
   1   2.0000     -10.305131      -280.4169
   2   2.0000      -1.160585       -31.5811
   3   2.0000      -0.789242       -21.4764
   4   2.0000      -0.626259       -17.0414
   5   2.0000      -0.555978       -15.1289
   6   2.0000      -0.530435       -14.4339
   7   2.0000      -0.439054       -11.9473
   8   2.0000      -0.366943        -9.9850
   9   0.0000       0.084252         2.2926
  10   0.0000       0.110850         3.0164
  11   0.0000       0.148799         4.0490
  12   0.0000       0.180190         4.9032
  13   0.0000       0.187825         5.1110

MULLIKEN ATOMIC CHARGES
-----------------------
   0 C :   -0.000369
   1 O :   -0.000010
   2 H :   -0.000002
   3 H :   -0.000423
   4 H :    0.000110
   5 H :    0.000015
   6 C :   -0.166372
   7 O :   -0.447788
   8 H :    0.313235
   9 H :    0.111517
  10 H :    0.082212
  11 H :    0.107875
Sum of atomic charges:    0.0000000

LOEWDIN ATOMIC CHARGES
----------------------
   0 C :   -0.001207
   1 O :   -0.000009
   2 H :   -0.000002
   3 H :   -0.001717
   4 H :   -0.000148
   5 H :   -0.000013
   6 C :   -0.421784
   7 O :   -0.039111
   8 H :    0.180652
   9 H :    0.111835
  10 H :    0.099966
  11 H :    0.071539

  Mayer bond orders larger than 0.1
B(  6-C ,  7-O ) :   0.9938 B(  6-C ,  9-H ) :   0.9714 B(  6-C , 10-H ) :   1.0001
B(  6-C , 11-H ) :   0.9714 B(  7-O ,  8-H ) :   0.9034

Dispersion correction           -0.000171135
FINAL SINGLE POINT ENERGY      -115.720924114194

DIPOLE MOMENT
-------------
                                X             Y             Z
Electronic contribution:      0.27936      -1.76994       0.01859
Nuclear contribution   :     -0.50349       2.20382       0.47675
                        -----------------------------------------
Total Dipole Moment    :     -0.22412       0.43388       0.49534
                        -----------------------------------------
Magnitude (a.u.)       :      0.69559
Magnitude (Debye)      :      1.76805

Rotational constants in cm-1:     4.177254     0.919981     0.870153
Rotational constants in MHz : 125230.922228 27580.347841 26086.526466

                             ****ORCA TERMINATED NORMALLY****
TOTAL RUN TIME: 0 days 0 hours 0 minutes 57 seconds 146 msec
