                         Program Version 4.1.2  - RELEASE  -
|  1> #Run DFT-D3 single point of the dimer
|  2> ! wB97X-D3 def2-TZVP TIGHTSCF CHELPG PMODEL PAL8
|  3>
|  4> %base "16-83_DFT_AB"
|  5>
|  6> %scf
|  7> MaxIter 1000
|  8> end
|  9>
| 10> * xyz 0 1
| 11>   C                      1.485028             2.866668             11.191932
| 12>   O                      1.771618             3.996363             10.331948
| 13>   H                      2.698560             4.135901             10.339584
| 14>   H                      1.582231             2.996211             12.246738
| 15>   H                      0.440987             2.521089             11.096234
| 16>   H                      2.100099             1.998036             10.935745
| 17>   C                      -2.205781            0.892777             9.362688
| 18>   O                      -0.974230            0.410646             9.895547
| 19>   H                      -1.109702            -0.487850            10.269768
| 20>   H                      -2.145692            1.764870             8.648886
| 21>   H                      -2.821164            0.096539             8.933474
| 22>   H                      -2.902641            1.276408             10.109630
| 23> *
| 24>
| 25> #Run DFT-D3 single point of the molecule with dimer basis set
| 26> $new_job
| 27> %base "16-83_DFT_A"
| 28> ! wB97X-D3 def2-TZVP TIGHTSCF CHELPG PMODEL
| 29>
| 30> %scf
| 31> MaxIter 1000
| 32> end
| 33>
| 34> * xyz 0 1
| 35>   C                      1.485028             2.866668             11.191932
| 36>   O                      1.771618             3.996363             10.331948
| 37>   H                      2.698560             4.135901             10.339584
| 38>   H                      1.582231             2.996211             12.246738
| 39>   H                      0.440987             2.521089             11.096234
| 40>   H                      2.100099             1.998036             10.935745
| 41>   C                    : -2.205781            0.892777             9.362688
| 42>   O                    : -0.974230            0.410646             9.895547
| 43>   H                    : -1.109702            -0.487850            10.269768
| 44>   H                    : -2.145692            1.764870             8.648886
| 45>   H                    : -2.821164            0.096539             8.933474
| 46>   H                    : -2.902641            1.276408             10.109630
| 47> *
| 48>
| 49> #Run DFT-D3 single point of the particle with dimer basis set
| 50> $new_job
| 51> %base "16-83_DFT_B"
| 52> ! wB97X-D3 def2-TZVP TIGHTSCF CHELPG PMODEL
| 53>
| 54> %scf
| 55> MaxIter 1000
| 56> end
| 57>
| 58> * xyz 0 1
| 59>   C                    : 1.485028             2.866668             11.191932
| 60>   O                    : 1.771618             3.996363             10.331948
| 61>   H                    : 2.698560             4.135901             10.339584
| 62>   H                    : 1.582231             2.996211             12.246738
| 63>   H                    : 0.440987             2.521089             11.096234
| 64>   H                    : 2.100099             1.998036             10.935745
| 65>   C                      -2.205781            0.892777             9.362688
| 66>   O                      -0.974230            0.410646             9.895547
| 67>   H                      -1.109702            -0.487850            10.269768
| 68>   H                      -2.145692            1.764870             8.648886
| 69>   H                      -2.821164            0.096539             8.933474
| 70>   H                      -2.902641            1.276408             10.109630
| 71> *
| 72>
| 73>                          ****END OF INPUT****
 Total Charge           Charge          ....    0
 Multiplicity           Mult            ....    1
 Number of Electrons    NEL             ....   36
Dispersion correction           -0.001340292
FINAL SINGLE POINT ENERGY      -231.463413791951
Dispersion correction           -0.000271295
FINAL SINGLE POINT ENERGY      -115.732336002484

CARTESIAN COORDINATES (ANGSTROEM)
---------------------------------
  C      1.485028    2.866668   11.191932
  O      1.771618    3.996363   10.331948
  H      2.698560    4.135901   10.339584
  H      1.582231    2.996211   12.246738
  H      0.440987    2.521089   11.096234
  H      2.100099    1.998036   10.935745
  C     -2.205781    0.892777    9.362688
  O     -0.974230    0.410646    9.895547
  H     -1.109702   -0.487850   10.269768
  H     -2.145692    1.764870    8.648886
  H     -2.821164    0.096539    8.933474
  H     -2.902641    1.276408   10.109630

 Multiplicity           Mult            ....    1
 Number of Electrons    NEL             ....   18
 Basis Dimension        Dim             ....  172

ORBITAL ENERGIES
----------------

  NO   OCC          E(Eh)            E(eV)
   0   2.0000     -19.236874      -523.4620
   1   2.0000     -10.318149      -280.7711
   2   2.0000      -1.129850       -30.7448
   3   2.0000      -0.795739       -21.6532
   4   2.0000      -0.613319       -16.6893
   5   2.0000      -0.533594       -14.5198
   6   2.0000      -0.522190       -14.2095
   7   2.0000      -0.435985       -11.8638
   8   2.0000      -0.371553       -10.1105
   9   0.0000       0.096590         2.6284
  10   0.0000       0.115837         3.1521
  11   0.0000       0.143699         3.9102
  12   0.0000       0.179256         4.8778
  13   0.0000       0.194868         5.3026

MULLIKEN ATOMIC CHARGES
-----------------------
   0 C :    0.000366
   1 O :   -0.000025
   2 H :   -0.000004
   3 H :   -0.000125
   4 H :   -0.003896
   5 H :   -0.000808
   6 C :   -0.182919
   7 O :   -0.471854
   8 H :    0.320328
   9 H :    0.123983
  10 H :    0.109502
  11 H :    0.105453
Sum of atomic charges:    0.0000000

LOEWDIN ATOMIC CHARGES
----------------------
   0 C :   -0.003794
   1 O :   -0.000018
   2 H :   -0.000004
   3 H :   -0.000025
   4 H :   -0.006165
   5 H :   -0.000522
   6 C :   -0.392919
   7 O :   -0.085312
   8 H :    0.184274
   9 H :    0.115440
  10 H :    0.096275
  11 H :    0.092770

  Mayer bond orders larger than 0.1
B(  6-C ,  7-O ) :   0.9987 B(  6-C ,  9-H ) :   0.9725 B(  6-C , 10-H ) :   0.9765
B(  6-C , 11-H ) :   0.9713 B(  7-O ,  8-H ) :   0.8902

Dispersion correction           -0.000270947
FINAL SINGLE POINT ENERGY      -115.729718405298

DIPOLE MOMENT
-------------
                                X             Y             Z
Electronic contribution:      1.82203      -0.53572       0.60295
Nuclear contribution   :     -2.42646       0.14482      -0.57566
                        -----------------------------------------
Total Dipole Moment    :     -0.60443      -0.39090       0.02728
                        -----------------------------------------
Magnitude (a.u.)       :      0.72033
Magnitude (Debye)      :      1.83094

Rotational constants in cm-1:     4.412066     0.805946     0.765825
Rotational constants in MHz : 132270.426088 24161.643135 22958.868854

                             ****ORCA TERMINATED NORMALLY****
TOTAL RUN TIME: 0 days 0 hours 1 minutes 0 seconds 831 msec
