                         Program Version 4.1.2  - RELEASE  -
|  1> #Run DFT-D3 single point of the dimer
|  2> ! wB97X-D3 def2-TZVP TIGHTSCF CHELPG PMODEL PAL8
|  3>
|  4> %base "3-189_DFT_AB"
|  5>
|  6> %scf
|  7> MaxIter 1000
|  8> end
|  9>
| 10> * xyz 0 1
| 11>   C                      6.057053             -5.596897            -11.317847
| 12>   O                      7.020771             -6.495254            -10.889214
| 13>   H                      6.983095             -6.517294            -9.921539
| 14>   H                      6.226132             -4.551050            -11.184380
| 15>   H                      5.929378             -5.586242            -12.429916
| 16>   H                      5.089214             -5.836619            -10.945969
| 17>   C                      3.923328             -6.015317            -7.830760
| 18>   O                      4.716939             -7.094620            -7.366473
| 19>   H                      4.814119             -6.920206            -6.427046
| 20>   H                      4.304052             -5.098530            -7.480728
| 21>   H                      3.776047             -6.051977            -8.912283
| 22>   H                      2.902792             -6.095236            -7.415277
| 23> *
| 24>
| 25> #Run DFT-D3 single point of the molecule with dimer basis set
| 26> $new_job
| 27> %base "3-189_DFT_A"
| 28> ! wB97X-D3 def2-TZVP TIGHTSCF CHELPG PMODEL
| 29>
| 30> %scf
| 31> MaxIter 1000
| 32> end
| 33>
| 34> * xyz 0 1
| 35>   C                      6.057053             -5.596897            -11.317847
| 36>   O                      7.020771             -6.495254            -10.889214
| 37>   H                      6.983095             -6.517294            -9.921539
| 38>   H                      6.226132             -4.551050            -11.184380
| 39>   H                      5.929378             -5.586242            -12.429916
| 40>   H                      5.089214             -5.836619            -10.945969
| 41>   C                    : 3.923328             -6.015317            -7.830760
| 42>   O                    : 4.716939             -7.094620            -7.366473
| 43>   H                    : 4.814119             -6.920206            -6.427046
| 44>   H                    : 4.304052             -5.098530            -7.480728
| 45>   H                    : 3.776047             -6.051977            -8.912283
| 46>   H                    : 2.902792             -6.095236            -7.415277
| 47> *
| 48>
| 49> #Run DFT-D3 single point of the particle with dimer basis set
| 50> $new_job
| 51> %base "3-189_DFT_B"
| 52> ! wB97X-D3 def2-TZVP TIGHTSCF CHELPG PMODEL
| 53>
| 54> %scf
| 55> MaxIter 1000
| 56> end
| 57>
| 58> * xyz 0 1
| 59>   C                    : 6.057053             -5.596897            -11.317847
| 60>   O                    : 7.020771             -6.495254            -10.889214
| 61>   H                    : 6.983095             -6.517294            -9.921539
| 62>   H                    : 6.226132             -4.551050            -11.184380
| 63>   H                    : 5.929378             -5.586242            -12.429916
| 64>   H                    : 5.089214             -5.836619            -10.945969
| 65>   C                      3.923328             -6.015317            -7.830760
| 66>   O                      4.716939             -7.094620            -7.366473
| 67>   H                      4.814119             -6.920206            -6.427046
| 68>   H                      4.304052             -5.098530            -7.480728
| 69>   H                      3.776047             -6.051977            -8.912283
| 70>   H                      2.902792             -6.095236            -7.415277
| 71> *
| 72>
| 73>                          ****END OF INPUT****
 Total Charge           Charge          ....    0
 Multiplicity           Mult            ....    1
 Number of Electrons    NEL             ....   36
Dispersion correction           -0.001484550
FINAL SINGLE POINT ENERGY      -231.466946173286
Dispersion correction           -0.000243826
FINAL SINGLE POINT ENERGY      -115.731120886034

CARTESIAN COORDINATES (ANGSTROEM)
---------------------------------
  C      6.057053   -5.596897  -11.317847
  O      7.020771   -6.495254  -10.889214
  H      6.983095   -6.517294   -9.921539
  H      6.226132   -4.551050  -11.184380
  H      5.929378   -5.586242  -12.429916
  H      5.089214   -5.836619  -10.945969
  C      3.923328   -6.015317   -7.830760
  O      4.716939   -7.094620   -7.366473
  H      4.814119   -6.920206   -6.427046
  H      4.304052   -5.098530   -7.480728
  H      3.776047   -6.051977   -8.912283
  H      2.902792   -6.095236   -7.415277

 Multiplicity           Mult            ....    1
 Number of Electrons    NEL             ....   18
 Basis Dimension        Dim             ....  172

ORBITAL ENERGIES
----------------

  NO   OCC          E(Eh)            E(eV)
   0   2.0000     -19.230152      -523.2790
   1   2.0000     -10.310082      -280.5516
   2   2.0000      -1.137506       -30.9531
   3   2.0000      -0.796185       -21.6653
   4   2.0000      -0.612352       -16.6630
   5   2.0000      -0.543411       -14.7870
   6   2.0000      -0.526713       -14.3326
   7   2.0000      -0.441786       -12.0216
   8   2.0000      -0.371177       -10.1002
   9   0.0000       0.091164         2.4807
  10   0.0000       0.118123         3.2143
  11   0.0000       0.157051         4.2736
  12   0.0000       0.176105         4.7921
  13   0.0000       0.189223         5.1490

MULLIKEN ATOMIC CHARGES
-----------------------
   0 C :   -0.000128
   1 O :    0.000142
   2 H :   -0.001875
   3 H :   -0.000071
   4 H :    0.000068
   5 H :    0.000768
   6 C :   -0.169349
   7 O :   -0.468368
   8 H :    0.311800
   9 H :    0.104220
  10 H :    0.124208
  11 H :    0.098585
Sum of atomic charges:   -0.0000000

LOEWDIN ATOMIC CHARGES
----------------------
   0 C :   -0.001676
   1 O :   -0.000054
   2 H :   -0.001467
   3 H :   -0.000059
   4 H :   -0.000003
   5 H :   -0.003482
   6 C :   -0.378506
   7 O :   -0.079101
   8 H :    0.170635
   9 H :    0.086003
  10 H :    0.110928
  11 H :    0.096782

  Mayer bond orders larger than 0.1
B(  6-C ,  7-O ) :   0.9945 B(  6-C ,  9-H ) :   0.9836 B(  6-C , 10-H ) :   0.9730
B(  6-C , 11-H ) :   0.9769 B(  7-O ,  8-H ) :   0.9029

Dispersion correction           -0.000217980
FINAL SINGLE POINT ENERGY      -115.733862027296

DIPOLE MOMENT
-------------
                                X             Y             Z
Electronic contribution:      1.13615      -1.38658       0.37801
Nuclear contribution   :     -1.39618       1.92858       0.02501
                        -----------------------------------------
Total Dipole Moment    :     -0.26002       0.54200       0.40302
                        -----------------------------------------
Magnitude (a.u.)       :      0.72374
Magnitude (Debye)      :      1.83960

Rotational constants in cm-1:     4.323572     0.838558     0.801229
Rotational constants in MHz : 129617.414460 25139.333455 24020.234631

                             ****ORCA TERMINATED NORMALLY****
TOTAL RUN TIME: 0 days 0 hours 6 minutes 21 seconds 324 msec
