                         Program Version 4.1.2  - RELEASE  -
|  1> #Run DFT-D3 single point of the dimer
|  2> ! wB97X-D3 def2-TZVP TIGHTSCF  CHELPG PAL8
|  3>
|  4> %base "177_charges"
|  5>
|  6> %scf
|  7> MaxIter 1000
|  8> end
|  9> %output
| 10>   Print[ P_Mayer ] 1
| 11>   Print[ P_NatPop ] 1
| 12>   Print[ P_Hirshfeld ] 1
| 13>   Print[ P_Mulliken ] 1
| 14>   Print [ P_Loewdin ] 1
| 15> end
| 16>
| 17> * xyz 0 1
| 18>   C                      10.622989            0.791532             -4.330609
| 19>   O                      10.753048            0.025070             -5.518985
| 20>   H                      11.463735            -0.628013            -5.480460
| 21>   H                      11.551716            1.299128             -4.014126
| 22>   H                      9.909588             1.621738             -4.459162
| 23>   H                      10.250004            0.115130             -3.508875
| 24> *
| 25>
| 26>                          ****END OF INPUT****

CARTESIAN COORDINATES (ANGSTROEM)
---------------------------------
  C     10.622989    0.791532   -4.330609
  O     10.753048    0.025070   -5.518985
  H     11.463735   -0.628013   -5.480460
  H     11.551716    1.299128   -4.014126
  H      9.909588    1.621738   -4.459162
  H     10.250004    0.115130   -3.508875

 Total Charge           Charge          ....    0
 Multiplicity           Mult            ....    1
 Number of Electrons    NEL             ....   18
 Basis Dimension        Dim             ....   86

ORBITAL ENERGIES
----------------

  NO   OCC          E(Eh)            E(eV)
   0   2.0000     -19.228839      -523.2433
   1   2.0000     -10.319891      -280.8185
   2   2.0000      -1.129488       -30.7349
   3   2.0000      -0.794078       -21.6080
   4   2.0000      -0.607573       -16.5329
   5   2.0000      -0.540491       -14.7075
   6   2.0000      -0.524834       -14.2814
   7   2.0000      -0.424400       -11.5485
   8   2.0000      -0.372631       -10.1398
   9   0.0000       0.116180         3.1614
  10   0.0000       0.150866         4.1053
  11   0.0000       0.200206         5.4479
  12   0.0000       0.204081         5.5533
  13   0.0000       0.222819         6.0632

MULLIKEN ATOMIC CHARGES
-----------------------
   0 C :   -0.156209
   1 O :   -0.487123
   2 H :    0.318578
   3 H :    0.100776
   4 H :    0.122010
   5 H :    0.101967
Sum of atomic charges:   -0.0000000

LOEWDIN ATOMIC CHARGES
----------------------
   0 C :   -0.386857
   1 O :   -0.088528
   2 H :    0.169983
   3 H :    0.094683
   4 H :    0.109824
   5 H :    0.100894

  Mayer bond orders larger than 0.1
B(  0-C ,  1-O ) :   0.9959 B(  0-C ,  3-H ) :   0.9714 B(  0-C ,  4-H ) :   0.9698
B(  0-C ,  5-H ) :   0.9792 B(  1-O ,  2-H ) :   0.8926

Dispersion correction           -0.000267010
FINAL SINGLE POINT ENERGY      -115.734341762204

DIPOLE MOMENT
-------------
                                X             Y             Z
Electronic contribution:      0.09150      -0.89977      -1.60470
Nuclear contribution   :      0.31716       0.80908       2.10305
                        -----------------------------------------
Total Dipole Moment    :      0.40866      -0.09069       0.49835
                        -----------------------------------------
Magnitude (a.u.)       :      0.65083
Magnitude (Debye)      :      1.65428

Rotational constants in cm-1:     4.275000     0.808694     0.787959
Rotational constants in MHz : 128161.264138 24244.042392 23622.416366

                             ****ORCA TERMINATED NORMALLY****
TOTAL RUN TIME: 0 days 0 hours 0 minutes 41 seconds 71 msec
