                         Program Version 4.1.2  - RELEASE  -
|  1> #Run DFT-D3 single point of the dimer
|  2> ! wB97X-D3 def2-TZVP TIGHTSCF CHELPG PMODEL PAL8
|  3>
|  4> %base "20-5_DFT_AB"
|  5>
|  6> %scf
|  7> MaxIter 1000
|  8> end
|  9>
| 10> * xyz 0 1
| 11>   C                      -4.029221            8.344015             5.610913
| 12>   O                      -2.999871            7.977746             4.667712
| 13>   H                      -3.310125            8.320182             3.789893
| 14>   H                      -3.622109            8.473960             6.626864
| 15>   H                      -4.597087            9.250479             5.314208
| 16>   H                      -4.851451            7.575020             5.727861
| 17>   C                      -4.753666            2.997404             7.359859
| 18>   O                      -4.275709            4.107133             6.683067
| 19>   H                      -3.688542            3.841056             6.004916
| 20>   H                      -3.868321            2.308237             7.551418
| 21>   H                      -4.909387            3.226133             8.429224
| 22>   H                      -5.680894            2.545239             6.906451
| 23> *
| 24>
| 25> #Run DFT-D3 single point of the molecule with dimer basis set
| 26> $new_job
| 27> %base "20-5_DFT_A"
| 28> ! wB97X-D3 def2-TZVP TIGHTSCF CHELPG PMODEL
| 29>
| 30> %scf
| 31> MaxIter 1000
| 32> end
| 33>
| 34> * xyz 0 1
| 35>   C                      -4.029221            8.344015             5.610913
| 36>   O                      -2.999871            7.977746             4.667712
| 37>   H                      -3.310125            8.320182             3.789893
| 38>   H                      -3.622109            8.473960             6.626864
| 39>   H                      -4.597087            9.250479             5.314208
| 40>   H                      -4.851451            7.575020             5.727861
| 41>   C                    : -4.753666            2.997404             7.359859
| 42>   O                    : -4.275709            4.107133             6.683067
| 43>   H                    : -3.688542            3.841056             6.004916
| 44>   H                    : -3.868321            2.308237             7.551418
| 45>   H                    : -4.909387            3.226133             8.429224
| 46>   H                    : -5.680894            2.545239             6.906451
| 47> *
| 48>
| 49> #Run DFT-D3 single point of the particle with dimer basis set
| 50> $new_job
| 51> %base "20-5_DFT_B"
| 52> ! wB97X-D3 def2-TZVP TIGHTSCF CHELPG PMODEL
| 53>
| 54> %scf
| 55> MaxIter 1000
| 56> end
| 57>
| 58> * xyz 0 1
| 59>   C                    : -4.029221            8.344015             5.610913
| 60>   O                    : -2.999871            7.977746             4.667712
| 61>   H                    : -3.310125            8.320182             3.789893
| 62>   H                    : -3.622109            8.473960             6.626864
| 63>   H                    : -4.597087            9.250479             5.314208
| 64>   H                    : -4.851451            7.575020             5.727861
| 65>   C                      -4.753666            2.997404             7.359859
| 66>   O                      -4.275709            4.107133             6.683067
| 67>   H                      -3.688542            3.841056             6.004916
| 68>   H                      -3.868321            2.308237             7.551418
| 69>   H                      -4.909387            3.226133             8.429224
| 70>   H                      -5.680894            2.545239             6.906451
| 71> *
| 72>
| 73>                          ****END OF INPUT****
 Total Charge           Charge          ....    0
 Multiplicity           Mult            ....    1
 Number of Electrons    NEL             ....   36
Dispersion correction           -0.000867034
FINAL SINGLE POINT ENERGY      -231.460462173840
Dispersion correction           -0.000277109
FINAL SINGLE POINT ENERGY      -115.732104543502

CARTESIAN COORDINATES (ANGSTROEM)
---------------------------------
  C     -4.029221    8.344015    5.610913
  O     -2.999871    7.977746    4.667712
  H     -3.310125    8.320182    3.789893
  H     -3.622109    8.473960    6.626864
  H     -4.597087    9.250479    5.314208
  H     -4.851451    7.575020    5.727861
  C     -4.753666    2.997404    7.359859
  O     -4.275709    4.107133    6.683067
  H     -3.688542    3.841056    6.004916
  H     -3.868321    2.308237    7.551418
  H     -4.909387    3.226133    8.429224
  H     -5.680894    2.545239    6.906451

 Multiplicity           Mult            ....    1
 Number of Electrons    NEL             ....   18
 Basis Dimension        Dim             ....  172

ORBITAL ENERGIES
----------------

  NO   OCC          E(Eh)            E(eV)
   0   2.0000     -19.228140      -523.2243
   1   2.0000     -10.320495      -280.8349
   2   2.0000      -1.149859       -31.2893
   3   2.0000      -0.793354       -21.5883
   4   2.0000      -0.614021       -16.7084
   5   2.0000      -0.555396       -15.1131
   6   2.0000      -0.526531       -14.3276
   7   2.0000      -0.412624       -11.2281
   8   2.0000      -0.378526       -10.3002
   9   0.0000       0.093799         2.5524
  10   0.0000       0.118095         3.2135
  11   0.0000       0.152728         4.1559
  12   0.0000       0.170770         4.6469
  13   0.0000       0.194742         5.2992

MULLIKEN ATOMIC CHARGES
-----------------------
   0 C :    0.000158
   1 O :    0.000049
   2 H :   -0.000003
   3 H :    0.000029
   4 H :   -0.000091
   5 H :   -0.002230
   6 C :   -0.164586
   7 O :   -0.463182
   8 H :    0.317067
   9 H :    0.097456
  10 H :    0.113141
  11 H :    0.102192
Sum of atomic charges:   -0.0000000

LOEWDIN ATOMIC CHARGES
----------------------
   0 C :   -0.000732
   1 O :   -0.000009
   2 H :   -0.000001
   3 H :   -0.000043
   4 H :   -0.000013
   5 H :   -0.001108
   6 C :   -0.421637
   7 O :   -0.046569
   8 H :    0.155741
   9 H :    0.105032
  10 H :    0.108187
  11 H :    0.101153

  Mayer bond orders larger than 0.1
B(  6-C ,  7-O ) :   1.0070 B(  6-C ,  9-H ) :   0.9860 B(  6-C , 10-H ) :   0.9704
B(  6-C , 11-H ) :   0.9661 B(  7-O ,  8-H ) :   0.9000

Dispersion correction           -0.000247230
FINAL SINGLE POINT ENERGY      -115.727597875851

DIPOLE MOMENT
-------------
                                X             Y             Z
Electronic contribution:      0.41108       1.54582      -0.96454
Nuclear contribution   :     -0.18098      -2.12768       0.81444
                        -----------------------------------------
Total Dipole Moment    :      0.23010      -0.58186      -0.15009
                        -----------------------------------------
Magnitude (a.u.)       :      0.64346
Magnitude (Debye)      :      1.63553

Rotational constants in cm-1:     4.192839     0.840307     0.834249
Rotational constants in MHz : 125698.157294 25191.776279 25010.153613

                             ****ORCA TERMINATED NORMALLY****
TOTAL RUN TIME: 0 days 0 hours 1 minutes 7 seconds 902 msec
