                         Program Version 4.1.2  - RELEASE  -
|  1> #Run DFT-D3 single point of the dimer
|  2> ! wB97X-D3 def2-TZVP TIGHTSCF CHELPG PMODEL PAL8
|  3>
|  4> %base "8-8_DFT_AB"
|  5>
|  6> %scf
|  7> MaxIter 1000
|  8> end
|  9>
| 10> * xyz 0 1
| 11>   C                      3.233414             -3.571402            3.480505
| 12>   O                      2.255676             -2.570167            3.219103
| 13>   H                      1.566001             -2.787145            3.844910
| 14>   H                      2.766447             -4.558397            3.518261
| 15>   H                      4.083400             -3.498807            2.869667
| 16>   H                      3.649298             -3.340378            4.517966
| 17>   C                      -0.290439            -5.175821            5.549866
| 18>   O                      0.225482             -4.442483            4.481468
| 19>   H                      0.245512             -4.926578            3.653445
| 20>   H                      0.327945             -6.084188            5.706868
| 21>   H                      -0.064656            -4.679792            6.488860
| 22>   H                      -1.417944            -5.373007            5.521078
| 23> *
| 24>
| 25> #Run DFT-D3 single point of the molecule with dimer basis set
| 26> $new_job
| 27> %base "8-8_DFT_A"
| 28> ! wB97X-D3 def2-TZVP TIGHTSCF CHELPG PMODEL
| 29>
| 30> %scf
| 31> MaxIter 1000
| 32> end
| 33>
| 34> * xyz 0 1
| 35>   C                      3.233414             -3.571402            3.480505
| 36>   O                      2.255676             -2.570167            3.219103
| 37>   H                      1.566001             -2.787145            3.844910
| 38>   H                      2.766447             -4.558397            3.518261
| 39>   H                      4.083400             -3.498807            2.869667
| 40>   H                      3.649298             -3.340378            4.517966
| 41>   C                    : -0.290439            -5.175821            5.549866
| 42>   O                    : 0.225482             -4.442483            4.481468
| 43>   H                    : 0.245512             -4.926578            3.653445
| 44>   H                    : 0.327945             -6.084188            5.706868
| 45>   H                    : -0.064656            -4.679792            6.488860
| 46>   H                    : -1.417944            -5.373007            5.521078
| 47> *
| 48>
| 49> #Run DFT-D3 single point of the particle with dimer basis set
| 50> $new_job
| 51> %base "8-8_DFT_B"
| 52> ! wB97X-D3 def2-TZVP TIGHTSCF CHELPG PMODEL
| 53>
| 54> %scf
| 55> MaxIter 1000
| 56> end
| 57>
| 58> * xyz 0 1
| 59>   C                    : 3.233414             -3.571402            3.480505
| 60>   O                    : 2.255676             -2.570167            3.219103
| 61>   H                    : 1.566001             -2.787145            3.844910
| 62>   H                    : 2.766447             -4.558397            3.518261
| 63>   H                    : 4.083400             -3.498807            2.869667
| 64>   H                    : 3.649298             -3.340378            4.517966
| 65>   C                      -0.290439            -5.175821            5.549866
| 66>   O                      0.225482             -4.442483            4.481468
| 67>   H                      0.245512             -4.926578            3.653445
| 68>   H                      0.327945             -6.084188            5.706868
| 69>   H                      -0.064656            -4.679792            6.488860
| 70>   H                      -1.417944            -5.373007            5.521078
| 71> *
| 72>
| 73>                          ****END OF INPUT****
 Total Charge           Charge          ....    0
 Multiplicity           Mult            ....    1
 Number of Electrons    NEL             ....   36
Dispersion correction           -0.001869011
FINAL SINGLE POINT ENERGY      -231.469830007456
Dispersion correction           -0.000215901
FINAL SINGLE POINT ENERGY      -115.730959113186

CARTESIAN COORDINATES (ANGSTROEM)
---------------------------------
  C      3.233414   -3.571402    3.480505
  O      2.255676   -2.570167    3.219103
  H      1.566001   -2.787145    3.844910
  H      2.766447   -4.558397    3.518261
  H      4.083400   -3.498807    2.869667
  H      3.649298   -3.340378    4.517966
  C     -0.290439   -5.175821    5.549866
  O      0.225482   -4.442483    4.481468
  H      0.245512   -4.926578    3.653445
  H      0.327945   -6.084188    5.706868
  H     -0.064656   -4.679792    6.488860
  H     -1.417944   -5.373007    5.521078

 Multiplicity           Mult            ....    1
 Number of Electrons    NEL             ....   18
 Basis Dimension        Dim             ....  172

ORBITAL ENERGIES
----------------

  NO   OCC          E(Eh)            E(eV)
   0   2.0000     -19.231670      -523.3204
   1   2.0000     -10.318218      -280.7730
   2   2.0000      -1.140412       -31.0322
   3   2.0000      -0.796295       -21.6683
   4   2.0000      -0.612034       -16.6543
   5   2.0000      -0.546452       -14.8697
   6   2.0000      -0.528823       -14.3900
   7   2.0000      -0.418303       -11.3826
   8   2.0000      -0.376270       -10.2388
   9   0.0000       0.095033         2.5860
  10   0.0000       0.131585         3.5806
  11   0.0000       0.149418         4.0659
  12   0.0000       0.184651         5.0246
  13   0.0000       0.195593         5.3224

MULLIKEN ATOMIC CHARGES
-----------------------
   0 C :    0.010178
   1 O :   -0.000033
   2 H :   -0.007609
   3 H :   -0.015548
   4 H :   -0.000705
   5 H :   -0.001790
   6 C :   -0.151144
   7 O :   -0.471587
   8 H :    0.321185
   9 H :    0.096561
  10 H :    0.120975
  11 H :    0.099517
Sum of atomic charges:   -0.0000000

LOEWDIN ATOMIC CHARGES
----------------------
   0 C :   -0.009309
   1 O :   -0.002726
   2 H :   -0.021623
   3 H :   -0.007410
   4 H :   -0.000132
   5 H :   -0.000411
   6 C :   -0.408385
   7 O :   -0.031458
   8 H :    0.171056
   9 H :    0.098781
  10 H :    0.107509
  11 H :    0.104109

  Mayer bond orders larger than 0.1
B(  6-C ,  7-O ) :   1.0007 B(  6-C ,  9-H ) :   0.9792 B(  6-C , 10-H ) :   0.9738
B(  6-C , 11-H ) :   0.9657 B(  7-O ,  8-H ) :   0.8896

Dispersion correction           -0.000266647
FINAL SINGLE POINT ENERGY      -115.731961379165

DIPOLE MOMENT
-------------
                                X             Y             Z
Electronic contribution:      0.58811       1.06797      -1.40054
Nuclear contribution   :     -0.75584      -1.66399       1.31436
                        -----------------------------------------
Total Dipole Moment    :     -0.16774      -0.59601      -0.08618
                        -----------------------------------------
Magnitude (a.u.)       :      0.62514
Magnitude (Debye)      :      1.58897

Rotational constants in cm-1:     4.308285     0.825236     0.813777
Rotational constants in MHz : 129159.149731 24739.954767 24396.431140

                             ****ORCA TERMINATED NORMALLY****
TOTAL RUN TIME: 0 days 0 hours 0 minutes 47 seconds 20 msec
