                         Program Version 4.1.2  - RELEASE  -
|  1> #Run DFT geometry optimization
|  2> ! wB97X-D3 def2-TZVP TIGHTSCF Grid5 FinalGrid6 Opt CHELPG PAL4
|  3>
|  4> %base "8_geo_opt"
|  5> %geom MaxIter 500
|  6> end
|  7>
|  8> %geom
|  9>   Constraints
| 10>     { B 2 1 C }
| 11>   end
| 12> end
| 13>
| 14>
| 15> * xyz 0 1
| 16>   C                    3.011426             -1.180662            0.598347
| 17>   O                    4.394791             -1.127815            0.874163
| 18>   H                    4.772078             -0.379257            0.412638
| 19>   H                    2.806553             -1.318730            -0.469494
| 20>   H                    2.611750             -2.040030            1.135754
| 21>   H                    2.484875             -0.284256            0.945514
| 22> *
| 23>
| 24>                          ****END OF INPUT****
 Total Charge           Charge          ....    0
 Multiplicity           Mult            ....    1
 Number of Electrons    NEL             ....   18
Dispersion correction           -0.000239207
FINAL SINGLE POINT ENERGY      -115.738051017041
Dispersion correction            ... done
                    ***********************HURRAY********************

CARTESIAN COORDINATES (ANGSTROEM)
---------------------------------
  C      3.011470   -1.180702    0.598383
  O      4.394806   -1.127783    0.874129
  H      4.772097   -0.379212    0.412628
  H      2.806562   -1.318743   -0.469459
  H      2.611634   -2.040023    1.135728
  H      2.484903   -0.284287    0.945513

 Multiplicity           Mult            ....    1
 Number of Electrons    NEL             ....   18
 Basis Dimension        Dim             ....   86

ORBITAL ENERGIES
----------------

  NO   OCC          E(Eh)            E(eV)
   0   2.0000     -19.228027      -523.2212
   1   2.0000     -10.315116      -280.6886
   2   2.0000      -1.136924       -30.9373
   3   2.0000      -0.795404       -21.6440
   4   2.0000      -0.611667       -16.6443
   5   2.0000      -0.541781       -14.7426
   6   2.0000      -0.526358       -14.3229
   7   2.0000      -0.433810       -11.8046
   8   2.0000      -0.373623       -10.1668
   9   0.0000       0.116707         3.1758
  10   0.0000       0.156701         4.2640
  11   0.0000       0.202584         5.5126
  12   0.0000       0.205114         5.5814
  13   0.0000       0.226392         6.1605

MULLIKEN ATOMIC CHARGES
-----------------------
   0 C :   -0.150853
   1 O :   -0.477566
   2 H :    0.312940
   3 H :    0.098623
   4 H :    0.118230
   5 H :    0.098627
Sum of atomic charges:   -0.0000000

LOEWDIN ATOMIC CHARGES
----------------------
   0 C :   -0.385121
   1 O :   -0.075785
   2 H :    0.165415
   3 H :    0.093401
   4 H :    0.108690
   5 H :    0.093400

  Mayer bond orders larger than 0.1
B(  0-C ,  1-O ) :   0.9986 B(  0-C ,  3-H ) :   0.9755 B(  0-C ,  4-H ) :   0.9749
B(  0-C ,  5-H ) :   0.9755 B(  1-O ,  2-H ) :   0.9003

Dispersion correction           -0.000239209
FINAL SINGLE POINT ENERGY      -115.738051035424

DIPOLE MOMENT
-------------
                                X             Y             Z
Electronic contribution:      1.75613      -0.02799       0.41965
Nuclear contribution   :     -2.06599       0.47544      -0.81720
                        -----------------------------------------
Total Dipole Moment    :     -0.30987       0.44745      -0.39755
                        -----------------------------------------
Magnitude (a.u.)       :      0.67400
Magnitude (Debye)      :      1.71317

Rotational constants in cm-1:     4.294056     0.833836     0.804980
Rotational constants in MHz : 128732.557376 24997.763321 24132.707965

                             ****ORCA TERMINATED NORMALLY****
TOTAL RUN TIME: 0 days 0 hours 0 minutes 38 seconds 681 msec
