                         Program Version 4.1.2  - RELEASE  -
|  1> #Run DFT-D3 single point of the dimer
|  2> ! wB97X-D3 def2-TZVP TIGHTSCF CHELPG PMODEL PAL8
|  3>
|  4> %base "17-180_DFT_AB"
|  5>
|  6> %scf
|  7> MaxIter 1000
|  8> end
|  9>
| 10> * xyz 0 1
| 11>   C                      0.560714             2.345337             5.928225
| 12>   O                      0.858539             3.108066             7.045610
| 13>   H                      1.736582             3.009554             7.392584
| 14>   H                      -0.467210            2.038130             5.852823
| 15>   H                      0.691862             2.842417             4.985025
| 16>   H                      1.169017             1.443859             5.860867
| 17>   C                      4.564148             2.486965             9.463505
| 18>   O                      3.292222             2.011616             9.072994
| 19>   H                      3.299397             1.074400             8.926465
| 20>   H                      5.309284             2.534749             8.657171
| 21>   H                      4.380130             3.479184             9.880657
| 22>   H                      5.041125             1.943326             10.275876
| 23> *
| 24>
| 25> #Run DFT-D3 single point of the molecule with dimer basis set
| 26> $new_job
| 27> %base "17-180_DFT_A"
| 28> ! wB97X-D3 def2-TZVP TIGHTSCF CHELPG PMODEL
| 29>
| 30> %scf
| 31> MaxIter 1000
| 32> end
| 33>
| 34> * xyz 0 1
| 35>   C                      0.560714             2.345337             5.928225
| 36>   O                      0.858539             3.108066             7.045610
| 37>   H                      1.736582             3.009554             7.392584
| 38>   H                      -0.467210            2.038130             5.852823
| 39>   H                      0.691862             2.842417             4.985025
| 40>   H                      1.169017             1.443859             5.860867
| 41>   C                    : 4.564148             2.486965             9.463505
| 42>   O                    : 3.292222             2.011616             9.072994
| 43>   H                    : 3.299397             1.074400             8.926465
| 44>   H                    : 5.309284             2.534749             8.657171
| 45>   H                    : 4.380130             3.479184             9.880657
| 46>   H                    : 5.041125             1.943326             10.275876
| 47> *
| 48>
| 49> #Run DFT-D3 single point of the particle with dimer basis set
| 50> $new_job
| 51> %base "17-180_DFT_B"
| 52> ! wB97X-D3 def2-TZVP TIGHTSCF CHELPG PMODEL
| 53>
| 54> %scf
| 55> MaxIter 1000
| 56> end
| 57>
| 58> * xyz 0 1
| 59>   C                    : 0.560714             2.345337             5.928225
| 60>   O                    : 0.858539             3.108066             7.045610
| 61>   H                    : 1.736582             3.009554             7.392584
| 62>   H                    : -0.467210            2.038130             5.852823
| 63>   H                    : 0.691862             2.842417             4.985025
| 64>   H                    : 1.169017             1.443859             5.860867
| 65>   C                      4.564148             2.486965             9.463505
| 66>   O                      3.292222             2.011616             9.072994
| 67>   H                      3.299397             1.074400             8.926465
| 68>   H                      5.309284             2.534749             8.657171
| 69>   H                      4.380130             3.479184             9.880657
| 70>   H                      5.041125             1.943326             10.275876
| 71> *
| 72>
| 73>                          ****END OF INPUT****
 Total Charge           Charge          ....    0
 Multiplicity           Mult            ....    1
 Number of Electrons    NEL             ....   36
Dispersion correction           -0.001344944
FINAL SINGLE POINT ENERGY      -231.473037079748
Dispersion correction           -0.000255660
FINAL SINGLE POINT ENERGY      -115.732014645586

CARTESIAN COORDINATES (ANGSTROEM)
---------------------------------
  C      0.560714    2.345337    5.928225
  O      0.858539    3.108066    7.045610
  H      1.736582    3.009554    7.392584
  H     -0.467210    2.038130    5.852823
  H      0.691862    2.842417    4.985025
  H      1.169017    1.443859    5.860867
  C      4.564148    2.486965    9.463505
  O      3.292222    2.011616    9.072994
  H      3.299397    1.074400    8.926465
  H      5.309284    2.534749    8.657171
  H      4.380130    3.479184    9.880657
  H      5.041125    1.943326   10.275876

 Multiplicity           Mult            ....    1
 Number of Electrons    NEL             ....   18
 Basis Dimension        Dim             ....  172

ORBITAL ENERGIES
----------------

  NO   OCC          E(Eh)            E(eV)
   0   2.0000     -19.230894      -523.2992
   1   2.0000     -10.312587      -280.6198
   2   2.0000      -1.137631       -30.9565
   3   2.0000      -0.799834       -21.7646
   4   2.0000      -0.617658       -16.8073
   5   2.0000      -0.540581       -14.7100
   6   2.0000      -0.522138       -14.2081
   7   2.0000      -0.432639       -11.7727
   8   2.0000      -0.376461       -10.2440
   9   0.0000       0.094980         2.5846
  10   0.0000       0.122891         3.3440
  11   0.0000       0.152450         4.1484
  12   0.0000       0.184628         5.0240
  13   0.0000       0.203924         5.5490

MULLIKEN ATOMIC CHARGES
-----------------------
   0 C :    0.000788
   1 O :    0.000071
   2 H :   -0.007222
   3 H :   -0.000074
   4 H :   -0.000080
   5 H :   -0.001105
   6 C :   -0.152672
   7 O :   -0.470629
   8 H :    0.312398
   9 H :    0.098315
  10 H :    0.119019
  11 H :    0.101191
Sum of atomic charges:    0.0000000

LOEWDIN ATOMIC CHARGES
----------------------
   0 C :   -0.000599
   1 O :   -0.001387
   2 H :   -0.015016
   3 H :   -0.000007
   4 H :   -0.000003
   5 H :   -0.000286
   6 C :   -0.386504
   7 O :   -0.054036
   8 H :    0.159460
   9 H :    0.093849
  10 H :    0.111041
  11 H :    0.093487

  Mayer bond orders larger than 0.1
B(  6-C ,  7-O ) :   0.9983 B(  6-C ,  9-H ) :   0.9714 B(  6-C , 10-H ) :   0.9793
B(  6-C , 11-H ) :   0.9690 B(  7-O ,  8-H ) :   0.8992

Dispersion correction           -0.000261553
FINAL SINGLE POINT ENERGY      -115.736120203825

DIPOLE MOMENT
-------------
                                X             Y             Z
Electronic contribution:     -1.67267      -0.55973      -0.54041
Nuclear contribution   :      2.18811       0.13621       0.63552
                        -----------------------------------------
Total Dipole Moment    :      0.51544      -0.42352       0.09511
                        -----------------------------------------
Magnitude (a.u.)       :      0.67387
Magnitude (Debye)      :      1.71283

Rotational constants in cm-1:     4.424724     0.823504     0.797066
Rotational constants in MHz : 132649.875667 24688.014491 23895.431191

                             ****ORCA TERMINATED NORMALLY****
TOTAL RUN TIME: 0 days 0 hours 1 minutes 8 seconds 541 msec
