                         Program Version 4.1.2  - RELEASE  -
|  1> #Run DFT-D3 single point of the dimer
|  2> ! wB97X-D3 def2-TZVP TIGHTSCF CHELPG PMODEL PAL8
|  3>
|  4> %base "1-94_DFT_AB"
|  5>
|  6> %scf
|  7> MaxIter 1000
|  8> end
|  9>
| 10> * xyz 0 1
| 11>   C                      -7.546642            5.310844             -2.485952
| 12>   O                      -6.537382            4.702897             -1.704250
| 13>   H                      -6.634103            3.799627             -2.072274
| 14>   H                      -7.343214            5.297082             -3.570693
| 15>   H                      -8.497672            4.889586             -2.433377
| 16>   H                      -7.670592            6.410111             -2.234567
| 17>   C                      -6.296176            3.776495             -4.725563
| 18>   O                      -5.685976            3.634716             -3.483569
| 19>   H                      -5.576019            4.521717             -3.251364
| 20>   H                      -5.678511            4.378508             -5.439903
| 21>   H                      -6.424762            2.782603             -5.191134
| 22>   H                      -7.243550            4.274723             -4.592986
| 23> *
| 24>
| 25> #Run DFT-D3 single point of the molecule with dimer basis set
| 26> $new_job
| 27> %base "1-94_DFT_A"
| 28> ! wB97X-D3 def2-TZVP TIGHTSCF CHELPG PMODEL
| 29>
| 30> %scf
| 31> MaxIter 1000
| 32> end
| 33>
| 34> * xyz 0 1
| 35>   C                      -7.546642            5.310844             -2.485952
| 36>   O                      -6.537382            4.702897             -1.704250
| 37>   H                      -6.634103            3.799627             -2.072274
| 38>   H                      -7.343214            5.297082             -3.570693
| 39>   H                      -8.497672            4.889586             -2.433377
| 40>   H                      -7.670592            6.410111             -2.234567
| 41>   C                    : -6.296176            3.776495             -4.725563
| 42>   O                    : -5.685976            3.634716             -3.483569
| 43>   H                    : -5.576019            4.521717             -3.251364
| 44>   H                    : -5.678511            4.378508             -5.439903
| 45>   H                    : -6.424762            2.782603             -5.191134
| 46>   H                    : -7.243550            4.274723             -4.592986
| 47> *
| 48>
| 49> #Run DFT-D3 single point of the particle with dimer basis set
| 50> $new_job
| 51> %base "1-94_DFT_B"
| 52> ! wB97X-D3 def2-TZVP TIGHTSCF CHELPG PMODEL
| 53>
| 54> %scf
| 55> MaxIter 1000
| 56> end
| 57>
| 58> * xyz 0 1
| 59>   C                    : -7.546642            5.310844             -2.485952
| 60>   O                    : -6.537382            4.702897             -1.704250
| 61>   H                    : -6.634103            3.799627             -2.072274
| 62>   H                    : -7.343214            5.297082             -3.570693
| 63>   H                    : -8.497672            4.889586             -2.433377
| 64>   H                    : -7.670592            6.410111             -2.234567
| 65>   C                      -6.296176            3.776495             -4.725563
| 66>   O                      -5.685976            3.634716             -3.483569
| 67>   H                      -5.576019            4.521717             -3.251364
| 68>   H                      -5.678511            4.378508             -5.439903
| 69>   H                      -6.424762            2.782603             -5.191134
| 70>   H                      -7.243550            4.274723             -4.592986
| 71> *
| 72>
| 73>                          ****END OF INPUT****
 Total Charge           Charge          ....    0
 Multiplicity           Mult            ....    1
 Number of Electrons    NEL             ....   36
Dispersion correction           -0.002045563
FINAL SINGLE POINT ENERGY      -231.431742207333
Dispersion correction           -0.000227655
FINAL SINGLE POINT ENERGY      -115.728850313389

CARTESIAN COORDINATES (ANGSTROEM)
---------------------------------
  C     -7.546642    5.310844   -2.485952
  O     -6.537382    4.702897   -1.704250
  H     -6.634103    3.799627   -2.072274
  H     -7.343214    5.297082   -3.570693
  H     -8.497672    4.889586   -2.433377
  H     -7.670592    6.410111   -2.234567
  C     -6.296176    3.776495   -4.725563
  O     -5.685976    3.634716   -3.483569
  H     -5.576019    4.521717   -3.251364
  H     -5.678511    4.378508   -5.439903
  H     -6.424762    2.782603   -5.191134
  H     -7.243550    4.274723   -4.592986

 Multiplicity           Mult            ....    1
 Number of Electrons    NEL             ....   18
 Basis Dimension        Dim             ....  172

ORBITAL ENERGIES
----------------

  NO   OCC          E(Eh)            E(eV)
   0   2.0000     -19.231193      -523.3074
   1   2.0000     -10.314511      -280.6721
   2   2.0000      -1.158828       -31.5333
   3   2.0000      -0.792473       -21.5643
   4   2.0000      -0.619833       -16.8665
   5   2.0000      -0.549911       -14.9638
   6   2.0000      -0.528685       -14.3862
   7   2.0000      -0.442586       -12.0434
   8   2.0000      -0.375094       -10.2068
   9   0.0000       0.084361         2.2956
  10   0.0000       0.148659         4.0452
  11   0.0000       0.153930         4.1886
  12   0.0000       0.180168         4.9026
  13   0.0000       0.196460         5.3460

MULLIKEN ATOMIC CHARGES
-----------------------
   0 C :   -0.012212
   1 O :   -0.007514
   2 H :   -0.008442
   3 H :    0.003013
   4 H :   -0.000883
   5 H :    0.000305
   6 C :   -0.182752
   7 O :   -0.413785
   8 H :    0.306277
   9 H :    0.097499
  10 H :    0.121463
  11 H :    0.097031
Sum of atomic charges:   -0.0000000

LOEWDIN ATOMIC CHARGES
----------------------
   0 C :   -0.044424
   1 O :   -0.044135
   2 H :   -0.062904
   3 H :   -0.036618
   4 H :   -0.001127
   5 H :   -0.000348
   6 C :   -0.374343
   7 O :    0.060191
   8 H :    0.176022
   9 H :    0.099765
  10 H :    0.111638
  11 H :    0.116283

  Mayer bond orders larger than 0.1
B(  6-C ,  7-O ) :   1.0047 B(  6-C ,  9-H ) :   0.9790 B(  6-C , 10-H ) :   0.9782
B(  6-C , 11-H ) :   0.9775 B(  7-O ,  8-H ) :   0.9121

Dispersion correction           -0.000203717
FINAL SINGLE POINT ENERGY      -115.733371332629

DIPOLE MOMENT
-------------
                                X             Y             Z
Electronic contribution:      0.77101      -0.38039       1.64592
Nuclear contribution   :     -0.92422       0.96261      -1.96814
                        -----------------------------------------
Total Dipole Moment    :     -0.15321       0.58222      -0.32222
                        -----------------------------------------
Magnitude (a.u.)       :      0.68285
Magnitude (Debye)      :      1.73566

Rotational constants in cm-1:     4.225464     0.866798     0.833017
Rotational constants in MHz : 126676.214264 25985.940772 24973.215964

                             ****ORCA TERMINATED NORMALLY****
TOTAL RUN TIME: 0 days 0 hours 5 minutes 14 seconds 463 msec
