                         Program Version 4.1.2  - RELEASE  -
|  1> #Run DFT-D3 single point of the dimer
|  2> ! wB97X-D3 def2-TZVP TIGHTSCF CHELPG PMODEL PAL8
|  3>
|  4> %base "17-7_DFT_AB"
|  5>
|  6> %scf
|  7> MaxIter 1000
|  8> end
|  9>
| 10> * xyz 0 1
| 11>   C                      4.197069             -5.731458            9.963804
| 12>   O                      3.094894             -5.843376            9.191124
| 13>   H                      2.638128             -4.976491            9.044959
| 14>   H                      4.671865             -6.648630            10.240441
| 15>   H                      4.946971             -5.153106            9.403973
| 16>   H                      3.975430             -5.220114            10.891315
| 17>   C                      0.850529             -3.873660            10.870279
| 18>   O                      0.868618             -3.677440            9.450225
| 19>   H                      -0.073803            -3.332150            9.267791
| 20>   H                      0.716920             -2.973114            11.436462
| 21>   H                      -0.005009            -4.572064            11.182163
| 22>   H                      1.870404             -4.225057            11.212077
| 23> *
| 24>
| 25> #Run DFT-D3 single point of the molecule with dimer basis set
| 26> $new_job
| 27> %base "17-7_DFT_A"
| 28> ! wB97X-D3 def2-TZVP TIGHTSCF CHELPG PMODEL
| 29>
| 30> %scf
| 31> MaxIter 1000
| 32> end
| 33>
| 34> * xyz 0 1
| 35>   C                      4.197069             -5.731458            9.963804
| 36>   O                      3.094894             -5.843376            9.191124
| 37>   H                      2.638128             -4.976491            9.044959
| 38>   H                      4.671865             -6.648630            10.240441
| 39>   H                      4.946971             -5.153106            9.403973
| 40>   H                      3.975430             -5.220114            10.891315
| 41>   C                    : 0.850529             -3.873660            10.870279
| 42>   O                    : 0.868618             -3.677440            9.450225
| 43>   H                    : -0.073803            -3.332150            9.267791
| 44>   H                    : 0.716920             -2.973114            11.436462
| 45>   H                    : -0.005009            -4.572064            11.182163
| 46>   H                    : 1.870404             -4.225057            11.212077
| 47> *
| 48>
| 49> #Run DFT-D3 single point of the particle with dimer basis set
| 50> $new_job
| 51> %base "17-7_DFT_B"
| 52> ! wB97X-D3 def2-TZVP TIGHTSCF CHELPG PMODEL
| 53>
| 54> %scf
| 55> MaxIter 1000
| 56> end
| 57>
| 58> * xyz 0 1
| 59>   C                    : 4.197069             -5.731458            9.963804
| 60>   O                    : 3.094894             -5.843376            9.191124
| 61>   H                    : 2.638128             -4.976491            9.044959
| 62>   H                    : 4.671865             -6.648630            10.240441
| 63>   H                    : 4.946971             -5.153106            9.403973
| 64>   H                    : 3.975430             -5.220114            10.891315
| 65>   C                      0.850529             -3.873660            10.870279
| 66>   O                      0.868618             -3.677440            9.450225
| 67>   H                      -0.073803            -3.332150            9.267791
| 68>   H                      0.716920             -2.973114            11.436462
| 69>   H                      -0.005009            -4.572064            11.182163
| 70>   H                      1.870404             -4.225057            11.212077
| 71> *
| 72>
| 73>                          ****END OF INPUT****
 Total Charge           Charge          ....    0
 Multiplicity           Mult            ....    1
 Number of Electrons    NEL             ....   36
Dispersion correction           -0.001888952
FINAL SINGLE POINT ENERGY      -231.465281162558
Dispersion correction           -0.000216573
FINAL SINGLE POINT ENERGY      -115.730700445098

CARTESIAN COORDINATES (ANGSTROEM)
---------------------------------
  C      4.197069   -5.731458    9.963804
  O      3.094894   -5.843376    9.191124
  H      2.638128   -4.976491    9.044959
  H      4.671865   -6.648630   10.240441
  H      4.946971   -5.153106    9.403973
  H      3.975430   -5.220114   10.891315
  C      0.850529   -3.873660   10.870279
  O      0.868618   -3.677440    9.450225
  H     -0.073803   -3.332150    9.267791
  H      0.716920   -2.973114   11.436462
  H     -0.005009   -4.572064   11.182163
  H      1.870404   -4.225057   11.212077

 Multiplicity           Mult            ....    1
 Number of Electrons    NEL             ....   18
 Basis Dimension        Dim             ....  172

ORBITAL ENERGIES
----------------

  NO   OCC          E(Eh)            E(eV)
   0   2.0000     -19.240299      -523.5552
   1   2.0000     -10.321977      -280.8753
   2   2.0000      -1.124873       -30.6093
   3   2.0000      -0.785676       -21.3793
   4   2.0000      -0.601513       -16.3680
   5   2.0000      -0.538046       -14.6410
   6   2.0000      -0.515509       -14.0277
   7   2.0000      -0.439687       -11.9645
   8   2.0000      -0.373882       -10.1739
   9   0.0000       0.093826         2.5531
  10   0.0000       0.112599         3.0640
  11   0.0000       0.150897         4.1061
  12   0.0000       0.191338         5.2066
  13   0.0000       0.194072         5.2810

MULLIKEN ATOMIC CHARGES
-----------------------
   0 C :    0.000311
   1 O :    0.000318
   2 H :   -0.006833
   3 H :    0.000005
   4 H :   -0.000191
   5 H :   -0.000010
   6 C :   -0.184292
   7 O :   -0.454949
   8 H :    0.312503
   9 H :    0.111639
  10 H :    0.102960
  11 H :    0.118540
Sum of atomic charges:    0.0000000

LOEWDIN ATOMIC CHARGES
----------------------
   0 C :   -0.003954
   1 O :   -0.002335
   2 H :   -0.018664
   3 H :   -0.000022
   4 H :   -0.000029
   5 H :   -0.003912
   6 C :   -0.388051
   7 O :   -0.097550
   8 H :    0.202817
   9 H :    0.087992
  10 H :    0.103785
  11 H :    0.119923

  Mayer bond orders larger than 0.1
B(  6-C ,  7-O ) :   0.9982 B(  6-C ,  9-H ) :   0.9667 B(  6-C , 10-H ) :   0.9755
B(  6-C , 11-H ) :   0.9752 B(  7-O ,  8-H ) :   0.8936

Dispersion correction           -0.000251419
FINAL SINGLE POINT ENERGY      -115.728721655034

DIPOLE MOMENT
-------------
                                X             Y             Z
Electronic contribution:      0.20396       0.21536      -1.88883
Nuclear contribution   :     -0.76621      -0.04471       2.33673
                        -----------------------------------------
Total Dipole Moment    :     -0.56225       0.17066       0.44790
                        -----------------------------------------
Magnitude (a.u.)       :      0.73882
Magnitude (Debye)      :      1.87794

Rotational constants in cm-1:     4.023831     0.814802     0.772975
Rotational constants in MHz : 120631.426767 24427.136864 23173.212042

                             ****ORCA TERMINATED NORMALLY****
TOTAL RUN TIME: 0 days 0 hours 1 minutes 11 seconds 871 msec
