                         Program Version 4.1.2  - RELEASE  -
|  1> #Run DFT-D3 single point of the dimer
|  2> ! wB97X-D3 def2-TZVP TIGHTSCF CHELPG PMODEL PAL8
|  3>
|  4> %base "20-92_DFT_AB"
|  5>
|  6> %scf
|  7> MaxIter 1000
|  8> end
|  9>
| 10> * xyz 0 1
| 11>   C                      -5.619514            -0.230082            9.710258
| 12>   O                      -5.919557            0.391140             10.949691
| 13>   H                      -5.148180            1.017697             11.036180
| 14>   H                      -6.402927            -0.922974            9.360529
| 15>   H                      -5.635728            0.617874             8.986753
| 16>   H                      -4.641547            -0.829193            9.755749
| 17>   C                      -4.753666            2.997404             7.359859
| 18>   O                      -4.275709            4.107133             6.683067
| 19>   H                      -3.688542            3.841056             6.004916
| 20>   H                      -3.868321            2.308237             7.551418
| 21>   H                      -4.909387            3.226133             8.429224
| 22>   H                      -5.680894            2.545239             6.906451
| 23> *
| 24>
| 25> #Run DFT-D3 single point of the molecule with dimer basis set
| 26> $new_job
| 27> %base "20-92_DFT_A"
| 28> ! wB97X-D3 def2-TZVP TIGHTSCF CHELPG PMODEL
| 29>
| 30> %scf
| 31> MaxIter 1000
| 32> end
| 33>
| 34> * xyz 0 1
| 35>   C                      -5.619514            -0.230082            9.710258
| 36>   O                      -5.919557            0.391140             10.949691
| 37>   H                      -5.148180            1.017697             11.036180
| 38>   H                      -6.402927            -0.922974            9.360529
| 39>   H                      -5.635728            0.617874             8.986753
| 40>   H                      -4.641547            -0.829193            9.755749
| 41>   C                    : -4.753666            2.997404             7.359859
| 42>   O                    : -4.275709            4.107133             6.683067
| 43>   H                    : -3.688542            3.841056             6.004916
| 44>   H                    : -3.868321            2.308237             7.551418
| 45>   H                    : -4.909387            3.226133             8.429224
| 46>   H                    : -5.680894            2.545239             6.906451
| 47> *
| 48>
| 49> #Run DFT-D3 single point of the particle with dimer basis set
| 50> $new_job
| 51> %base "20-92_DFT_B"
| 52> ! wB97X-D3 def2-TZVP TIGHTSCF CHELPG PMODEL
| 53>
| 54> %scf
| 55> MaxIter 1000
| 56> end
| 57>
| 58> * xyz 0 1
| 59>   C                    : -5.619514            -0.230082            9.710258
| 60>   O                    : -5.919557            0.391140             10.949691
| 61>   H                    : -5.148180            1.017697             11.036180
| 62>   H                    : -6.402927            -0.922974            9.360529
| 63>   H                    : -5.635728            0.617874             8.986753
| 64>   H                    : -4.641547            -0.829193            9.755749
| 65>   C                      -4.753666            2.997404             7.359859
| 66>   O                      -4.275709            4.107133             6.683067
| 67>   H                      -3.688542            3.841056             6.004916
| 68>   H                      -3.868321            2.308237             7.551418
| 69>   H                      -4.909387            3.226133             8.429224
| 70>   H                      -5.680894            2.545239             6.906451
| 71> *
| 72>
| 73>                          ****END OF INPUT****
 Total Charge           Charge          ....    0
 Multiplicity           Mult            ....    1
 Number of Electrons    NEL             ....   36
Dispersion correction           -0.001401207
FINAL SINGLE POINT ENERGY      -231.456548000048
Dispersion correction           -0.000228326
FINAL SINGLE POINT ENERGY      -115.728492958529

CARTESIAN COORDINATES (ANGSTROEM)
---------------------------------
  C     -5.619514   -0.230082    9.710258
  O     -5.919557    0.391140   10.949691
  H     -5.148180    1.017697   11.036180
  H     -6.402927   -0.922974    9.360529
  H     -5.635728    0.617874    8.986753
  H     -4.641547   -0.829193    9.755749
  C     -4.753666    2.997404    7.359859
  O     -4.275709    4.107133    6.683067
  H     -3.688542    3.841056    6.004916
  H     -3.868321    2.308237    7.551418
  H     -4.909387    3.226133    8.429224
  H     -5.680894    2.545239    6.906451

 Multiplicity           Mult            ....    1
 Number of Electrons    NEL             ....   18
 Basis Dimension        Dim             ....  172

ORBITAL ENERGIES
----------------

  NO   OCC          E(Eh)            E(eV)
   0   2.0000     -19.227728      -523.2131
   1   2.0000     -10.320319      -280.8302
   2   2.0000      -1.149573       -31.2815
   3   2.0000      -0.793150       -21.5827
   4   2.0000      -0.613770       -16.7015
   5   2.0000      -0.555202       -15.1078
   6   2.0000      -0.526317       -14.3218
   7   2.0000      -0.412389       -11.2217
   8   2.0000      -0.378252       -10.2928
   9   0.0000       0.082937         2.2568
  10   0.0000       0.117755         3.2043
  11   0.0000       0.152359         4.1459
  12   0.0000       0.161743         4.4012
  13   0.0000       0.180804         4.9199

MULLIKEN ATOMIC CHARGES
-----------------------
   0 C :   -0.001112
   1 O :    0.000054
   2 H :   -0.000064
   3 H :   -0.000009
   4 H :    0.001577
   5 H :    0.000041
   6 C :   -0.169780
   7 O :   -0.464244
   8 H :    0.317079
   9 H :    0.097445
  10 H :    0.116671
  11 H :    0.102341
Sum of atomic charges:    0.0000000

LOEWDIN ATOMIC CHARGES
----------------------
   0 C :   -0.001114
   1 O :   -0.000034
   2 H :   -0.000240
   3 H :   -0.000006
   4 H :   -0.002295
   5 H :   -0.000037
   6 C :   -0.422462
   7 O :   -0.045929
   8 H :    0.155552
   9 H :    0.105685
  10 H :    0.109062
  11 H :    0.101819

  Mayer bond orders larger than 0.1
B(  6-C ,  7-O ) :   1.0161 B(  6-C ,  9-H ) :   0.9870 B(  6-C , 10-H ) :   0.9698
B(  6-C , 11-H ) :   0.9648 B(  7-O ,  8-H ) :   0.9008

Dispersion correction           -0.000247230
FINAL SINGLE POINT ENERGY      -115.727496227518

DIPOLE MOMENT
-------------
                                X             Y             Z
Electronic contribution:      0.41071       1.55382      -0.96811
Nuclear contribution   :     -0.18098      -2.12768       0.81444
                        -----------------------------------------
Total Dipole Moment    :      0.22973      -0.57387      -0.15367
                        -----------------------------------------
Magnitude (a.u.)       :      0.63696
Magnitude (Debye)      :      1.61902

Rotational constants in cm-1:     4.192839     0.840307     0.834249
Rotational constants in MHz : 125698.157294 25191.776279 25010.153613

                             ****ORCA TERMINATED NORMALLY****
TOTAL RUN TIME: 0 days 0 hours 0 minutes 50 seconds 869 msec
