                         Program Version 4.1.2  - RELEASE  -
|  1> #Run DFT-D3 single point of the dimer
|  2> ! wB97X-D3 def2-TZVP TIGHTSCF CHELPG PMODEL PAL8
|  3>
|  4> %base "21-17_DFT_AB"
|  5>
|  6> %scf
|  7> MaxIter 1000
|  8> end
|  9>
| 10> * xyz 0 1
| 11>   C                      7.010154             -0.039045            -9.433605
| 12>   O                      8.270154             0.587972             -9.839625
| 13>   H                      8.487820             0.297724             -10.722834
| 14>   H                      6.245528             0.058010             -10.219982
| 15>   H                      7.161661             -1.110750            -9.489318
| 16>   H                      6.696794             0.214839             -8.443639
| 17>   C                      7.100996             4.184445             -10.717289
| 18>   O                      8.128690             5.123075             -11.097442
| 19>   H                      8.982406             4.783238             -10.782652
| 20>   H                      6.067444             4.537163             -10.843540
| 21>   H                      7.319320             3.210798             -11.247380
| 22>   H                      7.083041             3.865088             -9.682737
| 23> *
| 24>
| 25> #Run DFT-D3 single point of the molecule with dimer basis set
| 26> $new_job
| 27> %base "21-17_DFT_A"
| 28> ! wB97X-D3 def2-TZVP TIGHTSCF CHELPG PMODEL
| 29>
| 30> %scf
| 31> MaxIter 1000
| 32> end
| 33>
| 34> * xyz 0 1
| 35>   C                      7.010154             -0.039045            -9.433605
| 36>   O                      8.270154             0.587972             -9.839625
| 37>   H                      8.487820             0.297724             -10.722834
| 38>   H                      6.245528             0.058010             -10.219982
| 39>   H                      7.161661             -1.110750            -9.489318
| 40>   H                      6.696794             0.214839             -8.443639
| 41>   C                    : 7.100996             4.184445             -10.717289
| 42>   O                    : 8.128690             5.123075             -11.097442
| 43>   H                    : 8.982406             4.783238             -10.782652
| 44>   H                    : 6.067444             4.537163             -10.843540
| 45>   H                    : 7.319320             3.210798             -11.247380
| 46>   H                    : 7.083041             3.865088             -9.682737
| 47> *
| 48>
| 49> #Run DFT-D3 single point of the particle with dimer basis set
| 50> $new_job
| 51> %base "21-17_DFT_B"
| 52> ! wB97X-D3 def2-TZVP TIGHTSCF CHELPG PMODEL
| 53>
| 54> %scf
| 55> MaxIter 1000
| 56> end
| 57>
| 58> * xyz 0 1
| 59>   C                    : 7.010154             -0.039045            -9.433605
| 60>   O                    : 8.270154             0.587972             -9.839625
| 61>   H                    : 8.487820             0.297724             -10.722834
| 62>   H                    : 6.245528             0.058010             -10.219982
| 63>   H                    : 7.161661             -1.110750            -9.489318
| 64>   H                    : 6.696794             0.214839             -8.443639
| 65>   C                      7.100996             4.184445             -10.717289
| 66>   O                      8.128690             5.123075             -11.097442
| 67>   H                      8.982406             4.783238             -10.782652
| 68>   H                      6.067444             4.537163             -10.843540
| 69>   H                      7.319320             3.210798             -11.247380
| 70>   H                      7.083041             3.865088             -9.682737
| 71> *
| 72>
| 73>                          ****END OF INPUT****
 Total Charge           Charge          ....    0
 Multiplicity           Mult            ....    1
 Number of Electrons    NEL             ....   36
Dispersion correction           -0.001405659
FINAL SINGLE POINT ENERGY      -231.461032964477
Dispersion correction           -0.000245159
FINAL SINGLE POINT ENERGY      -115.729743664532

CARTESIAN COORDINATES (ANGSTROEM)
---------------------------------
  C      7.010154   -0.039045   -9.433605
  O      8.270154    0.587972   -9.839625
  H      8.487820    0.297724  -10.722834
  H      6.245528    0.058010  -10.219982
  H      7.161661   -1.110750   -9.489318
  H      6.696794    0.214839   -8.443639
  C      7.100996    4.184445  -10.717289
  O      8.128690    5.123075  -11.097442
  H      8.982406    4.783238  -10.782652
  H      6.067444    4.537163  -10.843540
  H      7.319320    3.210798  -11.247380
  H      7.083041    3.865088   -9.682737

 Multiplicity           Mult            ....    1
 Number of Electrons    NEL             ....   18
 Basis Dimension        Dim             ....  172

ORBITAL ENERGIES
----------------

  NO   OCC          E(Eh)            E(eV)
   0   2.0000     -19.234054      -523.3852
   1   2.0000     -10.319489      -280.8076
   2   2.0000      -1.126550       -30.6550
   3   2.0000      -0.796182       -21.6652
   4   2.0000      -0.608194       -16.5498
   5   2.0000      -0.540660       -14.7121
   6   2.0000      -0.514946       -14.0124
   7   2.0000      -0.437231       -11.8977
   8   2.0000      -0.372076       -10.1247
   9   0.0000       0.076261         2.0752
  10   0.0000       0.114535         3.1167
  11   0.0000       0.149168         4.0591
  12   0.0000       0.156432         4.2567
  13   0.0000       0.185387         5.0446

MULLIKEN ATOMIC CHARGES
-----------------------
   0 C :   -0.000839
   1 O :    0.000032
   2 H :   -0.000151
   3 H :   -0.000103
   4 H :   -0.000031
   5 H :    0.000064
   6 C :   -0.180366
   7 O :   -0.476726
   8 H :    0.317776
   9 H :    0.127860
  10 H :    0.104887
  11 H :    0.107597
Sum of atomic charges:    0.0000000

LOEWDIN ATOMIC CHARGES
----------------------
   0 C :   -0.001104
   1 O :   -0.000811
   2 H :   -0.000528
   3 H :   -0.000222
   4 H :   -0.000015
   5 H :   -0.000057
   6 C :   -0.376872
   7 O :   -0.101314
   8 H :    0.174961
   9 H :    0.110906
  10 H :    0.103402
  11 H :    0.091654

  Mayer bond orders larger than 0.1
B(  6-C ,  7-O ) :   0.9952 B(  6-C ,  9-H ) :   0.9686 B(  6-C , 10-H ) :   0.9830
B(  6-C , 11-H ) :   0.9676 B(  7-O ,  8-H ) :   0.8951

Dispersion correction           -0.000265872
FINAL SINGLE POINT ENERGY      -115.729388256614

DIPOLE MOMENT
-------------
                                X             Y             Z
Electronic contribution:      1.17325       1.44133      -0.57712
Nuclear contribution   :     -1.05887      -2.03174       0.96593
                        -----------------------------------------
Total Dipole Moment    :      0.11438      -0.59041       0.38882
                        -----------------------------------------
Magnitude (a.u.)       :      0.71613
Magnitude (Debye)      :      1.82026

Rotational constants in cm-1:     4.342306     0.794979     0.761484
Rotational constants in MHz : 130179.063032 23832.876049 22828.724305

                             ****ORCA TERMINATED NORMALLY****
TOTAL RUN TIME: 0 days 0 hours 1 minutes 1 seconds 136 msec
