                         Program Version 4.1.2  - RELEASE  -
|  1> #Run DFT geometry optimization
|  2> ! wB97X-D3 def2-TZVP TIGHTSCF Grid5 FinalGrid6 Opt CHELPG PAL4
|  3>
|  4> %base "6_geo_opt"
|  5> %geom MaxIter 500
|  6> end
|  7>
|  8> %geom
|  9>   Constraints
| 10>     { B 5 0 C }
| 11>   end
| 12> end
| 13>
| 14>
| 15> * xyz 0 1
| 16>   C                    3.011260             -1.180815            0.598523
| 17>   O                    4.394625             -1.127968            0.874339
| 18>   H                    4.772148             -0.378940            0.412525
| 19>   H                    2.806386             -1.318883            -0.469318
| 20>   H                    2.611584             -2.040183            1.135930
| 21>   H                    2.484805             -0.284573            0.945627
| 22> *
| 23>
| 24>                          ****END OF INPUT****
 Total Charge           Charge          ....    0
 Multiplicity           Mult            ....    1
 Number of Electrons    NEL             ....   18
Dispersion correction           -0.000239231
FINAL SINGLE POINT ENERGY      -115.738051318395
Dispersion correction            ... done
                    ***********************HURRAY********************

CARTESIAN COORDINATES (ANGSTROEM)
---------------------------------
  C      3.011306   -1.180842    0.598556
  O      4.394649   -1.127946    0.874312
  H      4.772139   -0.378904    0.412518
  H      2.806394   -1.318899   -0.469286
  H      2.611484   -2.040175    1.135901
  H      2.484835   -0.284596    0.945626

 Multiplicity           Mult            ....    1
 Number of Electrons    NEL             ....   18
 Basis Dimension        Dim             ....   86

ORBITAL ENERGIES
----------------

  NO   OCC          E(Eh)            E(eV)
   0   2.0000     -19.228077      -523.2226
   1   2.0000     -10.315087      -280.6878
   2   2.0000      -1.136807       -30.9341
   3   2.0000      -0.795359       -21.6428
   4   2.0000      -0.611603       -16.6426
   5   2.0000      -0.541787       -14.7428
   6   2.0000      -0.526334       -14.3223
   7   2.0000      -0.433792       -11.8041
   8   2.0000      -0.373606       -10.1663
   9   0.0000       0.116647         3.1741
  10   0.0000       0.156682         4.2635
  11   0.0000       0.202582         5.5125
  12   0.0000       0.205132         5.5819
  13   0.0000       0.226376         6.1600

MULLIKEN ATOMIC CHARGES
-----------------------
   0 C :   -0.150839
   1 O :   -0.477650
   2 H :    0.313012
   3 H :    0.098612
   4 H :    0.118217
   5 H :    0.098648
Sum of atomic charges:   -0.0000000

LOEWDIN ATOMIC CHARGES
----------------------
   0 C :   -0.385158
   1 O :   -0.076076
   2 H :    0.165782
   3 H :    0.093400
   4 H :    0.108692
   5 H :    0.093360

  Mayer bond orders larger than 0.1
B(  0-C ,  1-O ) :   0.9987 B(  0-C ,  3-H ) :   0.9755 B(  0-C ,  4-H ) :   0.9749
B(  0-C ,  5-H ) :   0.9755 B(  1-O ,  2-H ) :   0.9002

Dispersion correction           -0.000239230
FINAL SINGLE POINT ENERGY      -115.738051332922

DIPOLE MOMENT
-------------
                                X             Y             Z
Electronic contribution:      1.75591      -0.02805       0.41990
Nuclear contribution   :     -2.06575       0.47569      -0.81750
                        -----------------------------------------
Total Dipole Moment    :     -0.30985       0.44764      -0.39760
                        -----------------------------------------
Magnitude (a.u.)       :      0.67414
Magnitude (Debye)      :      1.71354

Rotational constants in cm-1:     4.293441     0.833831     0.804933
Rotational constants in MHz : 128714.109829 24997.618139 24131.283948

                             ****ORCA TERMINATED NORMALLY****
TOTAL RUN TIME: 0 days 0 hours 0 minutes 35 seconds 433 msec
