                         Program Version 4.1.2  - RELEASE  -
|  1> #Run DFT-D3 single point of the dimer
|  2> ! wB97X-D3 def2-TZVP TIGHTSCF CHELPG PMODEL PAL8
|  3>
|  4> %base "9-11_DFT_AB"
|  5>
|  6> %scf
|  7> MaxIter 1000
|  8> end
|  9>
| 10> * xyz 0 1
| 11>   C                      5.326910             4.806322             -3.533113
| 12>   O                      6.034877             3.972360             -4.447765
| 13>   H                      6.237275             3.163824             -3.960999
| 14>   H                      6.014065             5.326131             -2.833834
| 15>   H                      4.817935             5.581777             -4.157801
| 16>   H                      4.623172             4.233674             -2.922331
| 17>   C                      3.162197             4.958101             -6.603433
| 18>   O                      4.563624             5.084761             -6.777516
| 19>   H                      4.943785             4.667740             -6.035740
| 20>   H                      2.796067             4.106056             -7.133728
| 21>   H                      2.928825             4.911993             -5.554647
| 22>   H                      2.581933             5.756402             -7.055443
| 23> *
| 24>
| 25> #Run DFT-D3 single point of the molecule with dimer basis set
| 26> $new_job
| 27> %base "9-11_DFT_A"
| 28> ! wB97X-D3 def2-TZVP TIGHTSCF CHELPG PMODEL
| 29>
| 30> %scf
| 31> MaxIter 1000
| 32> end
| 33>
| 34> * xyz 0 1
| 35>   C                      5.326910             4.806322             -3.533113
| 36>   O                      6.034877             3.972360             -4.447765
| 37>   H                      6.237275             3.163824             -3.960999
| 38>   H                      6.014065             5.326131             -2.833834
| 39>   H                      4.817935             5.581777             -4.157801
| 40>   H                      4.623172             4.233674             -2.922331
| 41>   C                    : 3.162197             4.958101             -6.603433
| 42>   O                    : 4.563624             5.084761             -6.777516
| 43>   H                    : 4.943785             4.667740             -6.035740
| 44>   H                    : 2.796067             4.106056             -7.133728
| 45>   H                    : 2.928825             4.911993             -5.554647
| 46>   H                    : 2.581933             5.756402             -7.055443
| 47> *
| 48>
| 49> #Run DFT-D3 single point of the particle with dimer basis set
| 50> $new_job
| 51> %base "9-11_DFT_B"
| 52> ! wB97X-D3 def2-TZVP TIGHTSCF CHELPG PMODEL
| 53>
| 54> %scf
| 55> MaxIter 1000
| 56> end
| 57>
| 58> * xyz 0 1
| 59>   C                    : 5.326910             4.806322             -3.533113
| 60>   O                    : 6.034877             3.972360             -4.447765
| 61>   H                    : 6.237275             3.163824             -3.960999
| 62>   H                    : 6.014065             5.326131             -2.833834
| 63>   H                    : 4.817935             5.581777             -4.157801
| 64>   H                    : 4.623172             4.233674             -2.922331
| 65>   C                      3.162197             4.958101             -6.603433
| 66>   O                      4.563624             5.084761             -6.777516
| 67>   H                      4.943785             4.667740             -6.035740
| 68>   H                      2.796067             4.106056             -7.133728
| 69>   H                      2.928825             4.911993             -5.554647
| 70>   H                      2.581933             5.756402             -7.055443
| 71> *
| 72>
| 73>                          ****END OF INPUT****
 Total Charge           Charge          ....    0
 Multiplicity           Mult            ....    1
 Number of Electrons    NEL             ....   36
Dispersion correction           -0.002023960
FINAL SINGLE POINT ENERGY      -231.475169469567
Dispersion correction           -0.000242129
FINAL SINGLE POINT ENERGY      -115.736194897200

CARTESIAN COORDINATES (ANGSTROEM)
---------------------------------
  C      5.326910    4.806322   -3.533113
  O      6.034877    3.972360   -4.447765
  H      6.237275    3.163824   -3.960999
  H      6.014065    5.326131   -2.833834
  H      4.817935    5.581777   -4.157801
  H      4.623172    4.233674   -2.922331
  C      3.162197    4.958101   -6.603433
  O      4.563624    5.084761   -6.777516
  H      4.943785    4.667740   -6.035740
  H      2.796067    4.106056   -7.133728
  H      2.928825    4.911993   -5.554647
  H      2.581933    5.756402   -7.055443

 Multiplicity           Mult            ....    1
 Number of Electrons    NEL             ....   18
 Basis Dimension        Dim             ....  172

ORBITAL ENERGIES
----------------

  NO   OCC          E(Eh)            E(eV)
   0   2.0000     -19.228402      -523.2314
   1   2.0000     -10.308068      -280.4968
   2   2.0000      -1.142663       -31.0934
   3   2.0000      -0.801992       -21.8233
   4   2.0000      -0.613587       -16.6966
   5   2.0000      -0.547223       -14.8907
   6   2.0000      -0.531994       -14.4763
   7   2.0000      -0.437729       -11.9112
   8   2.0000      -0.374295       -10.1851
   9   0.0000       0.070805         1.9267
  10   0.0000       0.142959         3.8901
  11   0.0000       0.150160         4.0861
  12   0.0000       0.165850         4.5130
  13   0.0000       0.185178         5.0390

MULLIKEN ATOMIC CHARGES
-----------------------
   0 C :   -0.002926
   1 O :   -0.000548
   2 H :    0.000026
   3 H :   -0.000346
   4 H :   -0.006724
   5 H :    0.000264
   6 C :   -0.169307
   7 O :   -0.458030
   8 H :    0.307025
   9 H :    0.109826
  10 H :    0.106363
  11 H :    0.114376
Sum of atomic charges:    0.0000000

LOEWDIN ATOMIC CHARGES
----------------------
   0 C :   -0.011343
   1 O :   -0.012746
   2 H :   -0.000553
   3 H :   -0.000120
   4 H :   -0.007668
   5 H :   -0.000225
   6 C :   -0.370858
   7 O :   -0.048974
   8 H :    0.158738
   9 H :    0.092723
  10 H :    0.096066
  11 H :    0.104961

  Mayer bond orders larger than 0.1
B(  6-C ,  7-O ) :   0.9871 B(  6-C ,  9-H ) :   0.9861 B(  6-C , 10-H ) :   0.9813
B(  6-C , 11-H ) :   0.9734 B(  7-O ,  8-H ) :   0.9175

Dispersion correction           -0.000229949
FINAL SINGLE POINT ENERGY      -115.733159737357

DIPOLE MOMENT
-------------
                                X             Y             Z
Electronic contribution:      1.78678       0.24478      -0.31190
Nuclear contribution   :     -2.12230      -0.55623       0.84471
                        -----------------------------------------
Total Dipole Moment    :     -0.33552      -0.31145       0.53280
                        -----------------------------------------
Magnitude (a.u.)       :      0.70246
Magnitude (Debye)      :      1.78552

Rotational constants in cm-1:     4.483655     0.834808     0.800973
Rotational constants in MHz : 134416.601174 25026.921999 24012.559958

                             ****ORCA TERMINATED NORMALLY****
TOTAL RUN TIME: 0 days 0 hours 0 minutes 44 seconds 88 msec
